Title
82320
    1SAPS     N    1   6.363   5.997  11.093 -0.1574 -0.1791 -0.6478
    1SAPS   HN1    2   6.365   6.101  11.095 -1.7409 -0.0940 -1.6727
    1SAPS   HN2    3   6.367   5.954  10.999  1.6466 -2.4225  0.3459
    1SAPS   HN3    4   6.270   5.975  11.134 -0.2419  0.8601 -0.2516
    1SAPS   C12    5   6.476   5.940  11.168 -0.4740 -0.2011  0.5542
    1SAPS  H12A    6   6.464   5.960  11.273 -0.7431  0.5262  0.3840
    1SAPS   C13    7   6.472   5.787  11.162 -0.0280 -0.0128  0.0432
    1SAPS  O13A    8   6.368   5.728  11.126  0.9401  1.0299 -0.3097
    1SAPS  O13B    9   6.551   5.731  11.240 -0.1481  0.5320  0.2629
    1SAPS   C11   10   6.609   5.996  11.114  0.0621  0.2315 -0.2388
    1SAPS  H11A   11   6.696   5.964  11.176  0.8246 -1.3091 -1.9977
    1SAPS  H11B   12   6.597   6.105  11.130 -2.1067  0.2715 -1.7120
    1SAPS     P   13   6.744   6.018  10.896 -0.1004 -0.1762  0.2481
    1SAPS   O13   14   6.720   6.166  10.902 -0.0676  0.1867  0.1510
    1SAPS   O14   15   6.873   5.966  10.946  0.3950  0.1024  0.0678
    1SAPS   O12   16   6.629   5.954  10.980  0.3029  0.0192  0.1708
    1SAPS   O11   17   6.732   5.969  10.742  0.1198 -0.0915 -0.0428
    1SAPS    C1   18   6.667   5.843  10.706 -0.3408 -0.1111  0.5378
    1SAPS    HA   19   6.614   5.793  10.790 -2.2338 -0.6147 -0.8880
    1SAPS    HB   20   6.592   5.854  10.626 -0.1209  0.5284  0.4186
    1SAPS    C2   21   6.769   5.732  10.668  0.4054 -0.8151 -0.9037
    1SAPS    HS   22   6.844   5.733  10.750 -0.8016 -0.5075  0.2287
    1SAPS   O21   23   6.820   5.767  10.540 -0.3189 -0.6989 -0.3200
    1SAPS   C21   24   6.929   5.703  10.500 -0.6695 -0.0184  0.9230
    1SAPS   O22   25   6.985   5.614  10.556 -0.1503 -0.0030  0.4425
    1SAPS   C22   26   6.964   5.743  10.359  0.1824  0.3208 -0.3163
    1SAPS   H2R   27   6.871   5.732  10.300 -1.2317 -0.1644  1.8608
    1SAPS   H2S   28   6.977   5.853  10.347 -2.1664  0.3572 -3.9621
    1SAPS    C3   29   6.709   5.586  10.673 -0.0681 -0.4406  0.9680
    1SAPS    HX   30   6.674   5.576  10.778  0.5577  0.2325  1.2444
    1SAPS    HY   31   6.787   5.509  10.657 -0.8494 -0.8087 -1.6732
    1SAPS   O31   32   6.602   5.575  10.574  0.1672  0.2669  0.5145
    1SAPS   C31   33   6.474   5.560  10.619 -0.7669 -0.5190 -0.2595
    1SAPS   O32   34   6.443   5.551  10.736  0.3817  0.1917  0.0783
    1SAPS   C32   35   6.375   5.589  10.500 -0.0281 -0.1729  0.0420
    1SAPS   H2X   36   6.395   5.691  10.460  0.0114 -0.4841 -0.7414
    1SAPS   H2Y   37   6.272   5.590  10.542 -0.8862  2.5591 -1.8335
    1SAPS   C23   38   7.092   5.684  10.292 -0.2427  0.1002  0.8331
    1SAPS   H3R   39   7.109   5.582  10.331  0.9706 -0.0141  0.0405
    1SAPS   H3S   40   7.179   5.746  10.324 -0.5719  2.6839 -2.7367
    1SAPS   C24   41   7.086   5.681  10.138  0.1367 -0.5393 -0.1694
    1SAPS   H4R   42   7.186   5.651  10.099  2.1166 -1.1855  4.7721
    1SAPS   H4S   43   7.055   5.777  10.091  0.5525 -0.7851 -0.9609
    1SAPS   C25   44   6.994   5.568  10.093 -0.4196 -0.6774 -0.0320
    1SAPS   H5R   45   7.001   5.481  10.161  1.1759 -1.0816 -0.6698
    1SAPS   C26   46   6.916   5.573   9.982  0.1213  0.4945 -0.5846
    1SAPS   H6R   47   6.857   5.485   9.953  1.6564  0.1390 -2.9471
    1SAPS   C27   48   6.897   5.695   9.889 -0.3430  0.2300 -0.3234
    1SAPS   H7R   49   6.991   5.720   9.837 -0.2428 -0.8242 -0.6587
    1SAPS   H7S   50   6.888   5.785   9.955  0.6443  0.7999 -0.9388
    1SAPS   C28   51   6.793   5.693   9.785 -0.1307 -0.0966  0.9571
    1SAPS   H8R   52   6.774   5.588   9.758  2.5461 -0.8298  1.5712
    1SAPS   C29   53   6.715   5.795   9.740 -1.1687 -0.4864 -0.1030
    1SAPS   H9R   54   6.637   5.771   9.666 -0.7487  0.0304 -0.7145
    1SAPS  C210   55   6.720   5.944   9.788 -0.1132  0.0454  0.0759
    1SAPS  H10R   56   6.657   5.996   9.713  1.2849 -0.6698 -1.6758
    1SAPS  H10S   57   6.820   5.994   9.787  0.4041 -0.9626 -1.6202
    1SAPS  C211   58   6.661   5.967   9.930 -0.6591 -0.0908 -0.2018
    1SAPS  H11R   59   6.671   5.881   9.998  2.6299  1.5548  1.6474
    1SAPS  C212   60   6.610   6.086   9.976  0.6653  0.6668 -0.2419
    1SAPS  H12R   61   6.556   6.086  10.072 -1.7932  2.2235 -1.5177
    1SAPS  C213   62   6.602   6.208   9.899 -0.6239 -0.7492  0.1152
    1SAPS  H13R   63   6.662   6.198   9.806 -3.3521 -1.8117 -1.6879
    1SAPS  H13S   64   6.636   6.285   9.971  1.1174 -0.3687 -1.0542
    1SAPS  C214   65   6.466   6.240   9.845 -0.4202 -0.0468 -0.3018
    1SAPS  H14R   66   6.378   6.191   9.890 -1.5311  0.9794 -1.2729
    1SAPS  C215   67   6.442   6.331   9.752  0.5955 -0.1024  0.4946
    1SAPS  H15R   68   6.336   6.358   9.748  0.0904 -1.7638  1.7892
    1SAPS  C216   69   6.538   6.416   9.678 -0.5572 -0.1665 -0.9319
    1SAPS  H16R   70   6.642   6.419   9.719 -0.2475 -1.3246 -1.5911
    1SAPS  H16S   71   6.502   6.521   9.689  0.7958  0.1190  1.5139
    1SAPS  C217   72   6.559   6.374   9.531  0.1266 -0.3936 -0.1420
    1SAPS  H17R   73   6.575   6.264   9.526 -1.5902 -0.8398  2.2963
    1SAPS  H17S   74   6.650   6.425   9.494  1.2371 -0.1983  2.6545
    1SAPS  C218   75   6.435   6.397   9.444  0.2963 -0.6279 -0.2658
    1SAPS  H18R   76   6.400   6.502   9.446  1.7159 -0.1410  0.8042
    1SAPS  H18S   77   6.353   6.326   9.469  1.4956 -1.7085  0.7636
    1SAPS  C219   78   6.483   6.381   9.298 -0.1055  0.2598  0.5609
    1SAPS  H19R   79   6.515   6.275   9.297 -1.7514 -0.4155 -3.5491
    1SAPS  H19S   80   6.560   6.458   9.275 -3.1528  3.7075  0.8694
    1SAPS  C220   81   6.373   6.383   9.187  0.6211 -0.0416 -0.4387
    1SAPS  H20R   82   6.284   6.332   9.230 -0.6361  0.3273 -2.4608
    1SAPS  H20S   83   6.410   6.337   9.093  0.6898  1.4962 -1.1963
    1SAPS  H20T   84   6.355   6.490   9.165 -1.2537  0.4146  2.6709
    1SAPS   C33   85   6.387   5.492  10.378 -0.8753  0.1041 -0.2110
    1SAPS   H3X   86   6.295   5.502  10.317 -0.7929 -2.5670 -0.8939
    1SAPS   H3Y   87   6.391   5.385  10.408  0.8705  1.0541  3.4445
    1SAPS   C34   88   6.505   5.523  10.284  0.0778 -0.6944 -0.7770
    1SAPS   H4X   89   6.598   5.473  10.318 -0.1375 -1.5020 -1.3560
    1SAPS   H4Y   90   6.521   5.633  10.291 -1.8421 -0.4889  2.3099
    1SAPS   C35   91   6.474   5.477  10.136  0.7915  0.2814  0.6041
    1SAPS   H5X   92   6.402   5.552  10.099  1.8624  0.6134 -0.8981
    1SAPS   H5Y   93   6.434   5.374  10.126 -0.4425  0.8879 -1.0698
    1SAPS   C36   94   6.603   5.459  10.048  0.1559  0.2889 -0.1742
    1SAPS   H6X   95   6.673   5.393  10.103  1.6301  1.2960 -0.7868
    1SAPS   H6Y   96   6.655   5.557  10.048  1.0285 -0.1189  1.8998
    1SAPS   C37   97   6.576   5.403   9.906  0.4993 -0.4624 -0.2597
    1SAPS   H7X   98   6.535   5.301   9.917  2.2420 -1.3844 -1.7371
    1SAPS   H7Y   99   6.674   5.382   9.858  0.2151 -0.9204 -0.6502
    1SAPS   C38  100   6.498   5.498   9.807  0.6499  1.0091  0.0761
    1SAPS   H8X  101   6.539   5.600   9.796 -3.4839  2.6930 -2.3890
    1SAPS   H8Y  102   6.397   5.504   9.853  0.9004 -0.2105  0.8379
    1SAPS   C39  103   6.483   5.452   9.661  0.2450 -0.6456 -0.1134
    1SAPS   H9X  104   6.449   5.346   9.654 -0.0024 -0.4850 -1.6949
    1SAPS   H9Y  105   6.587   5.438   9.624 -0.3278  1.3871 -2.7925
    1SAPS  C310  106   6.422   5.555   9.560 -0.0759  1.3548  0.1630
    1SAPS  H10X  107   6.467   5.656   9.573  2.7708  0.4025 -1.4986
    1SAPS  H10Y  108   6.312   5.556   9.575 -0.1382  1.4825 -0.2951
    1SAPS  C311  109   6.442   5.515   9.413  0.3311 -0.1738  0.2867
    1SAPS  H11X  110   6.428   5.406   9.398 -1.1896  0.0479  0.0056
    1SAPS  H11Y  111   6.549   5.523   9.384  0.3751 -1.8192 -0.0545
    1SAPS  C312  112   6.358   5.600   9.311  0.5724 -0.0864  0.2358
    1SAPS  H12X  113   6.374   5.710   9.309  0.0185 -0.0057 -0.8355
    1SAPS  H12Y  114   6.251   5.583   9.335  0.9234 -0.6591  1.4802
    1SAPS  C313  115   6.376   5.545   9.166  0.3917  0.1651  0.2243
    1SAPS  H13X  116   6.353   5.437   9.178 -0.6656  0.4746  1.2180
    1SAPS  H13Y  117   6.479   5.562   9.129 -0.8923  3.6640 -2.3037
    1SAPS  C314  118   6.280   5.612   9.063  0.4871 -0.2976  0.4650
    1SAPS  H14X  119   6.324   5.713   9.043  0.3737 -0.1665  0.8725
    1SAPS  H14Y  120   6.177   5.627   9.101 -0.4663 -1.3668 -1.5307
    1SAPS  C315  121   6.273   5.543   8.926  0.8638  0.2256 -0.1027
    1SAPS  H15X  122   6.228   5.443   8.942  1.8035 -0.0961  0.6535
    1SAPS  H15Y  123   6.363   5.521   8.865 -0.3240  1.0119 -2.2433
    1SAPS  C316  124   6.173   5.612   8.839 -0.1920 -0.0876 -0.1081
    1SAPS  H16X  125   6.229   5.697   8.793  1.1739 -1.4144 -0.9907
    1SAPS  H16Y  126   6.080   5.640   8.893  0.7987  0.1692  1.5242
    1SAPS  C317  127   6.123   5.527   8.722 -0.9414  0.0243 -0.3301
    1SAPS  H17X  128   6.067   5.439   8.760  1.0524 -1.2057 -0.1088
    1SAPS  H17Y  129   6.206   5.478   8.668 -0.0009 -1.3414  2.2025
    1SAPS  C318  130   6.031   5.609   8.626  0.0625  0.0516 -0.4738
    1SAPS  H18X  131   6.007   5.557   8.531 -1.2877  0.0094 -0.1291
    1SAPS  H18Y  132   6.080   5.705   8.600  0.4082  1.0699  3.3172
    1SAPS  H18Z  133   5.947   5.653   8.683  1.0322 -0.5810  1.5436
    2SAPS     N  134   6.224   5.622  10.930  0.8563 -0.2425 -0.2457
    2SAPS   HN1  135   6.284   5.660  11.006 -1.6535  0.6543  1.4580
    2SAPS   HN2  136   6.282   5.556  10.875 -0.5609 -0.9458 -0.9762
    2SAPS   HN3  137   6.200   5.701  10.867  0.0071  0.4789  0.9190
    2SAPS   C12  138   6.120   5.543  10.993  0.1817  0.6018 -0.8758
    2SAPS  H12A  139   6.156   5.510  11.090 -1.2892  0.2950 -0.4110
    2SAPS   C13  140   5.992   5.632  11.013 -0.4657  0.1553 -0.1688
    2SAPS  O13A  141   5.996   5.755  10.982 -0.6141 -0.8222 -0.2794
    2SAPS  O13B  142   5.883   5.585  11.058  0.2691  0.5150  0.0715
    2SAPS   C11  143   6.087   5.417  10.897 -0.1973  0.0884 -0.4604
    2SAPS  H11A  144   6.040   5.472  10.813  1.8867  1.6147 -0.7262
    2SAPS  H11B  145   6.018   5.359  10.961  0.2117 -1.8795 -1.7026
    2SAPS     P  146   6.192   5.199  10.827  0.2216  0.2085 -0.3419
    2SAPS   O13  147   6.325   5.153  10.788  0.2477 -0.1467  0.6092
    2SAPS   O14  148   6.109   5.133  10.935 -0.9184 -0.1883 -0.3291
    2SAPS   O12  149   6.203   5.352  10.863 -0.3060  0.3862 -0.2678
    2SAPS   O11  150   6.108   5.205  10.698  0.3558  0.2235  0.2546
    2SAPS    C1  151   6.124   5.305  10.594  0.0893 -0.0053 -0.4299
    2SAPS    HA  152   6.186   5.393  10.621  0.4093 -0.4279  0.2189
    2SAPS    HB  153   6.186   5.259  10.515  1.9687  0.9048  0.4429
    2SAPS    C2  154   5.992   5.337  10.531 -0.0628  0.6402 -0.0462
    2SAPS    HS  155   5.932   5.382  10.614 -0.6341 -0.8329  0.3745
    2SAPS   O21  156   5.923   5.212  10.490 -0.4325 -0.8574 -0.4033
    2SAPS   C21  157   5.789   5.211  10.489 -0.0330 -0.1132 -0.6496
    2SAPS   O22  158   5.720   5.307  10.512  0.4217  0.1830  0.0950
    2SAPS   C22  159   5.745   5.073  10.459 -0.5606 -0.3470 -0.1378
    2SAPS   H2R  160   5.834   5.006  10.467  0.1306  0.4434 -0.9868
    2SAPS   H2S  161   5.672   5.047  10.538 -0.5536  1.7556  0.6052
    2SAPS    C3  162   5.997   5.450  10.425 -0.2030 -0.0532 -0.0104
    2SAPS    HX  163   6.056   5.536  10.463  0.3628  0.2165 -1.4398
    2SAPS    HY  164   5.901   5.499  10.401 -0.1730  0.0304  0.0365
    2SAPS   O31  165   6.071   5.409  10.307  0.0647 -0.0002 -1.1026
    2SAPS   C31  166   5.992   5.408  10.198 -0.1231 -0.5863  0.1042
    2SAPS   O32  167   5.869   5.412  10.196 -0.0209  0.4709 -0.0697
    2SAPS   C32  168   6.084   5.419  10.077  0.5069 -0.2440 -0.2440
    2SAPS   H2X  169   6.164   5.341  10.081 -0.2702 -1.1593 -1.7345
    2SAPS   H2Y  170   6.128   5.521  10.075  1.4042 -0.5922  0.7557
    2SAPS   C23  171   5.694   5.060  10.319  0.8348 -0.3149  0.3141
    2SAPS   H3R  172   5.777   5.086  10.250 -0.5409 -0.4483 -1.4696
    2SAPS   H3S  173   5.623   5.143  10.300  0.3881 -0.7996 -0.1662
    2SAPS   C24  174   5.624   4.931  10.292  0.9456 -0.2522 -0.1391
    2SAPS   H4R  175   5.555   4.920  10.378  2.1550 -0.1166  0.8738
    2SAPS   H4S  176   5.704   4.855  10.283  1.9700  1.0655 -4.2586
    2SAPS   C25  177   5.542   4.919  10.160  0.1248 -0.1486  0.0400
    2SAPS   H5R  178   5.434   4.938  10.169  0.5223  2.4227  0.2334
    2SAPS   C26  179   5.600   4.914  10.034 -0.0027 -0.3384 -0.1768
    2SAPS   H6R  180   5.537   4.902   9.944 -1.1281 -0.2175  0.5618
    2SAPS   C27  181   5.750   4.919  10.011 -0.2294  0.5393  0.3696
    2SAPS   H7R  182   5.807   4.882  10.099 -0.6098 -1.1375 -0.0601
    2SAPS   H7S  183   5.786   5.024  10.002  1.6859 -0.1624 -0.6460
    2SAPS   C28  184   5.802   4.836   9.895 -0.0939 -1.3069 -0.3184
    2SAPS   H8R  185   5.789   4.727   9.909  1.0673 -1.4961 -0.6792
    2SAPS   C29  186   5.856   4.876   9.784  0.0958 -0.0989  0.1092
    2SAPS   H9R  187   5.877   4.795   9.713 -0.0429 -0.6447  0.6774
    2SAPS  C210  188   5.884   5.014   9.726 -0.1207 -0.6637 -0.5981
    2SAPS  H10R  189   5.994   5.032   9.735  0.0943 -1.9943 -0.4044
    2SAPS  H10S  190   5.829   5.093   9.782  0.0026 -2.1432  1.7304
    2SAPS  C211  191   5.824   5.038   9.587 -0.4093 -0.9308 -0.1612
    2SAPS  H11R  192   5.735   5.103   9.582  1.1669  1.3326 -0.7126
    2SAPS  C212  193   5.867   4.986   9.470  0.3760  0.2129  0.7406
    2SAPS  H12R  194   5.817   5.017   9.377 -1.0344 -1.6390  0.8137
    2SAPS  C213  195   5.975   4.884   9.456  0.3104 -0.6078 -0.0184
    2SAPS  H13R  196   6.014   4.853   9.556  2.5385  2.5314  0.2357
    2SAPS  H13S  197   6.059   4.941   9.410  1.3697 -1.3219  0.9801
    2SAPS  C214  198   5.934   4.759   9.384 -0.0102 -0.4779  0.0942
    2SAPS  H14R  199   5.903   4.675   9.448  2.1158 -0.4284  1.2535
    2SAPS  C215  200   5.938   4.741   9.246  0.8437  0.7439  0.2845
    2SAPS  H15R  201   5.904   4.644   9.208  0.3940  1.5998 -1.6213
    2SAPS  C216  202   5.983   4.847   9.145  0.2450 -0.0320 -0.0384
    2SAPS  H16R  203   5.961   4.949   9.183  0.4055 -0.8404  2.4413
    2SAPS  H16S  204   5.918   4.832   9.057 -1.3777  0.7759  0.9602
    2SAPS  C217  205   6.128   4.852   9.113 -0.2982  1.2882  1.0570
    2SAPS  H17R  206   6.193   4.869   9.201  0.6553 -1.0025  0.8729
    2SAPS  H17S  207   6.140   4.928   9.033 -1.9175 -0.3363 -0.8652
    2SAPS  C218  208   6.189   4.727   9.034  0.1321  0.9499 -1.0241
    2SAPS  H18R  209   6.139   4.703   8.937 -0.1092  0.3289 -0.7509
    2SAPS  H18S  210   6.170   4.641   9.101 -1.3146  1.3015 -0.9463
    2SAPS  C219  211   6.335   4.753   9.011 -0.0365 -0.5782  0.1051
    2SAPS  H19R  212   6.367   4.848   9.059 -2.3248  1.0480 -1.3718
    2SAPS  H19S  213   6.356   4.762   8.902  0.9031  1.5217  0.4011
    2SAPS  C220  214   6.426   4.643   9.056  0.0286 -0.1795  0.6924
    2SAPS  H20R  215   6.532   4.670   9.039 -0.0464 -0.2963  0.0441
    2SAPS  H20S  216   6.406   4.557   8.988 -1.5123  1.3830 -0.9363
    2SAPS  H20T  217   6.423   4.607   9.162  1.8613 -0.5342  0.6550
    2SAPS   C33  218   6.026   5.374   9.941 -0.5498  0.5214 -0.2464
    2SAPS   H3X  219   5.930   5.428   9.921  0.4978  2.1464 -1.1333
    2SAPS   H3Y  220   6.020   5.264   9.926 -1.0833  0.4909  0.1772
    2SAPS   C34  221   6.121   5.434   9.835 -0.6571  0.6175  0.4995
    2SAPS   H4X  222   6.215   5.374   9.835 -1.3799 -0.5384  0.1175
    2SAPS   H4Y  223   6.144   5.541   9.857 -2.9372  1.2111  0.2152
    2SAPS   C35  224   6.075   5.439   9.688 -0.2264 -0.0611  0.7271
    2SAPS   H5X  225   6.096   5.541   9.651 -0.0868 -0.2541  0.2734
    2SAPS   H5Y  226   5.967   5.413   9.692 -0.4390  0.5816 -0.6084
    2SAPS   C36  227   6.135   5.342   9.586  0.4191 -0.5917 -1.0035
    2SAPS   H6X  228   6.127   5.235   9.613  1.5003 -0.9987 -2.2159
    2SAPS   H6Y  229   6.244   5.361   9.575  0.3938 -0.3870 -0.9144
    2SAPS   C37  230   6.063   5.349   9.446  0.8864  0.3344 -0.7259
    2SAPS   H7X  231   6.061   5.454   9.412  1.0765  1.0142  1.2803
    2SAPS   H7Y  232   5.958   5.320   9.466  1.7439 -1.0819  2.2753
    2SAPS   C38  233   6.119   5.252   9.335 -0.0367  0.2201  0.1847
    2SAPS   H8X  234   6.091   5.145   9.343  0.9188 -0.1546 -1.2302
    2SAPS   H8Y  235   6.227   5.277   9.331  0.7354 -2.7055  0.7249
    2SAPS   C39  236   6.068   5.278   9.194  0.5111  0.0784  0.0822
    2SAPS   H9X  237   6.120   5.200   9.134  3.2439 -0.2816  2.6388
    2SAPS   H9Y  238   6.105   5.377   9.160 -0.7901  1.6731  2.9348
    2SAPS  C310  239   5.919   5.255   9.169  0.1190 -0.4875  0.1019
    2SAPS  H10X  240   5.869   5.350   9.196 -0.4190 -0.5261 -0.7312
    2SAPS  H10Y  241   5.879   5.182   9.243 -0.6529 -0.5110 -0.3260
    2SAPS  C311  242   5.891   5.238   9.017 -0.0559 -0.2598  0.0300
    2SAPS  H11X  243   5.921   5.138   8.980 -0.2553 -0.4904  0.4934
    2SAPS  H11Y  244   5.953   5.307   8.955  1.4056 -0.1913  1.4911
    2SAPS  C312  245   5.740   5.261   8.981  0.6687  0.4148  1.0349
    2SAPS  H12X  246   5.686   5.336   9.043  0.2476  0.3525  0.7484
    2SAPS  H12Y  247   5.686   5.165   8.988 -0.1247  0.7354 -0.3114
    2SAPS  C313  248   5.731   5.315   8.829 -0.8592  0.0033 -0.3489
    2SAPS  H13X  249   5.806   5.396   8.824  0.4376 -1.1227  0.2515
    2SAPS  H13Y  250   5.629   5.356   8.815 -0.4404  2.2974  2.4138
    2SAPS  C314  251   5.772   5.204   8.736  0.1640  0.6218  0.2969
    2SAPS  H14X  252   5.721   5.109   8.759  1.4283 -0.5588 -1.5295
    2SAPS  H14Y  253   5.881   5.191   8.750  0.7714  3.5777 -0.9615
    2SAPS  C315  254   5.739   5.242   8.594 -0.1425  0.1541  0.4025
    2SAPS  H15X  255   5.808   5.325   8.567  0.6549 -0.1616  1.4092
    2SAPS  H15Y  256   5.633   5.271   8.578  0.0673  0.8535  0.2497
    2SAPS  C316  257   5.773   5.127   8.493 -0.4107  0.3071 -0.7150
    2SAPS  H16X  258   5.704   5.044   8.517  0.3934  0.2545  1.6550
    2SAPS  H16Y  259   5.874   5.093   8.522  0.1897  0.9359 -1.9996
    2SAPS  C317  260   5.757   5.154   8.343 -0.2072  0.1988  0.3918
    2SAPS  H17X  261   5.830   5.236   8.323  0.4566 -0.7170 -1.1101
    2SAPS  H17Y  262   5.668   5.216   8.319 -1.5164 -2.2451 -1.4605
    2SAPS  C318  263   5.765   5.035   8.244 -0.0933  0.3396 -0.0599
    2SAPS  H18X  264   5.864   4.985   8.249 -0.0412  0.2146 -1.7823
    2SAPS  H18Y  265   5.749   5.085   8.146 -2.4066  2.1425  1.1584
    2SAPS  H18Z  266   5.687   4.956   8.253  1.0171 -1.5163 -4.2535
    3SAPS     N  267   5.293   5.874  11.134 -0.2972 -0.0973 -0.0080
    3SAPS   HN1  268   5.358   5.793  11.131 -0.6330 -0.4741  1.8806
    3SAPS   HN2  269   5.275   5.900  11.233 -1.0983  3.5659 -0.9738
    3SAPS   HN3  270   5.205   5.842  11.088  0.5266  0.1144 -1.8506
    3SAPS   C12  271   5.345   5.993  11.060  0.2525  0.2318  0.9374
    3SAPS  H12A  272   5.306   6.086  11.098 -0.3998  0.1732  0.4220
    3SAPS   C13  273   5.498   6.005  11.068 -0.9601  0.4856 -0.3266
    3SAPS  O13A  274   5.566   5.926  11.136 -0.2076  0.9243  0.1304
    3SAPS  O13B  275   5.561   6.086  10.993 -0.1623 -0.4049 -0.2218
    3SAPS   C11  276   5.307   5.976  10.908 -0.0167 -0.3321  0.6365
    3SAPS  H11A  277   5.357   5.888  10.864 -0.3574  0.3063 -1.1046
    3SAPS  H11B  278   5.340   6.069  10.857 -1.8142 -0.4718 -0.8660
    3SAPS     P  279   5.114   5.931  10.742 -0.0971 -0.0190 -0.2773
    3SAPS   O13  280   5.153   5.789  10.729  0.2378  0.5217 -0.0896
    3SAPS   O14  281   4.972   5.969  10.707  0.3746 -0.5768 -0.0134
    3SAPS   O12  282   5.166   5.975  10.886 -0.7239  0.1081 -0.2958
    3SAPS   O11  283   5.210   6.021  10.659  0.1343  0.7891  0.3172
    3SAPS    C1  284   5.261   5.978  10.531  0.3405 -0.3575  0.4744
    3SAPS    HA  285   5.342   6.046  10.497 -1.7745  1.2950 -1.6155
    3SAPS    HB  286   5.300   5.874  10.535 -2.4638 -1.5228  0.0966
    3SAPS    C2  287   5.156   5.993  10.415  0.4414  0.1872  0.0229
    3SAPS    HS  288   5.077   5.916  10.426  0.3371  0.3100  0.1499
    3SAPS   O21  289   5.218   5.973  10.287 -0.1283 -0.5984  0.0179
    3SAPS   C21  290   5.137   5.953  10.181 -0.9533 -0.2928 -0.4852
    3SAPS   O22  291   5.015   5.936  10.190  0.3776  0.4350 -0.6120
    3SAPS   C22  292   5.221   5.944  10.058  1.5141  0.0937  0.3487
    3SAPS   H2R  293   5.292   6.029  10.059  1.0447  0.4860  1.4615
    3SAPS   H2S  294   5.276   5.847  10.063  1.4613 -0.1646 -2.5014
    3SAPS    C3  295   5.083   6.133  10.423 -1.1829 -0.0801 -0.2816
    3SAPS    HX  296   5.024   6.130  10.517  1.3106 -0.4934  1.3862
    3SAPS    HY  297   5.003   6.153  10.349 -0.5727  1.6267 -0.5246
    3SAPS   O31  298   5.183   6.236  10.421  0.3104  0.4164 -1.2777
    3SAPS   C31  299   5.200   6.300  10.306 -1.0973 -0.2931 -0.4108
    3SAPS   O32  300   5.148   6.268  10.202 -0.2113  0.1624  0.3255
    3SAPS   C32  301   5.293   6.418  10.324  0.1365 -0.4248 -0.4103
    3SAPS   H2X  302   5.387   6.401  10.380  0.4346  1.8337 -0.1393
    3SAPS   H2Y  303   5.242   6.500  10.379 -1.5906 -1.2393 -0.7276
    3SAPS   C23  304   5.132   5.943   9.929  0.2514 -0.4077 -0.2030
    3SAPS   H3R  305   5.078   6.039   9.918  0.7116 -0.4280 -4.2757
    3SAPS   H3S  306   5.059   5.860   9.945 -1.8781  1.7258  2.1472
    3SAPS   C24  307   5.224   5.931   9.802  0.5573 -0.3407  0.2648
    3SAPS   H4R  308   5.296   5.851   9.830 -0.9714 -1.3757  1.4353
    3SAPS   H4S  309   5.281   6.026   9.793 -0.9671  0.7006  1.1401
    3SAPS   C25  310   5.149   5.891   9.678  0.0096  0.0988 -0.6998
    3SAPS   H5R  311   5.054   5.838   9.687  0.2416  0.0222  2.0640
    3SAPS   C26  312   5.213   5.910   9.558  0.2883 -0.1859 -0.1659
    3SAPS   H6R  313   5.150   5.899   9.468 -3.5493  2.2369  1.9601
    3SAPS   C27  314   5.356   5.967   9.541 -0.3033  0.1873 -0.6784
    3SAPS   H7R  315   5.416   5.974   9.633 -0.8878  1.1395 -0.3465
    3SAPS   H7S  316   5.347   6.072   9.505  1.4774  0.5353 -0.1936
    3SAPS   C28  317   5.434   5.878   9.441  0.6352  0.3404  0.0407
    3SAPS   H8R  318   5.466   5.784   9.489 -1.3034  0.3165  1.3853
    3SAPS   C29  319   5.436   5.880   9.306 -0.3809  0.3289  0.0842
    3SAPS   H9R  320   5.500   5.806   9.255 -1.5868 -0.7449  0.0958
    3SAPS  C210  321   5.373   5.979   9.213  0.3706  0.4855  0.2402
    3SAPS  H10R  322   5.301   6.045   9.267  0.6863  0.9133  0.1386
    3SAPS  H10S  323   5.304   5.934   9.138  2.3418 -2.6574  0.1519
    3SAPS  C211  324   5.485   6.055   9.145  0.0546  1.0672  0.4866
    3SAPS  H11R  325   5.581   6.044   9.198 -0.5549 -0.3184  1.3862
    3SAPS  C212  326   5.477   6.130   9.036 -0.8241 -0.8011  0.5400
    3SAPS  H12R  327   5.573   6.169   9.001  0.3859 -1.5912  2.7306
    3SAPS  C213  328   5.360   6.165   8.949 -0.2159  0.6025 -0.0308
    3SAPS  H13R  329   5.348   6.269   8.910  1.4160 -0.5045 -4.0253
    3SAPS  H13S  330   5.264   6.159   9.004 -2.0909  1.4103 -2.9836
    3SAPS  C214  331   5.343   6.082   8.821 -0.0657  0.4302  0.2209
    3SAPS  H14R  332   5.416   6.000   8.824  0.0309  0.5091  2.6334
    3SAPS  C215  333   5.259   6.108   8.716  0.1649 -0.3057  0.0365
    3SAPS  H15R  334   5.267   6.056   8.619 -2.1311 -2.5693  0.9477
    3SAPS  C216  335   5.163   6.218   8.709  0.7130  0.1266 -0.2935
    3SAPS  H16R  336   5.128   6.241   8.812  0.3243  0.1257 -0.4230
    3SAPS  H16S  337   5.074   6.175   8.658  1.5563 -3.3513  0.8616
    3SAPS  C217  338   5.210   6.347   8.644  0.3729  0.4681 -0.0278
    3SAPS  H17R  339   5.281   6.404   8.708  2.5198  1.3797 -2.9684
    3SAPS  H17S  340   5.117   6.408   8.648  0.2636  0.2426  1.8662
    3SAPS  C218  341   5.254   6.347   8.492 -0.6679 -0.2074 -0.0081
    3SAPS  H18R  342   5.182   6.289   8.431  0.9693 -0.3756 -1.8712
    3SAPS  H18S  343   5.357   6.307   8.479  0.6413  3.0387 -0.6853
    3SAPS  C219  344   5.274   6.490   8.434 -0.1957  1.1784  0.1409
    3SAPS  H19R  345   5.360   6.492   8.364 -0.4793  0.2852 -0.2501
    3SAPS  H19S  346   5.296   6.574   8.503  0.7827  2.3296 -1.5095
    3SAPS  C220  347   5.159   6.533   8.338 -0.8608  0.0473  0.0610
    3SAPS  H20R  348   5.192   6.631   8.296  1.5530 -0.0265  1.6048
    3SAPS  H20S  349   5.058   6.549   8.382 -1.0483  4.5752 -1.4361
    3SAPS  H20T  350   5.161   6.470   8.247  0.6934  1.5623 -1.0202
    3SAPS   C33  351   5.332   6.467  10.179 -0.3046 -0.2496  0.0231
    3SAPS   H3X  352   5.383   6.565  10.188 -0.1458 -0.2023 -1.2332
    3SAPS   H3Y  353   5.260   6.465  10.095  1.0168 -0.5529 -1.1332
    3SAPS   C34  354   5.441   6.371  10.121  0.0927 -0.1234 -0.8388
    3SAPS   H4X  355   5.398   6.271  10.102  1.8215 -0.3842 -4.1440
    3SAPS   H4Y  356   5.528   6.368  10.191  0.0522 -0.9613 -0.8218
    3SAPS   C35  357   5.492   6.412   9.983 -0.8612  0.0224 -0.0538
    3SAPS   H5X  358   5.581   6.347   9.969 -0.0378  1.2221 -0.6187
    3SAPS   H5Y  359   5.532   6.515   9.972  0.6961 -0.7912 -3.4941
    3SAPS   C36  360   5.390   6.393   9.865  0.5258 -0.1910 -0.0087
    3SAPS   H6X  361   5.305   6.464   9.855 -0.0211 -0.9902 -1.4002
    3SAPS   H6Y  362   5.335   6.296   9.868 -2.2719  1.2590 -0.6930
    3SAPS   C37  363   5.454   6.377   9.726  0.4991 -0.4665 -0.5421
    3SAPS   H7X  364   5.521   6.288   9.726  0.0147 -0.9064  2.2399
    3SAPS   H7Y  365   5.515   6.468   9.708 -0.5227  0.5556  0.9721
    3SAPS   C38  366   5.339   6.365   9.621 -0.0517 -0.1355  0.2290
    3SAPS   H8X  367   5.287   6.461   9.636  1.7690  1.4428 -2.6288
    3SAPS   H8Y  368   5.269   6.280   9.641 -1.8865  1.9143  3.3840
    3SAPS   C39  369   5.393   6.356   9.469  0.8820  0.8229  0.3501
    3SAPS   H9X  370   5.300   6.372   9.411 -1.4395 -0.2807  3.5330
    3SAPS   H9Y  371   5.447   6.259   9.461  2.3982  1.6883 -0.4306
    3SAPS  C310  372   5.502   6.465   9.427  0.4910  0.1066 -0.3916
    3SAPS  H10X  373   5.548   6.433   9.332  3.0000  0.4421  0.6385
    3SAPS  H10Y  374   5.588   6.468   9.497 -1.6286  0.0175  2.4297
    3SAPS  C311  375   5.451   6.608   9.413  0.3307 -0.0857 -0.4011
    3SAPS  H11X  376   5.416   6.652   9.509  1.0011 -0.2537 -0.0766
    3SAPS  H11Y  377   5.367   6.597   9.341  0.9086 -1.5131 -0.8988
    3SAPS  C312  378   5.554   6.705   9.352 -0.0538  0.8331  0.5348
    3SAPS  H12X  379   5.659   6.685   9.382 -1.1030 -1.1966  3.2619
    3SAPS  H12Y  380   5.527   6.806   9.388 -0.6469  1.1567 -0.7629
    3SAPS  C313  381   5.547   6.706   9.199  0.4461 -0.1305 -0.6085
    3SAPS  H13X  382   5.606   6.793   9.164  0.6538 -0.9838 -2.5072
    3SAPS  H13Y  383   5.440   6.725   9.176 -0.1469 -0.4714  1.6295
    3SAPS  C314  384   5.587   6.572   9.117 -0.2192 -0.4356 -0.0564
    3SAPS  H14X  385   5.505   6.499   9.134 -0.2374 -0.2266  0.7897
    3SAPS  H14Y  386   5.678   6.525   9.161  0.6787 -0.2235 -1.6038
    3SAPS  C315  387   5.622   6.596   8.968 -0.1458  0.6319  0.2299
    3SAPS  H15X  388   5.651   6.495   8.929 -2.0156  0.8721 -1.9644
    3SAPS  H15Y  389   5.714   6.657   8.955  0.9994 -1.2352 -0.9901
    3SAPS  C316  390   5.515   6.651   8.873  0.2239  0.0979  0.2467
    3SAPS  H16X  391   5.511   6.754   8.916 -2.7210 -0.3157  1.2003
    3SAPS  H16Y  392   5.417   6.599   8.879  1.2364 -2.4254 -2.5610
    3SAPS  C317  393   5.553   6.654   8.724 -0.6074  0.1066 -0.4635
    3SAPS  H17X  394   5.647   6.713   8.712 -0.2359 -0.4570 -0.3330
    3SAPS  H17Y  395   5.474   6.709   8.667 -0.6930  1.4926  0.9223
    3SAPS  C318  396   5.584   6.520   8.648 -0.5347  1.0853  0.6704
    3SAPS  H18X  397   5.588   6.540   8.539  1.2163 -0.6985  0.3573
    3SAPS  H18Y  398   5.496   6.453   8.661  0.9939 -1.3659 -0.8600
    3SAPS  H18Z  399   5.673   6.462   8.681 -1.5504 -1.1870 -0.4251
    4SAPS     N  400   0.717   1.412  10.879 -0.0389 -0.0256 -0.0521
    4SAPS   HN1  401   0.630   1.399  10.935  0.6374 -3.3523  0.4527
    4SAPS   HN2  402   0.705   1.495  10.818  2.5658  0.7651  0.3942
    4SAPS   HN3  403   0.725   1.330  10.816 -0.1847 -0.0034 -0.1009
    4SAPS   C12  404   0.847   1.431  10.963  0.3139  0.6506  0.4516
    4SAPS  H12A  405   0.831   1.509  11.036  0.1188  0.8967  0.1459
    4SAPS   C13  406   0.892   1.312  11.045  0.3734 -0.0953  0.1900
    4SAPS  O13A  407   0.824   1.209  11.058 -0.3794 -0.2793 -0.0248
    4SAPS  O13B  408   0.997   1.326  11.118 -0.1203  0.6568 -0.1930
    4SAPS   C11  409   0.974   1.459  10.871 -0.2671 -0.4514  0.2416
    4SAPS  H11A  410   1.060   1.483  10.937 -0.5813 -1.0944  0.8904
    4SAPS  H11B  411   0.948   1.557  10.825  2.8047 -0.5671 -2.1075
    4SAPS     P  412   1.065   1.353  10.646  0.1648 -0.0359  0.6132
    4SAPS   O13  413   1.212   1.344  10.668  0.1532 -0.1037 -0.5112
    4SAPS   O14  414   1.004   1.242  10.569  0.5349  0.7410  0.3718
    4SAPS   O12  415   0.996   1.350  10.789 -0.7079  0.1889  0.1230
    4SAPS   O11  416   1.028   1.489  10.591 -0.2815  0.7847 -0.1354
    4SAPS    C1  417   0.933   1.501  10.481 -0.6255  0.0977 -0.3445
    4SAPS    HA  418   0.865   1.413  10.477  0.7740 -1.0382  0.2103
    4SAPS    HB  419   0.866   1.588  10.500  0.8319  1.5655 -1.6393
    4SAPS    C2  420   1.007   1.524  10.347  0.1804 -0.4112 -0.0733
    4SAPS    HS  421   1.028   1.420  10.314  0.1047 -0.8006  1.0724
    4SAPS   O21  422   1.133   1.594  10.369 -0.4523 -0.2601  0.4536
    4SAPS   C21  423   1.224   1.567  10.274 -0.2580 -0.1624 -0.4159
    4SAPS   O22  424   1.205   1.490  10.180  0.3101  0.1480 -0.5439
    4SAPS   C22  425   1.341   1.665  10.288 -0.0055 -0.3054  1.0475
    4SAPS   H2R  426   1.348   1.688  10.397  0.2346 -2.8004  1.6307
    4SAPS   H2S  427   1.425   1.603  10.249 -1.3597 -0.4833 -1.8148
    4SAPS    C3  428   0.914   1.597  10.242  0.0062  0.4111 -0.4193
    4SAPS    HX  429   0.906   1.700  10.282 -0.4074  0.4427 -0.5808
    4SAPS    HY  430   0.815   1.546  10.246 -0.8359  2.0109 -0.3966
    4SAPS   O31  431   0.956   1.609  10.109 -0.1846 -0.5570 -0.0845
    4SAPS   C31  432   0.910   1.512  10.035 -0.3249 -0.3143  0.2548
    4SAPS   O32  433   0.856   1.409  10.065 -0.7183  0.3818  0.4935
    4SAPS   C32  434   0.932   1.575   9.895  0.6082  0.3815  0.0488
    4SAPS   H2X  435   1.036   1.564   9.860  0.5737  0.7059 -0.1601
    4SAPS   H2Y  436   0.897   1.681   9.899  1.0297  0.4825  2.2170
    4SAPS   C23  437   1.309   1.800  10.216 -0.2994 -0.6784  0.2823
    4SAPS   H3R  438   1.355   1.884  10.272 -0.7177  0.0913 -0.5088
    4SAPS   H3S  439   1.200   1.817  10.209 -0.2508 -0.5263 -0.1267
    4SAPS   C24  440   1.376   1.817  10.077 -0.8171 -0.7399  0.6062
    4SAPS   H4R  441   1.486   1.803  10.081 -0.5749  0.2432 -1.4426
    4SAPS   H4S  442   1.364   1.920  10.038  0.0994 -1.2674 -1.1642
    4SAPS   C25  443   1.307   1.730   9.979  0.0554 -0.3179  0.2037
    4SAPS   H5R  444   1.200   1.721  10.003  0.4464 -1.3598  1.7344
    4SAPS   C26  445   1.367   1.656   9.886 -0.7370 -0.1200  0.3929
    4SAPS   H6R  446   1.306   1.589   9.825 -1.5316  1.6054 -0.7978
    4SAPS   C27  447   1.514   1.642   9.875 -0.7496  0.5905 -0.4705
    4SAPS   H7R  448   1.534   1.536   9.845  1.8791 -0.2602  3.4495
    4SAPS   H7S  449   1.543   1.626   9.981 -2.2009 -2.2992 -0.3915
    4SAPS   C28  450   1.599   1.747   9.806 -0.5430  0.4986  0.9803
    4SAPS   H8R  451   1.565   1.849   9.780  0.8546  0.5146 -1.0577
    4SAPS   C29  452   1.722   1.718   9.764 -0.4024 -0.2650 -0.2315
    4SAPS   H9R  453   1.775   1.774   9.685  1.6856 -2.1571 -0.2763
    4SAPS  C210  454   1.782   1.588   9.806  0.0332  0.8871  0.0648
    4SAPS  H10R  455   1.725   1.516   9.743  0.4960  1.2876 -0.8253
    4SAPS  H10S  456   1.781   1.559   9.913 -1.2013 -0.4619 -0.2830
    4SAPS  C211  457   1.929   1.594   9.761 -0.8326 -0.6013 -0.2431
    4SAPS  H11R  458   1.990   1.667   9.816  0.6701 -0.9655 -1.3860
    4SAPS  C212  459   1.989   1.511   9.673 -0.1135 -0.7838 -0.0901
    4SAPS  H12R  460   2.096   1.521   9.649  0.2810 -2.5448  0.7520
    4SAPS  C213  461   1.918   1.408   9.586  0.3412  0.2627 -0.3698
    4SAPS  H13R  462   1.808   1.428   9.588  0.5733  1.7310  2.2612
    4SAPS  H13S  463   1.916   1.304   9.626 -0.2596  0.1710 -0.6219
    4SAPS  C214  464   1.994   1.418   9.451  0.8247 -0.1434  0.2799
    4SAPS  H14R  465   2.101   1.439   9.451  0.5614  1.5785 -2.2791
    4SAPS  C215  466   1.934   1.423   9.336 -0.0284  0.6838 -0.2775
    4SAPS  H15R  467   2.004   1.416   9.251  1.1214 -1.2806  0.7505
    4SAPS  C216  468   1.784   1.419   9.299 -0.5831  0.2523  0.0681
    4SAPS  H16R  469   1.718   1.395   9.385 -1.2382  2.5264  0.2799
    4SAPS  H16S  470   1.762   1.338   9.227  0.9660 -0.0283 -0.1365
    4SAPS  C217  471   1.739   1.552   9.237  0.5795  0.0752  0.4438
    4SAPS  H17R  472   1.636   1.538   9.198  0.9175  0.3389 -0.5712
    4SAPS  H17S  473   1.811   1.572   9.155  1.2835  0.2204  1.0896
    4SAPS  C218  474   1.737   1.669   9.335  0.1912  0.2449 -0.1277
    4SAPS  H18R  475   1.832   1.670   9.392  1.2389 -1.4979 -1.7297
    4SAPS  H18S  476   1.653   1.645   9.404 -0.6084 -1.7824 -1.6932
    4SAPS  C219  477   1.722   1.807   9.273  0.3837  0.3793 -0.1610
    4SAPS  H19R  478   1.635   1.797   9.205  1.4545 -1.5692 -1.3430
    4SAPS  H19S  479   1.804   1.827   9.201 -1.7278  3.0954 -2.0174
    4SAPS  C220  480   1.701   1.923   9.367 -0.2851  0.9522 -0.2904
    4SAPS  H20R  481   1.639   2.008   9.332 -0.4391  1.3028  0.7907
    4SAPS  H20S  482   1.795   1.969   9.406 -0.6738 -0.5867  2.7516
    4SAPS  H20T  483   1.640   1.877   9.448  0.3801 -1.3986 -1.0362
    4SAPS   C33  484   0.848   1.485   9.800  0.6489  0.1458 -1.0422
    4SAPS   H3X  485   0.740   1.509   9.815 -0.1517 -3.2511 -0.4490
    4SAPS   H3Y  486   0.846   1.375   9.817 -0.1680  0.2304 -0.5127
    4SAPS   C34  487   0.874   1.517   9.647 -0.0039  0.0421 -0.2366
    4SAPS   H4X  488   0.983   1.504   9.630  0.1469 -2.1954  1.8183
    4SAPS   H4Y  489   0.840   1.620   9.627  1.6567  0.6031 -0.3051
    4SAPS   C35  490   0.806   1.413   9.553 -0.4377  0.0761  0.2478
    4SAPS   H5X  491   0.850   1.315   9.583  0.2306  0.3434  0.1704
    4SAPS   H5Y  492   0.848   1.439   9.453 -0.9080 -1.4996 -0.3992
    4SAPS   C36  493   0.658   1.410   9.549  0.2140 -0.3441  0.3223
    4SAPS   H6X  494   0.631   1.505   9.499  0.0034 -0.3715  0.3804
    4SAPS   H6Y  495   0.605   1.408   9.647 -1.4034  2.3786 -0.3920
    4SAPS   C37  496   0.599   1.297   9.463 -0.2194  0.1343  0.1068
    4SAPS   H7X  497   0.639   1.197   9.490  1.0194  0.6252  0.1715
    4SAPS   H7Y  498   0.635   1.308   9.359  0.7724  1.9437  0.5927
    4SAPS   C38  499   0.445   1.302   9.490  0.1790  0.5113 -0.3358
    4SAPS   H8X  500   0.420   1.410   9.479 -1.1802  0.3758  1.1261
    4SAPS   H8Y  501   0.428   1.275   9.596  1.1265  0.8529 -0.0840
    4SAPS   C39  502   0.347   1.232   9.391 -0.4659  0.4617  0.5595
    4SAPS   H9X  503   0.251   1.284   9.411 -0.5724 -0.3778  2.4434
    4SAPS   H9Y  504   0.348   1.127   9.426 -1.5969  0.2962  0.1094
    4SAPS  C310  505   0.386   1.237   9.245  0.0702 -0.0923  0.9663
    4SAPS  H10X  506   0.311   1.176   9.190 -0.7774 -0.9319  2.9523
    4SAPS  H10Y  507   0.486   1.190   9.234 -0.2434 -0.5799  0.0638
    4SAPS  C311  508   0.393   1.377   9.185 -0.4813 -0.2115 -0.7800
    4SAPS  H11X  509   0.477   1.427   9.239  1.0313 -1.8669 -1.5190
    4SAPS  H11Y  510   0.304   1.435   9.218  0.1495  0.3704 -0.0483
    4SAPS  C312  511   0.411   1.388   9.032 -0.4038 -0.5636 -0.7450
    4SAPS  H12X  512   0.500   1.336   8.991 -0.8554  1.7096 -5.2292
    4SAPS  H12Y  513   0.426   1.498   9.022 -1.8495 -0.4079 -1.3957
    4SAPS  C313  514   0.286   1.358   8.946 -0.3778  0.0354  0.1437
    4SAPS  H13X  515   0.195   1.422   8.955 -1.9448 -2.2486  1.6351
    4SAPS  H13Y  516   0.234   1.263   8.972 -1.1813  0.1429 -0.9877
    4SAPS  C314  517   0.322   1.357   8.796  0.0284  0.2590 -0.3906
    4SAPS  H14X  518   0.380   1.447   8.765  2.7797 -0.4498  2.1998
    4SAPS  H14Y  519   0.225   1.365   8.742 -0.1190 -0.1787 -0.1977
    4SAPS  C315  520   0.396   1.241   8.731 -0.4840 -0.3269 -0.4175
    4SAPS  H15X  521   0.340   1.146   8.746 -1.2666  0.1655 -0.1856
    4SAPS  H15Y  522   0.496   1.221   8.777 -1.8521  2.0825  4.3410
    4SAPS  C316  523   0.391   1.256   8.580 -0.1746 -0.0438  0.2088
    4SAPS  H16X  524   0.448   1.349   8.559 -1.1497  0.6069  0.3533
    4SAPS  H16Y  525   0.285   1.278   8.555 -0.2988 -1.7791 -0.9253
    4SAPS  C317  526   0.449   1.144   8.502  0.6522  0.3922  0.1321
    4SAPS  H17X  527   0.535   1.091   8.550  2.5906  0.4106 -3.0224
    4SAPS  H17Y  528   0.489   1.193   8.411 -2.5110  2.3787 -0.3502
    4SAPS  C318  529   0.357   1.033   8.461 -0.7069  0.0107 -0.0750
    4SAPS  H18X  530   0.269   1.072   8.405  0.1316  1.2419 -0.5845
    4SAPS  H18Y  531   0.334   0.966   8.546 -0.9214 -2.1244 -1.7533
    4SAPS  H18Z  532   0.404   0.967   8.386 -3.3042 -0.9485 -0.9760
    5SAPS     N  533   3.556   1.359  11.090  0.2978 -0.5554 -0.3776
    5SAPS   HN1  534   3.514   1.448  11.056  0.4777  0.1225  1.0703
    5SAPS   HN2  535   3.558   1.279  11.023  2.4202 -1.8003  1.0415
    5SAPS   HN3  536   3.506   1.322  11.173 -2.4362  0.9225 -1.2515
    5SAPS   C12  537   3.694   1.386  11.137  0.4866  0.0788  0.3458
    5SAPS  H12A  538   3.710   1.483  11.182  1.5243 -0.8348  2.0806
    5SAPS   C13  539   3.749   1.287  11.235  0.1420 -0.1823  0.3217
    5SAPS  O13A  540   3.674   1.194  11.268 -1.0052 -0.1244 -0.7012
    5SAPS  O13B  541   3.864   1.285  11.273 -0.5109  0.2818  0.0183
    5SAPS   C11  542   3.791   1.378  11.010 -0.6005 -0.5080 -0.3198
    5SAPS  H11A  543   3.892   1.408  11.046 -0.1241 -0.2098 -1.8367
    5SAPS  H11B  544   3.763   1.460  10.940  1.0171  1.0016  0.7063
    5SAPS     P  545   3.895   1.212  10.845 -0.1440 -0.3638  0.0880
    5SAPS   O13  546   4.025   1.217  10.908 -0.0631  0.1390  0.8171
    5SAPS   O14  547   3.857   1.081  10.783 -0.5765 -0.8471  0.4388
    5SAPS   O12  548   3.779   1.255  10.943 -0.4505  0.0453  0.0149
    5SAPS   O11  549   3.874   1.332  10.741  0.2556  0.5559 -0.1017
    5SAPS    C1  550   3.753   1.329  10.668  0.1759 -0.3330  0.4931
    5SAPS    HA  551   3.669   1.276  10.717  0.0775 -1.1265 -0.4964
    5SAPS    HB  552   3.723   1.436  10.660 -0.2233 -0.3782  1.2713
    5SAPS    C2  553   3.774   1.276  10.521 -0.3022  0.0064  0.0873
    5SAPS    HS  554   3.806   1.171  10.542  2.3991  0.8743  0.7498
    5SAPS   O21  555   3.880   1.355  10.458  0.0500  0.4645  0.5242
    5SAPS   C21  556   3.998   1.302  10.440 -0.3776  0.7905 -0.8989
    5SAPS   O22  557   4.029   1.187  10.472 -0.0697 -0.0830  0.2735
    5SAPS   C22  558   4.088   1.398  10.361 -0.8377  0.3297  0.4547
    5SAPS   H2R  559   4.035   1.406  10.264 -2.9334  2.2148  1.6591
    5SAPS   H2S  560   4.080   1.497  10.412 -0.4891  0.3371  0.4956
    5SAPS    C3  561   3.638   1.271  10.441 -0.4859 -0.4063 -1.2505
    5SAPS    HX  562   3.598   1.372  10.467 -1.1762 -1.5121  2.6440
    5SAPS    HY  563   3.568   1.207  10.498  1.4920  0.1422  2.0308
    5SAPS   O31  564   3.633   1.250  10.301 -0.4587 -0.6667  0.6240
    5SAPS   C31  565   3.678   1.126  10.269 -0.0839  0.0063  0.2420
    5SAPS   O32  566   3.728   1.045  10.343 -0.0157 -0.0396 -0.6318
    5SAPS   C32  567   3.643   1.078  10.126  0.4941  0.7944 -0.4617
    5SAPS   H2X  568   3.676   0.972  10.119 -1.0284  0.3283 -0.9520
    5SAPS   H2Y  569   3.710   1.135  10.058 -0.9098  0.2855 -2.3438
    5SAPS   C23  570   4.233   1.348  10.335  0.5564  0.0687  0.0579
    5SAPS   H3R  571   4.240   1.241  10.308 -1.2258 -0.0650  0.0206
    5SAPS   H3S  572   4.299   1.357  10.424  0.2457 -0.5292  0.3554
    5SAPS   C24  573   4.300   1.424  10.219  1.2428 -0.5414 -0.0866
    5SAPS   H4R  574   4.407   1.391  10.221  0.7176 -2.3961  2.1307
    5SAPS   H4S  575   4.297   1.533  10.238  1.8130 -0.2154 -1.7400
    5SAPS   C25  576   4.241   1.391  10.080 -0.3867 -0.0703  0.8749
    5SAPS   H5R  577   4.142   1.434  10.061 -0.1592 -0.0096 -0.2422
    5SAPS   C26  578   4.297   1.302   9.996  0.0213  1.0526 -1.0842
    5SAPS   H6R  579   4.236   1.285   9.906 -0.5037  0.7220 -0.6720
    5SAPS   C27  580   4.424   1.223  10.010 -0.2106 -0.4771 -0.6838
    5SAPS   H7R  581   4.513   1.287   9.991  0.9882 -1.7493  0.4785
    5SAPS   H7S  582   4.428   1.163   9.917 -2.2071  0.6344 -1.5498
    5SAPS   C28  583   4.446   1.125  10.120 -0.4423  0.5233 -0.1473
    5SAPS   H8R  584   4.525   1.133  10.197 -1.6146  1.7285  0.9739
    5SAPS   C29  585   4.377   1.012  10.139  0.2568 -0.3049 -0.4442
    5SAPS   H9R  586   4.405   0.947  10.223 -0.9528 -0.6362 -0.2743
    5SAPS  C210  587   4.258   0.962  10.058  0.3041  0.2849 -0.6072
    5SAPS  H10R  588   4.303   0.880   9.998  2.0507 -0.4876  1.6113
    5SAPS  H10S  589   4.218   1.038   9.988 -0.2126  2.2415  1.6934
    5SAPS  C211  590   4.127   0.921  10.125 -0.1699  0.7773  0.3388
    5SAPS  H11R  591   4.109   0.983  10.215  0.9745  0.6654  0.6591
    5SAPS  C212  592   4.035   0.828  10.085  0.4100 -0.3788 -0.4799
    5SAPS  H12R  593   3.950   0.814  10.154  1.1715  1.6867  0.9660
    5SAPS  C213  594   4.045   0.746   9.960  0.4493 -0.4486  0.3707
    5SAPS  H13R  595   3.996   0.647   9.971  1.0616 -0.6673  1.2034
    5SAPS  H13S  596   4.150   0.712   9.947  0.4565 -0.4767  0.5078
    5SAPS  C214  597   3.980   0.825   9.842 -0.3183  0.7874 -0.7561
    5SAPS  H14R  598   3.872   0.827   9.862 -0.4827 -3.1243 -0.5560
    5SAPS  C215  599   4.038   0.871   9.729 -0.0114 -0.0821  0.1953
    5SAPS  H15R  600   3.968   0.909   9.653 -2.2164 -1.2522  1.5237
    5SAPS  C216  601   4.188   0.861   9.706  0.9739  0.0665  0.4762
    5SAPS  H16R  602   4.239   0.792   9.776  1.3139 -1.6878 -1.4126
    5SAPS  H16S  603   4.232   0.961   9.727 -0.2225  0.3595  1.7627
    5SAPS  C217  604   4.215   0.813   9.558 -0.1670 -0.3049 -0.1421
    5SAPS  H17R  605   4.315   0.851   9.526  0.3245  0.7454  2.4206
    5SAPS  H17S  606   4.141   0.866   9.495 -0.3151  2.5694  2.2389
    5SAPS  C218  607   4.212   0.662   9.547  0.4802  0.1138 -0.0824
    5SAPS  H18R  608   4.298   0.622   9.605 -0.0369 -0.0806  0.5628
    5SAPS  H18S  609   4.117   0.612   9.575  0.3356 -0.9820 -2.3101
    5SAPS  C219  610   4.233   0.623   9.399  0.0239  0.3844  0.1667
    5SAPS  H19R  611   4.269   0.518   9.389  0.5982  0.6119 -0.2172
    5SAPS  H19S  612   4.313   0.684   9.350  0.4184 -0.4019 -0.1915
    5SAPS  C220  613   4.100   0.639   9.317  0.1938  0.3159  0.6457
    5SAPS  H20R  614   4.079   0.747   9.301 -0.2407 -0.0617 -1.6141
    5SAPS  H20S  615   4.021   0.580   9.370  1.1997 -0.9405  0.7887
    5SAPS  H20T  616   4.115   0.598   9.215  2.0409  2.9266 -0.2232
    5SAPS   C33  617   3.498   1.092  10.084  0.4950  0.0319 -0.5053
    5SAPS   H3X  618   3.472   1.199  10.077 -1.5146 -0.1788  2.0038
    5SAPS   H3Y  619   3.434   1.045  10.162  1.5965 -0.1055  0.3249
    5SAPS   C34  620   3.429   1.000   9.969 -0.2101 -1.0761  0.3390
    5SAPS   H4X  621   3.321   1.024   9.978 -0.1916 -0.4646 -0.7911
    5SAPS   H4Y  622   3.438   0.891   9.986 -0.5023 -1.3017 -0.8586
    5SAPS   C35  623   3.478   1.028   9.818  0.1788 -0.0269  0.3752
    5SAPS   H5X  624   3.472   1.135   9.789  0.0075 -0.7507 -2.5861
    5SAPS   H5Y  625   3.401   0.986   9.750  0.6175  2.0537 -1.5177
    5SAPS   C36  626   3.619   0.969   9.788  0.1876 -0.7877 -0.2575
    5SAPS   H6X  627   3.623   0.865   9.827  2.2480 -0.7336 -0.2351
    5SAPS   H6Y  628   3.691   1.026   9.851 -1.9237  1.7103  0.0468
    5SAPS   C37  629   3.660   0.976   9.638 -1.0605 -0.2627  0.6925
    5SAPS   H7X  630   3.771   0.990   9.642 -1.1448  0.8962 -0.5604
    5SAPS   H7Y  631   3.623   1.058   9.574  0.5998 -1.5804 -2.1739
    5SAPS   C38  632   3.623   0.851   9.560  0.5252  0.2100 -0.0643
    5SAPS   H8X  633   3.518   0.878   9.537  1.0878  1.6618 -1.1203
    5SAPS   H8Y  634   3.627   0.762   9.626  2.6478 -0.8339 -1.4586
    5SAPS   C39  635   3.695   0.834   9.429  0.4590  0.7086  0.9608
    5SAPS   H9X  636   3.803   0.814   9.445  0.0109 -2.7856  0.4399
    5SAPS   H9Y  637   3.684   0.933   9.380  0.1964  0.3370  0.2542
    5SAPS  C310  638   3.632   0.724   9.340  0.0954 -0.4086  0.1045
    5SAPS  H10X  639   3.543   0.756   9.281  0.2449 -3.1575 -1.8134
    5SAPS  H10Y  640   3.601   0.634   9.398  1.4337 -0.8862  0.1048
    5SAPS  C311  641   3.735   0.681   9.233  0.2444  0.3061  0.6772
    5SAPS  H11X  642   3.822   0.627   9.276  1.9477  2.4760  0.1739
    5SAPS  H11Y  643   3.775   0.772   9.183 -1.5563  0.5423 -0.4266
    5SAPS  C312  644   3.669   0.584   9.135  0.6755  0.1966 -0.0132
    5SAPS  H12X  645   3.601   0.639   9.067 -1.2518 -0.0760  1.6089
    5SAPS  H12Y  646   3.620   0.502   9.191  1.5852  0.2075  0.8361
    5SAPS  C313  647   3.786   0.521   9.061 -0.2191 -0.5728 -0.2749
    5SAPS  H13X  648   3.831   0.446   9.129  0.5204  0.6586  0.6293
    5SAPS  H13Y  649   3.869   0.591   9.035  0.7450 -0.7532  2.0826
    5SAPS  C314  650   3.751   0.439   8.932  1.1723 -0.1125 -0.6808
    5SAPS  H14X  651   3.690   0.511   8.873 -0.6339 -1.5176 -0.6257
    5SAPS  H14Y  652   3.689   0.350   8.959  0.4423  0.8920  1.1172
    5SAPS  C315  653   3.864   0.397   8.833  0.3572 -0.5815 -0.6142
    5SAPS  H15X  654   3.810   0.347   8.750 -1.7075  0.8161 -0.1912
    5SAPS  H15Y  655   3.940   0.336   8.887 -1.3482  0.3671  3.1605
    5SAPS  C316  656   3.934   0.509   8.764  0.8086  0.1562  0.1118
    5SAPS  H16X  657   3.994   0.569   8.835  2.2247 -0.4084 -0.5756
    5SAPS  H16Y  658   3.857   0.576   8.720  2.2403  0.3778 -2.2385
    5SAPS  C317  659   4.029   0.466   8.649 -1.0864 -0.2619 -0.6883
    5SAPS  H17X  660   4.089   0.383   8.689  1.6984  0.1859 -3.5454
    5SAPS  H17Y  661   4.105   0.546   8.637 -1.6515  0.2654 -0.8185
    5SAPS  C318  662   3.972   0.437   8.513 -0.3823  0.1890 -0.5305
    5SAPS  H18X  663   4.058   0.412   8.447  0.9339 -0.4205  1.3516
    5SAPS  H18Y  664   3.928   0.533   8.477 -0.4079 -0.2492 -1.7187
    5SAPS  H18Z  665   3.897   0.355   8.511  0.0624 -0.2730  1.0014
    6SAPS     N  666   2.288   5.220  10.562 -0.3085 -0.3608  0.0559
    6SAPS   HN1  667   2.199   5.247  10.609  0.1351 -0.1160  0.7704
    6SAPS   HN2  668   2.290   5.285  10.481  0.3691  0.6948  0.9026
    6SAPS   HN3  669   2.291   5.117  10.547  0.3335 -0.7456  2.3999
    6SAPS   C12  670   2.393   5.264  10.671 -0.5834 -0.1208  0.0653
    6SAPS  H12A  671   2.407   5.370  10.662  0.0176 -0.2423 -0.4285
    6SAPS   C13  672   2.355   5.232  10.821  0.2328  0.4244 -0.5223
    6SAPS  O13A  673   2.255   5.158  10.840  0.3764  0.2432 -0.0867
    6SAPS  O13B  674   2.438   5.263  10.907 -0.6398  0.0784  0.5352
    6SAPS   C11  675   2.533   5.203  10.628  0.2647  0.4998 -0.8364
    6SAPS  H11A  676   2.515   5.098  10.661  0.5454  0.8444  0.4672
    6SAPS  H11B  677   2.604   5.255  10.695 -1.9630  1.4661  0.8975
    6SAPS     P  678   2.704   5.190  10.434  0.2082  0.0788 -0.0224
    6SAPS   O13  679   2.797   5.300  10.471 -0.6197 -0.7063 -0.2182
    6SAPS   O14  680   2.746   5.053  10.474  0.0156 -0.5446  0.3044
    6SAPS   O12  681   2.563   5.218  10.492 -0.1613  0.2283  0.5637
    6SAPS   O11  682   2.673   5.191  10.275  0.0755 -0.3828 -0.5898
    6SAPS    C1  683   2.549   5.148  10.225  0.3651  0.0148 -0.6040
    6SAPS    HA  684   2.468   5.215  10.263  0.4008 -0.3753  0.1610
    6SAPS    HB  685   2.540   5.174  10.117 -2.4131 -2.0837 -0.9898
    6SAPS    C2  686   2.510   4.998  10.254  0.3565  0.8011  0.1421
    6SAPS    HS  687   2.479   4.984  10.360  2.1466 -1.3590  0.4441
    6SAPS   O21  688   2.628   4.922  10.216 -0.5177 -0.4583 -0.3137
    6SAPS   C21  689   2.629   4.798  10.222 -0.9627  0.1219  0.2866
    6SAPS   O22  690   2.548   4.720  10.265 -0.0057  0.2324 -0.0141
    6SAPS   C22  691   2.782   4.765  10.205  0.1299  0.0043 -0.2648
    6SAPS   H2R  692   2.846   4.855  10.193  0.7198 -0.4402 -0.5034
    6SAPS   H2S  693   2.814   4.723  10.303  0.2279 -0.0034 -0.2999
    6SAPS    C3  694   2.399   4.964  10.152 -0.1262  0.9370 -0.7396
    6SAPS    HX  695   2.323   5.042  10.172 -0.3578  0.7128 -0.7461
    6SAPS    HY  696   2.355   4.863  10.167  1.5431  0.3712  0.8095
    6SAPS   O31  697   2.446   4.986  10.017 -0.2734 -0.0190  0.3318
    6SAPS   C31  698   2.396   4.901   9.925  0.2732 -0.3371 -0.3492
    6SAPS   O32  699   2.309   4.823   9.936 -0.6196  0.6306 -0.5950
    6SAPS   C32  700   2.463   4.932   9.790 -0.1166 -0.1544 -0.2542
    6SAPS   H2X  701   2.569   4.911   9.814 -0.5645 -1.9073  0.4121
    6SAPS   H2Y  702   2.452   5.039   9.762 -0.8707 -0.2566 -0.3690
    6SAPS   C23  703   2.811   4.657  10.105 -0.0821  0.0767 -0.5876
    6SAPS   H3R  704   2.765   4.557  10.120  2.7938 -1.1554  0.7982
    6SAPS   H3S  705   2.920   4.632  10.112  0.4760  1.9437 -1.9911
    6SAPS   C24  706   2.783   4.697   9.964 -0.1988 -1.0120  0.2207
    6SAPS   H4R  707   2.678   4.730   9.953  0.5998  1.8642  0.5304
    6SAPS   H4S  708   2.801   4.602   9.909  1.8506  0.3387 -1.5891
    6SAPS   C25  709   2.877   4.804   9.920 -0.7191 -0.6175 -0.8308
    6SAPS   H5R  710   2.923   4.860  10.002 -0.5037 -1.4254 -0.3919
    6SAPS   C26  711   2.919   4.841   9.794 -0.0479 -0.8970 -0.3577
    6SAPS   H6R  712   2.991   4.923   9.788 -0.2415 -0.7181 -0.2458
    6SAPS   C27  713   2.873   4.785   9.668 -0.4117  0.4536  0.3104
    6SAPS   H7R  714   2.828   4.861   9.600  2.7415 -0.2153 -2.8470
    6SAPS   H7S  715   2.785   4.719   9.683 -0.1430 -0.7698 -2.7334
    6SAPS   C28  716   2.976   4.700   9.589  0.6261 -0.3219  0.0347
    6SAPS   H8R  717   3.071   4.668   9.634  1.3389  0.7761 -0.6513
    6SAPS   C29  718   2.942   4.647   9.467  0.0467  0.1813 -1.1566
    6SAPS   H9R  719   3.025   4.598   9.415 -1.4568 -2.3673 -1.3008
    6SAPS  C210  720   2.818   4.660   9.380 -0.4929  0.4051  0.3074
    6SAPS  H10R  721   2.755   4.746   9.411 -0.4474  1.1373 -1.5016
    6SAPS  H10S  722   2.758   4.568   9.390 -0.9373  0.6640  0.0480
    6SAPS  C211  723   2.860   4.690   9.239  0.9189 -1.1781  0.5872
    6SAPS  H11R  724   2.921   4.782   9.236 -0.6503 -0.1080 -0.0231
    6SAPS  C212  725   2.828   4.618   9.130 -0.3836  0.1833 -0.1198
    6SAPS  H12R  726   2.848   4.660   9.030 -1.6802 -1.2306 -1.0343
    6SAPS  C213  727   2.753   4.488   9.113 -0.3500  0.2326 -0.0320
    6SAPS  H13R  728   2.701   4.464   9.208  0.6621  0.3092  0.5543
    6SAPS  H13S  729   2.818   4.398   9.104 -1.9635 -1.1584  1.6434
    6SAPS  C214  730   2.664   4.497   8.994 -0.7287  0.3565 -0.2501
    6SAPS  H14R  731   2.572   4.557   9.006 -0.8328  0.0539  0.5282
    6SAPS  C215  732   2.690   4.435   8.875  0.1044  0.2180 -0.1179
    6SAPS  H15R  733   2.608   4.456   8.805 -1.3928  0.9750  1.7813
    6SAPS  C216  734   2.809   4.350   8.836  0.0736  0.0305 -0.3920
    6SAPS  H16R  735   2.778   4.262   8.774 -1.3641 -0.1000  0.4599
    6SAPS  H16S  736   2.851   4.304   8.928  0.1227 -1.9829 -1.3429
    6SAPS  C217  737   2.917   4.429   8.760  0.4742  0.1853 -0.0364
    6SAPS  H17R  738   2.946   4.501   8.839  2.4432 -1.1637  0.5312
    6SAPS  H17S  739   2.877   4.492   8.677  1.2725  1.8012  0.7686
    6SAPS  C218  740   3.037   4.340   8.724  0.1401 -0.0131  0.2586
    6SAPS  H18R  741   3.008   4.253   8.662  0.2641 -0.2405  0.5177
    6SAPS  H18S  742   3.071   4.295   8.819 -1.5996 -0.2649  0.7967
    6SAPS  C219  743   3.154   4.423   8.665  0.1197 -0.4784 -0.2064
    6SAPS  H19R  744   3.169   4.520   8.718  2.1608 -1.6680  1.5623
    6SAPS  H19S  745   3.123   4.449   8.562  3.9767  0.4450 -1.2753
    6SAPS  C220  746   3.287   4.349   8.647  0.0612 -0.0581 -0.6859
    6SAPS  H20R  747   3.372   4.415   8.621  0.0566  1.1632  2.1129
    6SAPS  H20S  748   3.263   4.266   8.576  1.1832 -1.0832  0.0960
    6SAPS  H20T  749   3.316   4.299   8.742 -1.8817 -1.3173 -0.6947
    6SAPS   C33  750   2.424   4.853   9.666 -0.5313  0.8959 -0.7845
    6SAPS   H3X  751   2.320   4.876   9.634 -1.7399 -2.4947  0.2413
    6SAPS   H3Y  752   2.422   4.742   9.678 -1.7230  0.9709 -0.1854
    6SAPS   C34  753   2.510   4.877   9.544  0.2623  0.4497 -0.2929
    6SAPS   H4X  754   2.612   4.843   9.574  0.3587  0.1082 -0.9777
    6SAPS   H4Y  755   2.505   4.985   9.521 -1.6650  0.8146  1.5869
    6SAPS   C35  756   2.461   4.812   9.417 -0.4067  0.3375 -0.0148
    6SAPS   H5X  757   2.521   4.851   9.332  1.0141  0.3512  0.9493
    6SAPS   H5Y  758   2.353   4.834   9.408 -0.5681 -0.8460 -1.1827
    6SAPS   C36  759   2.478   4.656   9.407 -0.3265 -0.4826 -0.2190
    6SAPS   H6X  760   2.543   4.625   9.492  0.5629 -0.8486 -1.0088
    6SAPS   H6Y  761   2.541   4.627   9.320  0.2508  1.7907 -0.6215
    6SAPS   C37  762   2.352   4.579   9.417  0.2301  0.2066  0.8182
    6SAPS   H7X  763   2.286   4.623   9.494 -2.1376  0.0543 -1.0071
    6SAPS   H7Y  764   2.375   4.475   9.449  1.5857  0.4758  0.8004
    6SAPS   C38  765   2.264   4.588   9.298  0.0435 -0.3493 -0.0497
    6SAPS   H8X  766   2.210   4.684   9.285 -1.5050 -1.2500 -0.5116
    6SAPS   H8Y  767   2.187   4.508   9.304 -0.3646 -0.2341 -2.7426
    6SAPS   C39  768   2.330   4.546   9.169  0.2408  0.2172 -0.5899
    6SAPS   H9X  769   2.407   4.466   9.175  0.9761  0.9240 -0.4558
    6SAPS   H9Y  770   2.390   4.634   9.140 -1.1095  1.2431 -0.3589
    6SAPS  C310  771   2.222   4.519   9.060  0.1346 -0.0609 -0.5647
    6SAPS  H10X  772   2.172   4.618   9.050  1.7411  0.7113 -1.3209
    6SAPS  H10Y  773   2.144   4.449   9.097  0.6432 -0.3713 -0.0822
    6SAPS  C311  774   2.282   4.474   8.932 -0.3847 -0.5070  0.0413
    6SAPS  H11X  775   2.320   4.373   8.959 -0.2003 -0.2928  0.6154
    6SAPS  H11Y  776   2.374   4.529   8.906 -1.7530  0.4994 -3.1065
    6SAPS  C312  777   2.202   4.476   8.803  0.3630  0.4418 -0.4518
    6SAPS  H12X  778   2.161   4.577   8.785 -1.4903 -0.2946 -0.5334
    6SAPS  H12Y  779   2.117   4.404   8.807  2.9670 -2.9188 -0.4579
    6SAPS  C313  780   2.280   4.436   8.680  0.2602  0.2671 -0.2897
    6SAPS  H13X  781   2.369   4.502   8.681 -0.2060  0.9015  0.7350
    6SAPS  H13Y  782   2.217   4.455   8.591  1.1966  1.1381 -0.7792
    6SAPS  C314  783   2.338   4.288   8.681  0.0263 -0.3822  0.5231
    6SAPS  H14X  784   2.249   4.227   8.704 -1.4468  0.5370 -2.3795
    6SAPS  H14Y  785   2.426   4.282   8.750 -0.6630  0.9026  1.5561
    6SAPS  C315  786   2.396   4.253   8.546  0.5182  0.2180 -0.0257
    6SAPS  H15X  787   2.326   4.260   8.460 -1.3559 -0.8434  1.3455
    6SAPS  H15Y  788   2.426   4.147   8.554  0.4134  0.1208 -0.8148
    6SAPS  C316  789   2.527   4.328   8.518 -0.3226 -0.0410  0.6577
    6SAPS  H16X  790   2.586   4.318   8.611 -0.3052  1.0796  0.7801
    6SAPS  H16Y  791   2.502   4.434   8.494  0.6920  0.1036  0.1744
    6SAPS  C317  792   2.616   4.275   8.404  0.4461  0.4036 -0.5295
    6SAPS  H17X  793   2.561   4.297   8.310 -2.5567  1.9305  1.4421
    6SAPS  H17Y  794   2.639   4.168   8.419 -1.7571  0.0127  0.3258
    6SAPS  C318  795   2.745   4.360   8.385  0.7860 -0.3390  0.0104
    6SAPS  H18X  796   2.801   4.328   8.294  0.7342  0.1802 -0.2117
    6SAPS  H18Y  797   2.813   4.344   8.471  0.4210  0.6548  0.5021
    6SAPS  H18Z  798   2.720   4.468   8.374  0.4883 -0.5789 -2.3211
    7SAPS     N  799   0.259   1.587  11.091  0.7611 -0.5376  0.4465
    7SAPS   HN1  800   0.250   1.654  11.012  0.7997 -1.3514 -0.2577
    7SAPS   HN2  801   0.230   1.636  11.178 -0.8830 -1.1147  0.2488
    7SAPS   HN3  802   0.359   1.570  11.115  0.7241  1.3663  2.1892
    7SAPS   C12  803   0.154   1.477  11.061 -0.0338 -0.0453 -0.5101
    7SAPS  H12A  804   0.173   1.442  10.960  0.6805 -1.4631  0.0953
    7SAPS   C13  805   0.171   1.360  11.154 -0.3542  0.1094 -0.4410
    7SAPS  O13A  806   0.250   1.366  11.249 -0.0415  0.2946 -0.0021
    7SAPS  O13B  807   0.095   1.259  11.146  0.4540 -0.5852 -0.3028
    7SAPS   C11  808   0.015   1.540  11.072  0.7802 -0.2256 -0.4632
    7SAPS  H11A  809   0.003   1.581  11.174  1.3354  1.1208 -0.9185
    7SAPS  H11B  810  -0.071   1.472  11.052  1.1128 -0.1077 -2.5832
    7SAPS     P  811  -0.056   1.640  10.829 -0.6430 -0.0720 -0.0473
    7SAPS   O13  812  -0.198   1.674  10.839 -0.1057 -0.4280  0.0095
    7SAPS   O14  813   0.024   1.726  10.741 -0.1425 -0.3578  0.4007
    7SAPS   O12  814   0.005   1.643  10.978  0.1503 -0.0399 -0.0346
    7SAPS   O11  815  -0.045   1.480  10.796 -0.3145 -0.5833  0.5085
    7SAPS    C1  816   0.048   1.443  10.697 -1.4474  0.4378  0.4953
    7SAPS    HA  817   0.144   1.495  10.712 -1.1128  0.3459 -1.1644
    7SAPS    HB  818   0.056   1.332  10.697 -2.8290  0.3115 -0.0337
    7SAPS    C2  819  -0.003   1.468  10.551  0.1754 -0.4151  0.1780
    7SAPS    HS  820   0.004   1.577  10.533  1.1810 -0.6174 -0.8698
    7SAPS   O21  821  -0.134   1.421  10.550  0.4258  0.4749 -0.0778
    7SAPS   C21  822  -0.209   1.493  10.476 -0.1013  0.2300  0.2040
    7SAPS   O22  823  -0.182   1.598  10.425 -0.3497 -0.0366 -0.8642
    7SAPS   C22  824  -0.337   1.420  10.440 -0.2220 -0.1956 -0.2129
    7SAPS   H2R  825  -0.300   1.317  10.420  1.7382  0.5593 -0.6939
    7SAPS   H2S  826  -0.409   1.412  10.525 -0.7524  1.7932 -0.4358
    7SAPS    C3  827   0.092   1.389  10.457 -0.2246 -0.3309 -0.0122
    7SAPS    HX  828   0.073   1.284  10.485  0.0178 -0.2814  0.3489
    7SAPS    HY  829   0.199   1.408  10.478 -0.0641  0.4047 -1.3632
    7SAPS   O31  830   0.050   1.402  10.320 -0.3410 -0.3127 -0.1386
    7SAPS   C31  831   0.129   1.461  10.233  0.6817 -0.4233  0.3582
    7SAPS   O32  832   0.244   1.496  10.252  0.2735  0.5439 -0.4818
    7SAPS   C32  833   0.055   1.476  10.100 -0.3428 -0.3403 -0.9594
    7SAPS   H2X  834  -0.041   1.526  10.126 -1.5870 -2.3933 -1.3228
    7SAPS   H2Y  835   0.036   1.370  10.070 -0.9831 -0.7799  0.8713
    7SAPS   C23  836  -0.410   1.478  10.308  0.0175  0.1655 -0.3456
    7SAPS   H3R  837  -0.384   1.586  10.297  0.9859  0.0587  0.6625
    7SAPS   H3S  838  -0.519   1.469  10.327 -0.3743 -0.0132 -2.4549
    7SAPS   C24  839  -0.375   1.404  10.175  0.0953  0.1677 -0.0016
    7SAPS   H4R  840  -0.407   1.298  10.186 -1.2311  0.7331  2.1091
    7SAPS   H4S  841  -0.264   1.401  10.165  0.0508 -0.8047 -0.2762
    7SAPS   C25  842  -0.437   1.474  10.057 -0.5869 -0.1439 -0.4203
    7SAPS   H5R  843  -0.526   1.534  10.082  0.7026  1.9578 -0.6132
    7SAPS   C26  844  -0.387   1.470   9.935 -0.0541  0.4402  0.0900
    7SAPS   H6R  845  -0.436   1.530   9.858  1.9939  1.4044 -0.5184
    7SAPS   C27  846  -0.262   1.399   9.892 -0.6164  1.0135 -0.7787
    7SAPS   H7R  847  -0.217   1.327   9.964 -1.3421 -0.1403 -1.4408
    7SAPS   H7S  848  -0.182   1.473   9.874 -0.9515  1.4877 -0.3333
    7SAPS   C28  849  -0.279   1.316   9.766  0.5053 -0.3250 -0.0902
    7SAPS   H8R  850  -0.272   1.207   9.776  2.9917 -0.1515  0.6319
    7SAPS   C29  851  -0.289   1.365   9.637 -0.7667  0.0656 -0.5020
    7SAPS   H9R  852  -0.302   1.290   9.558 -1.2204  2.0996 -2.4532
    7SAPS  C210  853  -0.291   1.512   9.590  0.1394 -0.1611  0.0841
    7SAPS  H10R  854  -0.255   1.572   9.677 -1.5951 -2.0181  2.2148
    7SAPS  H10S  855  -0.394   1.550   9.574  1.7274  4.2540 -0.8869
    7SAPS  C211  856  -0.200   1.519   9.467  0.2441  0.7353  0.7490
    7SAPS  H11R  857  -0.094   1.545   9.482  0.7628 -0.1991 -0.9834
    7SAPS  C212  858  -0.257   1.501   9.346 -0.0306 -0.3466  0.0030
    7SAPS  H12R  859  -0.188   1.503   9.260  1.5772 -0.8276  1.2379
    7SAPS  C213  860  -0.398   1.472   9.305  0.5664  0.2558  0.5026
    7SAPS  H13R  861  -0.459   1.406   9.369  0.8296 -1.1210 -0.6228
    7SAPS  H13S  862  -0.388   1.412   9.212  0.9590  0.5961  0.3213
    7SAPS  C214  863  -0.485   1.592   9.275  0.2390 -0.7811 -0.4848
    7SAPS  H14R  864  -0.458   1.677   9.339  1.5798 -0.9210 -0.8300
    7SAPS  C215  865  -0.590   1.611   9.195 -0.1295  0.5792  0.3196
    7SAPS  H15R  866  -0.651   1.703   9.199 -1.0513  0.0587 -0.8300
    7SAPS  C216  867  -0.647   1.504   9.100 -0.4771 -0.0320  0.0977
    7SAPS  H16R  868  -0.758   1.510   9.104 -0.4974 -0.8258  1.0462
    7SAPS  H16S  869  -0.620   1.406   9.144 -0.7279 -0.6327 -1.0425
    7SAPS  C217  870  -0.611   1.510   8.949  0.6628  0.6283 -0.4239
    7SAPS  H17R  871  -0.504   1.478   8.949 -0.6797 -4.9056  1.2703
    7SAPS  H17S  872  -0.617   1.606   8.895  0.8566  1.7673  1.4797
    7SAPS  C218  873  -0.678   1.393   8.869 -0.0501 -0.2089 -0.0673
    7SAPS  H18R  874  -0.789   1.393   8.866 -0.3158 -5.3436  0.1113
    7SAPS  H18S  875  -0.659   1.298   8.925  1.1347 -0.6136 -1.0989
    7SAPS  C219  876  -0.643   1.384   8.722 -1.0596  0.2410 -0.4936
    7SAPS  H19R  877  -0.534   1.394   8.706 -1.1440  3.1370  0.2054
    7SAPS  H19S  878  -0.689   1.468   8.666  0.3441  1.6110  0.3241
    7SAPS  C220  879  -0.685   1.248   8.661 -1.1747 -0.9194 -0.7601
    7SAPS  H20R  880  -0.676   1.268   8.552  3.4437  0.0190 -0.3803
    7SAPS  H20S  881  -0.784   1.212   8.697 -0.6893 -0.7970  0.7686
    7SAPS  H20T  882  -0.613   1.169   8.693  0.0991  0.3265 -0.4880
    7SAPS   C33  883   0.150   1.542   9.998  0.0528 -0.8506 -0.3639
    7SAPS   H3X  884   0.249   1.492   9.995  0.9360  0.8513 -0.8994
    7SAPS   H3Y  885   0.171   1.643  10.040 -0.1096 -1.2294  0.6552
    7SAPS   C34  886   0.096   1.556   9.854 -0.3610 -0.7386 -0.5011
    7SAPS   H4X  887  -0.005   1.600   9.855 -0.7367 -1.5626 -1.1589
    7SAPS   H4Y  888   0.076   1.457   9.807 -1.1688 -1.0474  0.4788
    7SAPS   C35  889   0.194   1.631   9.763  0.3500 -0.5569  0.3372
    7SAPS   H5X  890   0.290   1.577   9.753 -0.0397 -1.0319 -1.1826
    7SAPS   H5Y  891   0.208   1.734   9.802 -1.4774 -0.1201 -0.0617
    7SAPS   C36  892   0.145   1.637   9.617  0.1330 -0.2849 -0.8061
    7SAPS   H6X  893   0.051   1.695   9.623 -0.7445 -1.5290 -1.9839
    7SAPS   H6Y  894   0.117   1.532   9.594  0.7565 -0.7399  0.3902
    7SAPS   C37  895   0.243   1.680   9.508  0.5180  0.0564 -0.2117
    7SAPS   H7X  896   0.328   1.609   9.502  0.0941 -0.5109  0.3399
    7SAPS   H7Y  897   0.279   1.780   9.539 -1.0902  0.4240  0.5483
    7SAPS   C38  898   0.171   1.683   9.377 -0.1972  0.2497  0.4495
    7SAPS   H8X  899   0.079   1.745   9.392  0.3045  0.6445  2.1186
    7SAPS   H8Y  900   0.132   1.581   9.359 -0.4781  0.2810  0.8480
    7SAPS   C39  901   0.243   1.742   9.252 -0.1389 -0.0475  0.1792
    7SAPS   H9X  902   0.329   1.674   9.237  2.2405  2.6686  0.7491
    7SAPS   H9Y  903   0.281   1.841   9.284  1.1807 -1.0871  1.9961
    7SAPS  C310  904   0.155   1.739   9.126 -0.4377  0.5715  0.2957
    7SAPS  H10X  905   0.065   1.801   9.148  0.5375  3.1225 -2.1929
    7SAPS  H10Y  906   0.125   1.634   9.109  0.9836  0.3740 -1.3877
    7SAPS  C311  907   0.221   1.790   8.994 -0.3245  0.1050  0.3702
    7SAPS  H11X  908   0.180   1.722   8.916 -0.7197  0.0769  0.6018
    7SAPS  H11Y  909   0.331   1.780   9.001 -0.4591 -1.8642  0.4464
    7SAPS  C312  910   0.177   1.927   8.945 -1.3669  0.3223 -0.1485
    7SAPS  H12X  911   0.210   1.984   9.034 -2.4395  1.2218 -0.3079
    7SAPS  H12Y  912   0.068   1.911   8.935 -0.9660 -1.4418 -2.8387
    7SAPS  C313  913   0.247   1.962   8.809 -0.3860  0.0688 -0.2527
    7SAPS  H13X  914   0.217   1.886   8.734  1.1412 -1.3307  0.4859
    7SAPS  H13Y  915   0.356   1.942   8.814 -0.2722  0.8930  0.7753
    7SAPS  C314  916   0.216   2.101   8.773 -0.0188  0.3532 -0.2581
    7SAPS  H14X  917   0.255   2.170   8.850 -0.7038 -0.7391  1.1159
    7SAPS  H14Y  918   0.106   2.113   8.765 -0.5283 -2.9751  0.3179
    7SAPS  C315  919   0.290   2.148   8.643 -0.4333 -0.0669 -0.1324
    7SAPS  H15X  920   0.244   2.085   8.564  1.7693 -1.9284 -0.0461
    7SAPS  H15Y  921   0.398   2.124   8.648 -0.1462  1.1875 -0.1187
    7SAPS  C316  922   0.262   2.289   8.601 -0.4007 -0.1028 -0.6518
    7SAPS  H16X  923   0.288   2.363   8.680 -1.3053  0.9311 -1.2798
    7SAPS  H16Y  924   0.153   2.308   8.586 -0.3513  1.2814  0.5241
    7SAPS  C317  925   0.354   2.334   8.485 -0.3705 -0.5058  0.4044
    7SAPS  H17X  926   0.347   2.264   8.399 -3.1843 -1.8600  1.5856
    7SAPS  H17Y  927   0.464   2.334   8.505 -0.1319  3.7940 -0.0737
    7SAPS  C318  928   0.318   2.480   8.444 -0.3162 -0.5834 -0.5437
    7SAPS  H18X  929   0.316   2.543   8.536 -0.3647 -0.7633 -0.4198
    7SAPS  H18Y  930   0.216   2.478   8.400 -0.9084  0.2741  0.7210
    7SAPS  H18Z  931   0.378   2.524   8.362 -1.2004 -1.2899 -1.5983
    8SAPS     N  932   2.854   1.028  10.867 -0.1507  0.3266 -0.3999
    8SAPS   HN1  933   2.877   1.080  10.780  0.3368  0.5365 -0.1494
    8SAPS   HN2  934   2.872   0.926  10.856  0.1705  0.4704 -1.2761
    8SAPS   HN3  935   2.756   1.049  10.895  0.9018  1.5188  3.0320
    8SAPS   C12  936   2.958   1.068  10.963 -0.7269 -0.2383  1.1740
    8SAPS  H12A  937   2.924   1.058  11.064  1.6619 -1.0954  1.9560
    8SAPS   C13  938   3.091   0.990  10.943 -0.4987 -0.7917  0.2377
    8SAPS  O13A  939   3.101   0.914  10.842  0.1457 -0.6070 -0.0732
    8SAPS  O13B  940   3.186   1.016  11.019  0.3790 -0.4933  0.1512
    8SAPS   C11  941   2.987   1.221  10.934  0.3566  0.4278 -0.1486
    8SAPS  H11A  942   3.026   1.232  10.831 -1.2691 -1.0223 -0.9715
    8SAPS  H11B  943   3.065   1.249  11.008 -2.0252  0.0080  2.7473
    8SAPS     P  944   2.888   1.469  10.914 -0.2491 -0.6657 -0.4330
    8SAPS   O13  945   2.756   1.528  10.930 -0.0370 -0.0939  0.1776
    8SAPS   O14  946   2.998   1.510  11.007  0.6482  0.9007 -0.7726
    8SAPS   O12  947   2.870   1.310  10.928 -0.4768  0.1191 -0.8355
    8SAPS   O11  948   2.939   1.483  10.762  0.8851 -0.1598  0.4702
    8SAPS    C1  949   3.068   1.549  10.755  0.4991  0.3659 -0.3550
    8SAPS    HA  950   3.063   1.652  10.795  0.2418  0.8058 -1.4813
    8SAPS    HB  951   3.144   1.495  10.816  0.5189  0.8831  0.0851
    8SAPS    C2  952   3.133   1.556  10.608 -0.3770  0.6090  0.2779
    8SAPS    HS  953   3.239   1.586  10.624 -0.2340  0.5500 -0.5052
    8SAPS   O21  954   3.065   1.647  10.520  0.3265 -0.1213  0.2843
    8SAPS   C21  955   3.089   1.772  10.543  0.2220  0.0230 -0.1640
    8SAPS   O22  956   3.173   1.817  10.616  0.2275 -0.5253 -0.3850
    8SAPS   C22  957   3.007   1.859  10.453 -0.3393 -0.1619  0.1723
    8SAPS   H2R  958   2.927   1.800  10.404  0.5156  0.3580 -2.0175
    8SAPS   H2S  959   2.945   1.920  10.522 -2.8916 -3.2388  0.7996
    8SAPS    C3  960   3.135   1.412  10.546 -0.1433 -0.1897 -0.0250
    8SAPS    HX  961   3.038   1.362  10.566  1.1697 -2.7469  0.3585
    8SAPS    HY  962   3.218   1.358  10.596  0.3968 -0.5150 -1.2240
    8SAPS   O31  963   3.167   1.405  10.409 -0.4048 -0.1380 -0.1646
    8SAPS   C31  964   3.286   1.448  10.372  0.2548 -0.0166 -0.1528
    8SAPS   O32  965   3.373   1.484  10.447  0.0938  0.0549  0.0618
    8SAPS   C32  966   3.294   1.442  10.215 -0.1102 -1.0992  0.7563
    8SAPS   H2X  967   3.208   1.495  10.168  0.7876  1.2636  1.6206
    8SAPS   H2Y  968   3.298   1.334  10.187  0.1465 -1.0281  0.5072
    8SAPS   C23  969   3.082   1.940  10.344 -0.0509 -0.1178 -0.3593
    8SAPS   H3R  970   3.135   2.022  10.398 -1.6573  0.3256  0.6187
    8SAPS   H3S  971   2.999   1.988  10.288  0.8787  1.0932 -0.7485
    8SAPS   C24  972   3.160   1.852  10.247 -1.4760  0.2004 -0.2017
    8SAPS   H4R  973   3.142   1.891  10.144 -0.3961  0.3558 -0.3494
    8SAPS   H4S  974   3.120   1.749  10.251 -2.2715  0.4873 -0.5374
    8SAPS   C25  975   3.305   1.861  10.291  0.4853 -0.6056  0.7542
    8SAPS   H5R  976   3.321   1.823  10.393  0.5643 -2.8257 -0.0470
    8SAPS   C26  977   3.415   1.902  10.224  0.7217 -0.5045 -0.0860
    8SAPS   H6R  978   3.515   1.900  10.269  0.1336  2.0598  1.5733
    8SAPS   C27  979   3.410   1.955  10.079  0.0325  0.3928  0.2425
    8SAPS   H7R  980   3.307   1.974  10.041  0.0386 -2.0508 -1.2479
    8SAPS   H7S  981   3.437   1.864  10.020  0.5332  1.1479 -0.7111
    8SAPS   C28  982   3.509   2.063  10.063 -0.5499 -1.3267  0.2598
    8SAPS   H8R  983   3.498   2.151  10.127  1.2339  0.4388 -1.7051
    8SAPS   C29  984   3.613   2.072   9.978 -0.5477  0.3605 -0.2879
    8SAPS   H9R  985   3.688   2.152   9.990 -0.3873  0.5880 -2.3990
    8SAPS  C210  986   3.644   1.970   9.874  0.5100 -0.0045  0.3199
    8SAPS  H10R  987   3.600   1.869   9.894 -0.4656  0.3069 -0.1817
    8SAPS  H10S  988   3.753   1.952   9.868  0.4391 -0.4903  0.3807
    8SAPS  C211  989   3.585   2.022   9.741  0.0247 -1.0644 -0.0860
    8SAPS  H11R  990   3.508   2.100   9.751  0.0763 -1.0851  0.5284
    8SAPS  C212  991   3.624   1.990   9.614 -0.0170  0.1679  0.4474
    8SAPS  H12R  992   3.584   2.037   9.523  2.8896 -0.5746 -1.3667
    8SAPS  C213  993   3.733   1.894   9.580  0.6193 -0.0872 -0.2066
    8SAPS  H13R  994   3.785   1.847   9.666 -0.7436 -2.3908 -0.5542
    8SAPS  H13S  995   3.799   1.963   9.522 -0.1682  1.3599  0.5693
    8SAPS  C214  996   3.681   1.792   9.485 -0.5005 -0.2528 -0.2955
    8SAPS  H14R  997   3.576   1.759   9.499 -0.2434 -1.0936 -0.2772
    8SAPS  C215  998   3.755   1.743   9.379  0.7268 -0.0515 -0.1396
    8SAPS  H15R  999   3.706   1.665   9.318  0.1780  1.0920 -1.2039
    8SAPS  C216 1000   3.882   1.783   9.317  0.1187  0.0252  0.4226
    8SAPS  H16R 1001   3.955   1.703   9.341  2.4584  1.5609 -1.1404
    8SAPS  H16S 1002   3.927   1.870   9.368  0.2079 -0.4187  1.1167
    8SAPS  C217 1003   3.863   1.817   9.166  0.1293 -0.1019  0.2557
    8SAPS  H17R 1004   3.962   1.856   9.134  0.4454 -0.3605  0.8939
    8SAPS  H17S 1005   3.793   1.902   9.150  1.0581  0.9218  1.4003
    8SAPS  C218 1006   3.825   1.705   9.077  0.1559 -0.6328  0.2481
    8SAPS  H18R 1007   3.723   1.664   9.092  0.9476 -1.7594  3.2860
    8SAPS  H18S 1008   3.884   1.612   9.095  1.8219  0.2786 -0.2432
    8SAPS  C219 1009   3.826   1.743   8.928 -0.3058  0.0824 -0.0069
    8SAPS  H19R 1010   3.840   1.658   8.859  4.1672 -0.1793  0.9385
    8SAPS  H19S 1011   3.896   1.824   8.898 -1.1805  0.3775 -1.3300
    8SAPS  C220 1012   3.688   1.813   8.898 -0.0096 -0.1248 -0.0520
    8SAPS  H20R 1013   3.679   1.914   8.944  1.2989  0.0090 -0.0480
    8SAPS  H20S 1014   3.599   1.761   8.939  0.8478 -0.2878  1.7235
    8SAPS  H20T 1015   3.677   1.828   8.789 -1.5563  1.2542  0.2613
    8SAPS   C33 1016   3.418   1.518  10.162 -0.2580  1.2557 -0.0937
    8SAPS   H3X 1017   3.499   1.442  10.161  1.6953  3.0530  3.3052
    8SAPS   H3Y 1018   3.451   1.592  10.238 -0.6412  0.0607  1.2864
    8SAPS   C34 1019   3.390   1.594  10.035 -0.3677  1.0284 -0.3041
    8SAPS   H4X 1020   3.482   1.655  10.031  1.1614 -1.1218  0.3723
    8SAPS   H4Y 1021   3.293   1.650  10.036 -2.0382 -1.5290 -3.2089
    8SAPS   C35 1022   3.375   1.502   9.918 -0.0217 -0.2109 -0.9959
    8SAPS   H5X 1023   3.270   1.466   9.916 -2.4437  5.6098 -0.3281
    8SAPS   H5Y 1024   3.439   1.413   9.928 -1.6838 -1.1925  2.8568
    8SAPS   C36 1025   3.411   1.576   9.789 -0.3256 -0.0226 -0.5683
    8SAPS   H6X 1026   3.507   1.629   9.806  0.6367 -1.5083 -1.2058
    8SAPS   H6Y 1027   3.341   1.658   9.758  1.0134  0.9354 -1.1447
    8SAPS   C37 1028   3.430   1.487   9.669  0.0297  0.2543 -0.3436
    8SAPS   H7X 1029   3.481   1.394   9.704 -3.0884 -1.4429  0.1031
    8SAPS   H7Y 1030   3.494   1.535   9.592 -2.7133  0.3800 -2.7336
    8SAPS   C38 1031   3.297   1.448   9.601 -0.5838  0.4829 -0.6982
    8SAPS   H8X 1032   3.244   1.542   9.577 -2.1959 -0.1372  0.2810
    8SAPS   H8Y 1033   3.232   1.397   9.676 -1.3709  1.1124 -0.9427
    8SAPS   C39 1034   3.318   1.344   9.493 -0.2377 -0.0248 -0.0785
    8SAPS   H9X 1035   3.233   1.288   9.448 -0.0490 -0.5853  0.2517
    8SAPS   H9Y 1036   3.383   1.269   9.544 -0.7034  0.0692  0.6652
    8SAPS  C310 1037   3.396   1.398   9.371  0.1356  0.4720 -0.4955
    8SAPS  H10X 1038   3.486   1.455   9.403 -0.6309  1.9330 -0.8747
    8SAPS  H10Y 1039   3.325   1.465   9.319 -1.4633  0.3257  1.3798
    8SAPS  C311 1040   3.425   1.286   9.269  0.1943  0.2185 -0.6314
    8SAPS  H11X 1041   3.363   1.279   9.177  0.7815  1.7041 -1.1751
    8SAPS  H11Y 1042   3.408   1.190   9.322 -1.0411  0.1171 -1.1803
    8SAPS  C312 1043   3.573   1.284   9.228 -0.0373 -0.2534  0.0290
    8SAPS  H12X 1044   3.638   1.325   9.308 -0.6516 -0.3082  0.5620
    8SAPS  H12Y 1045   3.586   1.350   9.139  2.3198 -1.9961 -1.0443
    8SAPS  C313 1046   3.628   1.146   9.190  0.4083 -0.7827  0.2213
    8SAPS  H13X 1047   3.622   1.081   9.280 -2.8259  0.3663  0.9731
    8SAPS  H13Y 1048   3.730   1.164   9.149  0.6479  1.5541  1.6294
    8SAPS  C314 1049   3.545   1.087   9.077  0.0386 -0.1038 -0.7071
    8SAPS  H14X 1050   3.527   1.165   9.001 -1.1258  0.2240 -0.1188
    8SAPS  H14Y 1051   3.454   1.040   9.121 -0.0499  0.6516 -0.0479
    8SAPS  C315 1052   3.628   0.976   9.000 -0.9247 -0.0378  0.3737
    8SAPS  H15X 1053   3.644   0.884   9.059 -0.1137  0.9138  1.7015
    8SAPS  H15Y 1054   3.725   1.016   8.963 -1.4571  1.1212  0.1809
    8SAPS  C316 1055   3.557   0.931   8.868  0.3356 -0.2630  0.0242
    8SAPS  H16X 1056   3.542   1.013   8.794 -1.7108 -1.2983 -0.7980
    8SAPS  H16Y 1057   3.453   0.898   8.889  1.0607 -1.5449  1.8393
    8SAPS  C317 1058   3.634   0.820   8.800 -0.5593  0.0215 -0.4201
    8SAPS  H17X 1059   3.576   0.771   8.718  0.7219 -1.6123 -0.4150
    8SAPS  H17Y 1060   3.654   0.740   8.874 -0.2829 -1.2136 -1.7716
    8SAPS  C318 1061   3.762   0.852   8.731 -0.5613  0.1152 -0.5461
    8SAPS  H18X 1062   3.735   0.928   8.655  0.3757  1.5941  0.5608
    8SAPS  H18Y 1063   3.813   0.769   8.677  0.5237  0.5964 -0.2872
    8SAPS  H18Z 1064   3.835   0.897   8.802 -0.3171 -0.1414 -0.6280
    9SAPS     N 1065   0.510   3.514   6.509 -0.3261 -0.4744 -0.3156
    9SAPS   HN1 1066   0.454   3.427   6.524  0.6473 -1.2084 -0.8181
    9SAPS   HN2 1067   0.607   3.485   6.531  0.0166 -0.5880 -1.8996
    9SAPS   HN3 1068   0.476   3.595   6.565  3.2393  0.3682  0.9055
    9SAPS   C12 1069   0.518   3.563   6.372 -0.3422 -0.7447  0.5083
    9SAPS  H12A 1070   0.595   3.638   6.374 -0.5273 -0.5305 -0.1540
    9SAPS   C13 1071   0.563   3.463   6.267  0.5247 -0.0760  0.1993
    9SAPS  O13A 1072   0.623   3.358   6.295 -0.3304  0.2820 -0.4781
    9SAPS  O13B 1073   0.552   3.488   6.147 -0.1450  0.1331  0.4044
    9SAPS   C11 1074   0.374   3.620   6.334 -0.4495  0.4985  0.5306
    9SAPS  H11A 1075   0.312   3.528   6.341 -0.5361  0.6742  3.4010
    9SAPS  H11B 1076   0.367   3.668   6.234 -0.8909  3.2511  1.7784
    9SAPS     P 1077   0.393   3.861   6.426 -0.2079 -0.0474 -0.1640
    9SAPS   O13 1078   0.512   3.860   6.509  0.1457  0.0297 -0.1844
    9SAPS   O14 1079   0.407   3.898   6.288 -0.6305  0.3185 -0.1173
    9SAPS   O12 1080   0.326   3.714   6.424 -0.2108 -0.1117  0.2920
    9SAPS   O11 1081   0.283   3.957   6.486  0.5907  0.4270  0.0023
    9SAPS    C1 1082   0.176   3.905   6.571  0.2861 -0.5092  0.4248
    9SAPS    HA 1083   0.081   3.897   6.513 -0.0585 -0.8975  1.0341
    9SAPS    HB 1084   0.186   3.803   6.614  0.1093 -1.0874 -0.8615
    9SAPS    C2 1085   0.153   4.004   6.690  0.0724  0.3284 -0.0450
    9SAPS    HS 1086   0.091   4.081   6.640 -0.2517 -1.3226 -2.3300
    9SAPS   O21 1087   0.270   4.066   6.750 -0.4920  0.5705 -0.2073
    9SAPS   C21 1088   0.305   4.181   6.682  0.2032  1.2949 -0.6833
    9SAPS   O22 1089   0.246   4.224   6.585  0.0944 -0.5917  0.3963
    9SAPS   C22 1090   0.417   4.249   6.752 -0.3998 -0.0924 -0.4756
    9SAPS   H2R 1091   0.459   4.175   6.824  0.6504  0.3119 -0.6690
    9SAPS   H2S 1092   0.491   4.285   6.678  0.6648  1.5978  1.3137
    9SAPS    C3 1093   0.079   3.937   6.807 -0.5715  0.6892 -0.5057
    9SAPS    HX 1094   0.150   3.858   6.837 -2.5227 -0.4032  1.5230
    9SAPS    HY 1095  -0.012   3.886   6.769 -1.1936  1.5317 -0.1855
    9SAPS   O31 1096   0.046   4.015   6.920  0.2810 -0.3553  0.0184
    9SAPS   C31 1097  -0.055   4.099   6.915  0.3478 -0.3241  0.9843
    9SAPS   O32 1098  -0.121   4.123   6.814 -0.4056 -0.0735 -0.6480
    9SAPS   C32 1099  -0.061   4.166   7.050  0.5780  0.3686  0.2874
    9SAPS   H2X 1100  -0.142   4.241   7.038 -0.2159 -0.5823 -0.5920
    9SAPS   H2Y 1101   0.034   4.208   7.088  1.4400 -0.4743 -0.8715
    9SAPS   C23 1102   0.361   4.371   6.824 -0.4790  0.2754 -0.0962
    9SAPS   H3R 1103   0.288   4.421   6.756  0.1602 -0.0848 -1.0661
    9SAPS   H3S 1104   0.456   4.426   6.844 -0.8412  0.5481  0.9334
    9SAPS   C24 1105   0.285   4.333   6.953  0.3164  0.1384 -0.4463
    9SAPS   H4R 1106   0.367   4.284   7.010  0.6581  1.2019  0.0147
    9SAPS   H4S 1107   0.218   4.250   6.925 -0.2007  0.3715  0.0885
    9SAPS   C25 1108   0.221   4.437   7.040 -0.5727  0.3882 -0.2148
    9SAPS   H5R 1109   0.145   4.501   6.993 -1.8124 -1.8255 -1.3744
    9SAPS   C26 1110   0.249   4.456   7.171 -0.3909  0.6700  1.3580
    9SAPS   H6R 1111   0.196   4.532   7.231  0.8323  2.1482  0.6599
    9SAPS   C27 1112   0.346   4.375   7.249 -0.2908  0.0451  0.5905
    9SAPS   H7R 1113   0.367   4.426   7.345  0.1418  0.7771  0.1182
    9SAPS   H7S 1114   0.441   4.356   7.195 -0.4545  0.9379 -0.0289
    9SAPS   C28 1115   0.296   4.234   7.284  0.3974 -0.0680 -0.1379
    9SAPS   H8R 1116   0.310   4.164   7.201 -3.1489  0.4352 -1.3242
    9SAPS   C29 1117   0.244   4.195   7.406  0.1743  0.2071 -0.1944
    9SAPS   H9R 1118   0.199   4.095   7.405  0.7750 -0.0932  0.9120
    9SAPS  C210 1119   0.225   4.267   7.535  0.7947 -0.0330  0.6956
    9SAPS  H10R 1120   0.127   4.246   7.583  0.5464 -2.3500 -0.6872
    9SAPS  H10S 1121   0.216   4.378   7.526  0.9539 -0.1417 -1.1670
    9SAPS  C211 1122   0.330   4.239   7.636 -0.0452  0.3556  0.5842
    9SAPS  H11R 1123   0.428   4.226   7.587 -1.6054  0.2022 -2.7850
    9SAPS  C212 1124   0.337   4.231   7.771 -0.5131 -0.1745 -0.1984
    9SAPS  H12R 1125   0.432   4.211   7.822 -0.9039  0.2970  0.7354
    9SAPS  C213 1126   0.217   4.242   7.864 -0.1559 -0.5897 -0.0114
    9SAPS  H13R 1127   0.137   4.301   7.814 -0.6615  0.7931  2.2834
    9SAPS  H13S 1128   0.244   4.309   7.948  1.0155 -0.2094 -0.6720
    9SAPS  C214 1129   0.178   4.109   7.912 -0.0568 -0.4087  0.5701
    9SAPS  H14R 1130   0.184   4.032   7.834  2.0454  0.6477 -0.3880
    9SAPS  C215 1131   0.110   4.083   8.023  0.6088 -0.3054  0.9527
    9SAPS  H15R 1132   0.075   3.981   8.045  0.5768 -0.4998  0.0371
    9SAPS  C216 1133   0.070   4.189   8.124  0.8907 -0.7495  0.5042
    9SAPS  H16R 1134  -0.020   4.225   8.070  3.1958 -0.9293 -3.9652
    9SAPS  H16S 1135   0.141   4.273   8.128  0.2804 -0.2220  0.3844
    9SAPS  C217 1136   0.022   4.143   8.260 -0.2018  0.5221 -0.5029
    9SAPS  H17R 1137   0.095   4.075   8.309 -1.6935 -0.3787  0.5377
    9SAPS  H17S 1138  -0.070   4.081   8.251  0.0458  0.2152 -0.9878
    9SAPS  C218 1139  -0.000   4.258   8.362  0.5564 -0.0147 -0.1349
    9SAPS  H18R 1140  -0.061   4.336   8.310 -0.9572 -0.6992  0.5569
    9SAPS  H18S 1141   0.101   4.295   8.389  0.6572 -0.4121  0.0298
    9SAPS  C219 1142  -0.078   4.198   8.475  0.1985 -0.3263  0.5220
    9SAPS  H19R 1143  -0.017   4.123   8.529 -0.3967 -2.6031 -1.7574
    9SAPS  H19S 1144  -0.159   4.141   8.424  0.5979 -1.7612  1.4437
    9SAPS  C220 1145  -0.141   4.303   8.566 -0.2560  0.4016  0.3657
    9SAPS  H20R 1146  -0.234   4.350   8.527 -0.0018  1.2760  0.8031
    9SAPS  H20S 1147  -0.074   4.385   8.598 -0.3789  1.0160 -0.8960
    9SAPS  H20T 1148  -0.181   4.254   8.657 -2.7139  2.4789  0.5110
    9SAPS   C33 1149  -0.106   4.057   7.158  0.0677 -0.0781  0.1191
    9SAPS   H3X 1150  -0.032   3.974   7.167 -1.5499 -1.6970 -0.9221
    9SAPS   H3Y 1151  -0.203   4.007   7.134  2.1811 -4.2994 -0.6348
    9SAPS   C34 1152  -0.126   4.128   7.291  0.6118 -0.1949  0.0300
    9SAPS   H4X 1153  -0.191   4.218   7.292 -0.6381 -1.0763  0.3954
    9SAPS   H4Y 1154  -0.027   4.169   7.318 -0.2475  2.4739 -0.6006
    9SAPS   C35 1155  -0.170   4.030   7.401 -0.2113  0.0677  0.2196
    9SAPS   H5X 1156  -0.108   3.939   7.387  1.4096  1.3759 -1.6076
    9SAPS   H5Y 1157  -0.273   3.998   7.376  0.4836 -0.9884 -1.3970
    9SAPS   C36 1158  -0.168   4.094   7.541 -0.8170 -0.2056  0.0952
    9SAPS   H6X 1159  -0.249   4.169   7.551 -1.4236 -0.8640  0.1308
    9SAPS   H6Y 1160  -0.063   4.127   7.557 -1.3622  1.3650  0.6120
    9SAPS   C37 1161  -0.209   3.988   7.646 -0.3092 -0.2234 -0.0253
    9SAPS   H7X 1162  -0.136   3.905   7.639  3.3341  2.7420 -0.5638
    9SAPS   H7Y 1163  -0.306   3.945   7.612 -0.0175 -1.2691  0.4448
    9SAPS   C38 1164  -0.217   4.034   7.791  0.9124  1.0837  0.2846
    9SAPS   H8X 1165  -0.246   4.141   7.783 -0.0135  0.7705 -0.7935
    9SAPS   H8Y 1166  -0.118   4.022   7.840  1.7012 -0.0764 -1.5042
    9SAPS   C39 1167  -0.323   3.958   7.871  0.7297 -0.5088 -0.7735
    9SAPS   H9X 1168  -0.285   3.854   7.878  1.4031 -0.4534 -2.9001
    9SAPS   H9Y 1169  -0.421   3.953   7.819 -0.1031  3.0715  0.1941
    9SAPS  C310 1170  -0.364   4.030   8.006  0.1217 -0.6906  0.5567
    9SAPS  H10X 1171  -0.397   4.135   7.995 -3.7558 -1.5681  2.1309
    9SAPS  H10Y 1172  -0.264   4.041   8.054  0.6191  1.6804 -0.8311
    9SAPS  C311 1173  -0.469   3.956   8.097  0.3543 -0.3262  0.0147
    9SAPS  H11X 1174  -0.420   3.861   8.127  1.4815  1.0227  2.7566
    9SAPS  H11Y 1175  -0.559   3.929   8.037 -0.1611  0.7280  0.2942
    9SAPS  C312 1176  -0.511   4.047   8.210 -0.3007 -0.3446  0.3060
    9SAPS  H12X 1177  -0.597   4.002   8.265 -1.0595  0.8284  0.1114
    9SAPS  H12Y 1178  -0.538   4.145   8.166  0.6155 -0.0313  0.4174
    9SAPS  C313 1179  -0.394   4.066   8.315  0.0850 -0.3701  0.3121
    9SAPS  H13X 1180  -0.337   4.160   8.298  2.4225 -0.9449  3.8648
    9SAPS  H13Y 1181  -0.328   3.978   8.300 -0.4023 -0.6775 -0.0777
    9SAPS  C314 1182  -0.445   4.075   8.465  0.5357 -0.2542  0.4563
    9SAPS  H14X 1183  -0.355   4.060   8.529  0.5387 -0.4978  0.3928
    9SAPS  H14Y 1184  -0.515   3.991   8.483  0.1274 -0.6464 -2.4485
    9SAPS  C315 1185  -0.502   4.218   8.495  0.7193  0.2765  0.5712
    9SAPS  H15X 1186  -0.589   4.241   8.429  0.5898 -0.7207  0.3804
    9SAPS  H15Y 1187  -0.437   4.309   8.493  0.2717  0.6406  1.7274
    9SAPS  C316 1188  -0.564   4.205   8.635  0.3867  0.4778 -0.2817
    9SAPS  H16X 1189  -0.606   4.103   8.632  2.8023 -0.7298  2.2596
    9SAPS  H16Y 1190  -0.650   4.273   8.652  0.0845  0.6658 -2.2387
    9SAPS  C317 1191  -0.455   4.214   8.745 -0.0963  0.1267  0.7940
    9SAPS  H17X 1192  -0.415   4.318   8.750  1.0018 -0.2354 -0.0376
    9SAPS  H17Y 1193  -0.366   4.157   8.710  0.3912  0.4397  1.4929
    9SAPS  C318 1194  -0.497   4.187   8.889 -0.6208 -0.0979  0.5155
    9SAPS  H18X 1195  -0.413   4.142   8.946 -0.7366 -0.5213  0.3549
    9SAPS  H18Y 1196  -0.563   4.098   8.887 -0.4920 -0.1799 -1.1461
    9SAPS  H18Z 1197  -0.546   4.277   8.933 -2.2428 -0.1435 -1.0943
   10SAPS     N 1198   2.025   5.340   6.204  0.3580 -0.5172 -0.4441
   10SAPS   HN1 1199   2.088   5.408   6.157 -0.0609 -0.4316 -0.8867
   10SAPS   HN2 1200   1.991   5.383   6.292 -0.8094 -1.5116 -0.3905
   10SAPS   HN3 1201   2.082   5.255   6.223 -2.1329 -2.1859 -0.0668
   10SAPS   C12 1202   1.915   5.296   6.114  0.5341  0.5780  0.2733
   10SAPS  H12A 1203   1.864   5.383   6.074  0.1847 -0.1133 -0.8339
   10SAPS   C13 1204   1.960   5.224   5.981  0.4019 -0.7755  0.4637
   10SAPS  O13A 1205   2.080   5.202   5.962 -0.0130 -0.4759  0.6526
   10SAPS  O13B 1206   1.874   5.202   5.888 -0.1532 -0.5351  0.5988
   10SAPS   C11 1207   1.825   5.200   6.190  0.2021  0.0712  0.1151
   10SAPS  H11A 1208   1.882   5.109   6.218 -0.8992  0.0358  2.4665
   10SAPS  H11B 1209   1.740   5.174   6.122  0.3604  0.2534 -0.1530
   10SAPS     P 1210   1.659   5.197   6.387 -0.5489 -0.0234 -0.0300
   10SAPS   O13 1211   1.609   5.289   6.489  0.6250  0.3582  0.1735
   10SAPS   O14 1212   1.556   5.136   6.305  0.1045 -0.3553  0.3749
   10SAPS   O12 1213   1.769   5.273   6.299  0.2025  0.1492 -0.3975
   10SAPS   O11 1214   1.750   5.086   6.459 -0.6245  0.2693 -0.2238
   10SAPS    C1 1215   1.870   5.124   6.528  0.2662 -0.2359  0.0307
   10SAPS    HA 1216   1.961   5.122   6.465  1.6981 -2.6827  1.9939
   10SAPS    HB 1217   1.853   5.226   6.569 -2.0376 -1.7613  3.3390
   10SAPS    C2 1218   1.881   5.042   6.665 -0.3458  0.2202 -0.4555
   10SAPS    HS 1219   1.902   4.937   6.633  1.8439  0.6762 -0.6359
   10SAPS   O21 1220   1.754   5.060   6.735 -0.3662 -0.5003 -0.0733
   10SAPS   C21 1221   1.691   4.948   6.771  0.4052  0.4414 -0.0731
   10SAPS   O22 1222   1.726   4.831   6.755  0.7124 -0.0148  0.1518
   10SAPS   C22 1223   1.549   4.987   6.826 -0.4323  0.6297  0.1921
   10SAPS   H2R 1224   1.486   5.039   6.752 -1.3783 -0.1215  0.4511
   10SAPS   H2S 1225   1.498   4.890   6.847 -1.0357  0.6499 -1.1052
   10SAPS    C3 1226   2.000   5.096   6.753  0.1530  0.9119  0.2698
   10SAPS    HX 1227   1.983   5.204   6.772  0.5140  0.7903  1.3355
   10SAPS    HY 1228   2.094   5.085   6.695 -1.2292 -1.5193 -1.7117
   10SAPS   O31 1229   2.022   5.028   6.884 -0.1441 -0.1701 -0.1987
   10SAPS   C31 1230   2.078   4.909   6.884  0.2359  0.3932 -0.6548
   10SAPS   O32 1231   2.125   4.857   6.790 -0.6887 -0.3593 -0.1532
   10SAPS   C32 1232   2.059   4.841   7.016  0.0271 -0.2856 -0.2807
   10SAPS   H2X 1233   1.975   4.892   7.068  1.7159  2.7599 -0.3187
   10SAPS   H2Y 1234   2.158   4.834   7.067  0.2710 -0.1628 -0.7379
   10SAPS   C23 1235   1.561   5.070   6.957  0.2193  0.5793 -0.5097
   10SAPS   H3R 1236   1.590   5.174   6.934  1.8391 -0.3772 -3.2920
   10SAPS   H3S 1237   1.645   5.041   7.025  0.9713  1.4349 -1.0592
   10SAPS   C24 1238   1.437   5.057   7.046  0.5679  0.9243  0.3664
   10SAPS   H4R 1239   1.460   5.118   7.135  0.7499  1.5846 -0.1220
   10SAPS   H4S 1240   1.415   4.955   7.082  0.4441  0.5967 -0.5894
   10SAPS   C25 1241   1.308   5.119   6.994 -0.2357  0.3414  0.8914
   10SAPS   H5R 1242   1.299   5.121   6.884  1.4837 -0.1943  0.7221
   10SAPS   C26 1243   1.227   5.193   7.071  0.4297  0.7395  0.0234
   10SAPS   H6R 1244   1.140   5.239   7.022 -0.4204 -0.7147  0.1288
   10SAPS   C27 1245   1.223   5.214   7.225  0.2927 -0.8811  0.3520
   10SAPS   H7R 1246   1.233   5.323   7.243  0.9236 -0.8086 -0.3798
   10SAPS   H7S 1247   1.302   5.162   7.283  0.0921  0.1491  1.5974
   10SAPS   C28 1248   1.096   5.159   7.294 -0.1225 -0.3371  0.0608
   10SAPS   H8R 1249   1.033   5.092   7.232  1.1898 -1.3374 -0.2331
   10SAPS   C29 1250   1.063   5.191   7.417 -0.5032  0.3073 -0.5298
   10SAPS   H9R 1251   0.967   5.156   7.459 -1.0889  3.9183  1.5512
   10SAPS  C210 1252   1.134   5.267   7.524 -0.6174  0.0004  0.5711
   10SAPS  H10R 1253   1.053   5.283   7.599 -1.3770 -4.2222  0.9330
   10SAPS  H10S 1254   1.150   5.365   7.475 -1.8526  0.7385  1.5679
   10SAPS  C211 1255   1.263   5.218   7.580  0.4859 -0.3002  0.4551
   10SAPS  H11R 1256   1.353   5.269   7.543  0.2486 -0.2692 -0.0827
   10SAPS  C212 1257   1.279   5.125   7.675 -0.0543  0.2246  0.0782
   10SAPS  H12R 1258   1.383   5.102   7.702  0.7909 -0.2503 -3.1177
   10SAPS  C213 1259   1.167   5.062   7.754 -0.8862  0.7011  0.4305
   10SAPS  H13R 1260   1.092   5.058   7.673  2.4286  0.0591 -2.9169
   10SAPS  H13S 1261   1.128   5.130   7.833  0.9768  1.0309  1.1354
   10SAPS  C214 1262   1.196   4.923   7.808  0.4116 -0.4991 -0.0015
   10SAPS  H14R 1263   1.267   4.918   7.892 -0.0536 -0.1974  0.4173
   10SAPS  C215 1264   1.134   4.804   7.778 -1.0521 -0.1792  0.5728
   10SAPS  H15R 1265   1.166   4.716   7.836 -0.7158  1.2747  2.6827
   10SAPS  C216 1266   1.016   4.788   7.678  0.4812  0.0021  0.8158
   10SAPS  H16R 1267   0.989   4.887   7.636 -0.2172  0.9022  3.2289
   10SAPS  H16S 1268   0.927   4.748   7.732 -0.3697  1.9629  0.9405
   10SAPS  C217 1269   1.041   4.696   7.547 -0.2581 -0.3315 -0.3069
   10SAPS  H17R 1270   0.945   4.675   7.495  0.5163 -4.1412 -0.4321
   10SAPS  H17S 1271   1.091   4.602   7.576  1.0930 -0.5671 -3.0382
   10SAPS  C218 1272   1.132   4.776   7.449  0.6351 -0.2587 -0.7242
   10SAPS  H18R 1273   1.230   4.796   7.498  0.6292 -0.1276 -0.7655
   10SAPS  H18S 1274   1.088   4.873   7.418 -2.3502 -0.8254  1.3654
   10SAPS  C219 1275   1.175   4.706   7.318 -0.3378  0.1265 -0.1493
   10SAPS  H19R 1276   1.265   4.759   7.279  1.5467 -3.3853 -0.9136
   10SAPS  H19S 1277   1.097   4.705   7.239  1.0683 -0.5681 -1.5839
   10SAPS  C220 1278   1.237   4.568   7.331 -0.0869 -0.8978  0.0249
   10SAPS  H20R 1279   1.303   4.539   7.246  0.0321 -2.4780  0.6274
   10SAPS  H20S 1280   1.149   4.500   7.329 -2.8299  2.3443 -2.2345
   10SAPS  H20T 1281   1.295   4.544   7.422 -0.8889 -4.2351 -0.2163
   10SAPS   C33 1282   2.022   4.693   6.994  0.8549 -0.2835  0.1246
   10SAPS   H3X 1283   1.919   4.694   6.951  1.2566  0.6349 -0.8590
   10SAPS   H3Y 1284   2.011   4.650   7.096 -0.0838  1.5545  0.8385
   10SAPS   C34 1285   2.112   4.593   6.910 -0.4014 -0.6220 -0.7907
   10SAPS   H4X 1286   2.215   4.622   6.941  0.2976 -0.9416 -2.7249
   10SAPS   H4Y 1287   2.111   4.606   6.800  0.9962 -0.7676 -0.8484
   10SAPS   C35 1288   2.097   4.441   6.947  0.2157  0.4248 -0.8630
   10SAPS   H5X 1289   2.166   4.379   6.886  0.7658  0.1204  0.0583
   10SAPS   H5Y 1290   1.989   4.420   6.929 -0.2819 -0.3242  2.4490
   10SAPS   C36 1291   2.127   4.410   7.091 -0.4837 -0.2200  0.2968
   10SAPS   H6X 1292   2.056   4.466   7.156 -0.7175  0.3666 -0.4446
   10SAPS   H6Y 1293   2.215   4.466   7.132 -1.8282  0.4027  2.4996
   10SAPS   C37 1294   2.132   4.263   7.121  0.0567  0.2887  0.0226
   10SAPS   H7X 1295   2.226   4.216   7.087  0.3417  1.9709 -1.7632
   10SAPS   H7Y 1296   2.049   4.216   7.063  1.3077  1.0589 -2.5799
   10SAPS   C38 1297   2.119   4.226   7.271  0.3710 -0.0544 -0.5598
   10SAPS   H8X 1298   2.019   4.260   7.305  0.5406 -0.2702  0.1672
   10SAPS   H8Y 1299   2.192   4.298   7.314 -1.3273  1.4301 -0.0334
   10SAPS   C39 1300   2.154   4.078   7.292 -0.1151  0.4005  0.0361
   10SAPS   H9X 1301   2.263   4.070   7.275  0.0212  0.5176  0.8143
   10SAPS   H9Y 1302   2.097   4.020   7.216  0.5068 -0.6044  0.3199
   10SAPS  C310 1303   2.128   4.023   7.436 -0.6832 -0.0702  0.6014
   10SAPS  H10X 1304   2.179   3.925   7.442  0.8965  0.6976  0.3073
   10SAPS  H10Y 1305   2.020   4.003   7.452 -1.1226  1.5355 -0.0763
   10SAPS  C311 1306   2.181   4.110   7.551  0.0662 -0.2680 -0.0207
   10SAPS  H11X 1307   2.148   4.214   7.526 -2.3443 -0.8841  0.3696
   10SAPS  H11Y 1308   2.292   4.110   7.563  0.0111 -1.4379  0.6277
   10SAPS  C312 1309   2.108   4.084   7.684  0.2492 -0.8206 -0.2483
   10SAPS  H12X 1310   2.112   3.976   7.708 -1.3277 -0.9465 -0.4359
   10SAPS  H12Y 1311   2.000   4.111   7.675  0.4829  0.5771  0.7828
   10SAPS  C313 1312   2.169   4.159   7.799  0.5203 -0.1074  0.8346
   10SAPS  H13X 1313   2.186   4.264   7.767  0.0484  0.3266  1.9493
   10SAPS  H13Y 1314   2.265   4.115   7.834  0.9391  1.8935  2.3459
   10SAPS  C314 1315   2.083   4.167   7.930  0.5633 -0.2070  0.3722
   10SAPS  H14X 1316   2.064   4.073   7.987  1.8396 -0.3006  0.6829
   10SAPS  H14Y 1317   1.985   4.211   7.904 -1.2819 -3.9774  0.1897
   10SAPS  C315 1318   2.156   4.255   8.030 -0.3671 -0.2411 -0.9487
   10SAPS  H15X 1319   2.186   4.351   7.985  0.1328 -0.8367 -1.9126
   10SAPS  H15Y 1320   2.249   4.210   8.071 -0.3383  0.4519 -0.2435
   10SAPS  C316 1321   2.062   4.300   8.142 -0.8005 -1.2808 -0.5437
   10SAPS  H16X 1322   1.960   4.327   8.107  0.3529  2.6367 -1.4275
   10SAPS  H16Y 1323   2.101   4.393   8.190  1.4938 -1.7262 -1.4203
   10SAPS  C317 1324   2.057   4.195   8.250 -0.7093 -0.2863  0.6874
   10SAPS  H17X 1325   2.163   4.178   8.281 -0.0524 -0.0936 -1.2898
   10SAPS  H17Y 1326   2.027   4.099   8.204 -0.9129 -1.6747  3.5138
   10SAPS  C318 1327   1.972   4.236   8.373  0.5597  0.2005  0.2217
   10SAPS  H18X 1328   1.953   4.144   8.433 -0.4065 -0.2732 -0.8016
   10SAPS  H18Y 1329   1.877   4.280   8.336  0.8465  0.5399 -0.1172
   10SAPS  H18Z 1330   2.029   4.312   8.431  0.5257 -0.1308  0.7025
   11SAPS     N 1331   2.100   4.710   5.667 -0.1886  0.1676 -0.2247
   11SAPS   HN1 1332   2.096   4.801   5.717 -3.1086 -1.1066  2.1955
   11SAPS   HN2 1333   2.194   4.695   5.626 -0.1967  1.0615 -0.6091
   11SAPS   HN3 1334   2.035   4.712   5.585 -1.8081  3.5817  0.9428
   11SAPS   C12 1335   2.068   4.602   5.766  0.2810 -0.9313 -0.4992
   11SAPS  H12A 1336   1.996   4.639   5.838  0.5409  1.7499 -1.4946
   11SAPS   C13 1337   2.005   4.469   5.713  0.0195 -0.8081 -0.4717
   11SAPS  O13A 1338   1.969   4.466   5.592 -0.3770 -0.6535  0.1132
   11SAPS  O13B 1339   1.968   4.391   5.801  0.6715  0.3136 -0.2563
   11SAPS   C11 1340   2.204   4.568   5.834  0.9830  0.0883 -0.0778
   11SAPS  H11A 1341   2.260   4.514   5.755  3.1610  1.0331  0.7393
   11SAPS  H11B 1342   2.178   4.501   5.918 -1.3409 -1.1669 -1.6730
   11SAPS     P 1343   2.423   4.660   5.937  0.0255  0.3393  0.0019
   11SAPS   O13 1344   2.522   4.711   5.843 -0.0078 -0.0690 -0.0761
   11SAPS   O14 1345   2.426   4.723   6.069  0.2545 -0.4518 -1.0142
   11SAPS   O12 1346   2.283   4.681   5.876  0.5220  0.7255 -0.3322
   11SAPS   O11 1347   2.432   4.500   5.950 -0.2682 -0.6479 -0.1007
   11SAPS    C1 1348   2.553   4.437   5.984 -0.1203 -0.1006  0.4341
   11SAPS    HA 1349   2.576   4.377   5.893 -0.7321 -0.3331  0.4312
   11SAPS    HB 1350   2.640   4.503   6.005  0.9270 -1.2463 -0.1669
   11SAPS    C2 1351   2.542   4.364   6.117  0.4708 -0.2963 -0.1186
   11SAPS    HS 1352   2.449   4.304   6.103  0.8875 -0.7639 -1.0192
   11SAPS   O21 1353   2.544   4.462   6.225  0.0810  0.3546 -0.2101
   11SAPS   C21 1354   2.446   4.450   6.313 -0.0633 -0.1113  0.2911
   11SAPS   O22 1355   2.352   4.374   6.309 -0.3194 -0.2183  0.1761
   11SAPS   C22 1356   2.473   4.567   6.415  0.0183 -0.0850 -0.4635
   11SAPS   H2R 1357   2.582   4.565   6.436  0.0261  0.7929 -0.3583
   11SAPS   H2S 1358   2.445   4.657   6.357 -1.8361 -0.5990 -0.4348
   11SAPS    C3 1359   2.660   4.262   6.144 -0.4940 -0.5150  0.0894
   11SAPS    HX 1360   2.758   4.314   6.136 -0.0472 -1.2365  0.7495
   11SAPS    HY 1361   2.669   4.195   6.056  4.2204 -0.1678  0.0560
   11SAPS   O31 1362   2.653   4.186   6.271 -0.8834  0.2674  0.0614
   11SAPS   C31 1363   2.739   4.228   6.366 -0.3395 -0.1686  0.9406
   11SAPS   O32 1364   2.797   4.335   6.358 -0.0267  0.3119 -0.0708
   11SAPS   C32 1365   2.735   4.128   6.479  0.1896 -0.2173 -0.8451
   11SAPS   H2X 1366   2.781   4.032   6.447  2.5757  0.0919  1.3230
   11SAPS   H2Y 1367   2.631   4.121   6.516 -0.0109  2.7186 -0.6527
   11SAPS   C23 1368   2.378   4.561   6.541 -0.2037  0.0604 -0.2956
   11SAPS   H3R 1369   2.273   4.540   6.512 -0.3869 -0.1441  0.4948
   11SAPS   H3S 1370   2.381   4.660   6.591  2.3295 -1.2095  2.3534
   11SAPS   C24 1371   2.405   4.443   6.638 -0.1107  0.2042 -0.5182
   11SAPS   H4R 1372   2.416   4.346   6.585 -0.3988 -0.2646  0.2614
   11SAPS   H4S 1373   2.324   4.423   6.712  0.4947 -3.2546 -0.6067
   11SAPS   C25 1374   2.529   4.480   6.710 -0.2640 -0.3181 -0.6088
   11SAPS   H5R 1375   2.593   4.534   6.639 -3.8555  2.0502 -2.4081
   11SAPS   C26 1376   2.567   4.477   6.837  0.5242 -0.1390 -0.2444
   11SAPS   H6R 1377   2.667   4.509   6.870  1.4143 -2.6386 -0.3170
   11SAPS   C27 1378   2.487   4.441   6.956  0.3153  0.2872 -0.0668
   11SAPS   H7R 1379   2.376   4.438   6.946  0.4562 -0.3674 -1.8606
   11SAPS   H7S 1380   2.501   4.512   7.041  0.7732  1.1195 -0.8250
   11SAPS   C28 1381   2.520   4.293   6.979  0.4209 -0.5091 -0.0995
   11SAPS   H8R 1382   2.488   4.226   6.898 -2.7830  0.5341  0.1456
   11SAPS   C29 1383   2.569   4.237   7.088  0.1423 -0.5597 -0.2753
   11SAPS   H9R 1384   2.577   4.127   7.083 -0.5727 -0.6110 -0.4004
   11SAPS  C210 1385   2.616   4.310   7.212 -0.1858 -0.3569  0.0235
   11SAPS  H10R 1386   2.644   4.414   7.187 -0.8142  0.2810  1.7925
   11SAPS  H10S 1387   2.711   4.263   7.246  0.5258  0.7136 -0.4281
   11SAPS  C211 1388   2.506   4.295   7.313 -0.4785 -0.9127  0.4193
   11SAPS  H11R 1389   2.409   4.330   7.274  0.8133  2.7088  0.0105
   11SAPS  C212 1390   2.524   4.250   7.439  0.2966 -0.4360  0.2393
   11SAPS  H12R 1391   2.441   4.261   7.510 -0.5067 -0.2206 -0.7037
   11SAPS  C213 1392   2.653   4.193   7.489  0.0178  0.2616  0.0779
   11SAPS  H13R 1393   2.727   4.270   7.519  2.0416 -0.5694 -2.3556
   11SAPS  H13S 1394   2.698   4.128   7.410  0.8003  1.0821 -0.1716
   11SAPS  C214 1395   2.632   4.090   7.601 -0.0040  0.0471  0.2850
   11SAPS  H14R 1396   2.581   3.998   7.569  1.7054 -0.5579 -0.7996
   11SAPS  C215 1397   2.667   4.086   7.730  0.2394 -0.5897  0.0769
   11SAPS  H15R 1398   2.658   3.990   7.782 -1.4794 -0.4923  0.0359
   11SAPS  C216 1399   2.739   4.197   7.808  0.8049 -0.0367 -0.3039
   11SAPS  H16R 1400   2.768   4.283   7.743  1.1807  0.8260  0.9737
   11SAPS  H16S 1401   2.821   4.144   7.859  1.1780  0.6154 -0.2100
   11SAPS  C217 1402   2.644   4.243   7.918 -0.1671  0.4003 -0.4206
   11SAPS  H17R 1403   2.703   4.287   8.001 -0.5156  0.3606 -0.1481
   11SAPS  H17S 1404   2.602   4.159   7.977  0.8278  0.7350  0.8171
   11SAPS  C218 1405   2.547   4.357   7.881 -0.1772 -0.4576 -0.5591
   11SAPS  H18R 1406   2.468   4.311   7.817 -1.9337 -1.3946  2.1127
   11SAPS  H18S 1407   2.598   4.436   7.822 -0.0166  0.3701  0.6432
   11SAPS  C219 1408   2.471   4.407   8.006  0.3252  0.0282  0.2911
   11SAPS  H19R 1409   2.433   4.320   8.064 -0.7341  0.7382  0.6829
   11SAPS  H19S 1410   2.385   4.458   7.958 -0.8729 -2.0341  0.1570
   11SAPS  C220 1411   2.550   4.499   8.103  0.0127  0.1924  0.3236
   11SAPS  H20R 1412   2.584   4.587   8.045  0.0364 -0.4302 -0.6372
   11SAPS  H20S 1413   2.638   4.445   8.145 -0.1266  0.0964  0.4944
   11SAPS  H20T 1414   2.488   4.527   8.191 -2.3425 -0.6278 -0.9784
   11SAPS   C33 1415   2.821   4.167   6.607 -0.1232  0.5973 -0.0750
   11SAPS   H3X 1416   2.793   4.271   6.633  0.2675  1.0637 -1.4547
   11SAPS   H3Y 1417   2.928   4.163   6.581  0.1769 -1.0461  1.1790
   11SAPS   C34 1418   2.786   4.059   6.717  1.1409  0.3983  0.5382
   11SAPS   H4X 1419   2.777   3.966   6.657 -1.9517  0.0440  1.3683
   11SAPS   H4Y 1420   2.684   4.080   6.757  0.7122  0.6037 -0.6262
   11SAPS   C35 1421   2.875   4.055   6.837  0.1666 -0.8672 -0.4052
   11SAPS   H5X 1422   2.908   4.157   6.866  1.6358 -1.4330 -0.0056
   11SAPS   H5Y 1423   2.972   4.011   6.807  1.3437  1.0108  0.4501
   11SAPS   C36 1424   2.809   3.984   6.956  0.7059 -0.4181 -0.5107
   11SAPS   H6X 1425   2.807   3.874   6.942 -0.4620 -0.2283 -2.0398
   11SAPS   H6Y 1426   2.702   4.015   6.955  1.1073  1.1389  0.5304
   11SAPS   C37 1427   2.872   4.014   7.098  0.0063 -0.1056 -0.4176
   11SAPS   H7X 1428   2.833   4.113   7.128 -0.6549 -1.1013  2.2607
   11SAPS   H7Y 1429   2.981   4.009   7.077 -0.4280  1.1996 -3.6587
   11SAPS   C38 1430   2.821   3.922   7.207 -0.5228  0.0621  0.6214
   11SAPS   H8X 1431   2.815   3.822   7.158  1.4601  1.5085 -2.9118
   11SAPS   H8Y 1432   2.719   3.951   7.238 -1.2218 -0.2817 -1.2675
   11SAPS   C39 1433   2.930   3.906   7.320  0.0694  0.1312  0.7465
   11SAPS   H9X 1434   2.967   4.007   7.348  2.6204  0.2942 -2.5128
   11SAPS   H9Y 1435   3.020   3.854   7.279 -0.0124 -2.0432  3.0455
   11SAPS  C310 1436   2.881   3.840   7.448  0.2676  0.2165 -0.2348
   11SAPS  H10X 1437   2.842   3.737   7.433 -1.0612  0.7065 -0.1995
   11SAPS  H10Y 1438   2.797   3.899   7.489  0.3992  0.0577  0.2698
   11SAPS  C311 1439   2.991   3.838   7.551 -0.6686 -0.8036  0.9492
   11SAPS  H11X 1440   3.027   3.943   7.557 -0.1679 -0.8303 -0.9951
   11SAPS  H11Y 1441   3.079   3.782   7.514 -0.3591 -1.6399  2.8039
   11SAPS  C312 1442   2.930   3.792   7.682 -0.0785 -0.0766  0.0433
   11SAPS  H12X 1443   2.910   3.685   7.660 -2.7601  0.8668 -2.8762
   11SAPS  H12Y 1444   2.829   3.838   7.693  0.2688  0.3233  1.8112
   11SAPS  C313 1445   2.992   3.815   7.821 -0.4558 -0.6995  0.5359
   11SAPS  H13X 1446   3.003   3.924   7.842 -1.9708 -0.2846 -0.6555
   11SAPS  H13Y 1447   3.094   3.773   7.811  0.9554  2.8216 -1.7060
   11SAPS  C314 1448   2.905   3.750   7.937 -0.2626  0.2017 -0.0107
   11SAPS  H14X 1449   2.896   3.641   7.919 -1.2100  0.2864 -0.1057
   11SAPS  H14Y 1450   2.799   3.785   7.933 -0.5365 -0.1884  2.4329
   11SAPS  C315 1451   2.943   3.788   8.081 -0.6619  0.0462 -0.2385
   11SAPS  H15X 1452   2.878   3.740   8.157 -2.8238  0.5226 -1.7159
   11SAPS  H15Y 1453   2.941   3.897   8.101 -0.8407 -0.2125  1.3049
   11SAPS  C316 1454   3.089   3.746   8.118 -0.3504  0.1801 -0.0563
   11SAPS  H16X 1455   3.086   3.757   8.229 -3.5934 -1.0568  0.0798
   11SAPS  H16Y 1456   3.171   3.807   8.076 -0.4849 -1.1977 -2.5244
   11SAPS  C317 1457   3.123   3.592   8.097 -0.0594 -0.6094 -0.2116
   11SAPS  H17X 1458   3.234   3.580   8.094  0.1140  0.6839  0.4200
   11SAPS  H17Y 1459   3.098   3.556   7.995  0.6387  0.4173 -0.7549
   11SAPS  C318 1460   3.060   3.505   8.208  0.1479 -0.1679  0.2908
   11SAPS  H18X 1461   2.951   3.502   8.192 -0.2576  0.3168  2.5499
   11SAPS  H18Y 1462   3.089   3.543   8.309 -0.1227 -3.9038  1.9668
   11SAPS  H18Z 1463   3.105   3.403   8.198  2.0739  0.5891  0.6864
   12SAPS     N 1464   2.101   0.401   6.057 -0.3558  0.1817 -0.5801
   12SAPS   HN1 1465   2.011   0.446   6.029 -1.6181  0.1923  2.9839
   12SAPS   HN2 1466   2.132   0.466   6.133 -1.2472  0.6725 -0.6217
   12SAPS   HN3 1467   2.169   0.390   5.979 -1.3239  2.0779 -1.7595
   12SAPS   C12 1468   2.097   0.272   6.131 -0.1026 -0.6959 -0.7032
   12SAPS  H12A 1469   2.047   0.201   6.067  1.6496 -1.5264 -1.2333
   12SAPS   C13 1470   2.229   0.207   6.176  0.0691 -0.7005  0.1996
   12SAPS  O13A 1471   2.340   0.263   6.154  0.0853 -0.1202 -0.0178
   12SAPS  O13B 1472   2.224   0.102   6.248  0.3644  0.0888  0.2489
   12SAPS   C11 1473   2.012   0.286   6.260  0.1306 -0.1101  0.1422
   12SAPS  H11A 1474   2.064   0.331   6.347  1.1109 -1.7618  0.4370
   12SAPS  H11B 1475   1.999   0.184   6.300 -1.3207  0.5904  1.5918
   12SAPS     P 1476   1.754   0.271   6.227 -0.0162  0.2066 -0.2039
   12SAPS   O13 1477   1.636   0.354   6.186 -0.0051  0.1148 -0.0899
   12SAPS   O14 1478   1.782   0.151   6.145 -0.1961  0.2636 -0.0902
   12SAPS   O12 1479   1.891   0.358   6.235 -0.3951  0.5897 -0.9179
   12SAPS   O11 1480   1.738   0.224   6.376  0.2191 -0.1026  0.8002
   12SAPS    C1 1481   1.718   0.313   6.487 -0.2704  0.2389  0.1487
   12SAPS    HA 1482   1.796   0.392   6.490 -0.0849  0.0937 -0.5865
   12SAPS    HB 1483   1.621   0.365   6.474  0.6884  1.9968 -0.3109
   12SAPS    C2 1484   1.690   0.234   6.624 -1.0260 -0.3549 -0.4974
   12SAPS    HS 1485   1.673   0.301   6.711 -0.2487 -0.3530 -0.3429
   12SAPS   O21 1486   1.798   0.143   6.656  0.0803 -0.4527  0.0150
   12SAPS   C21 1487   1.915   0.199   6.683 -0.2152 -1.0538 -0.4368
   12SAPS   O22 1488   1.936   0.321   6.693  0.2222  0.5469 -0.2784
   12SAPS   C22 1489   2.020   0.090   6.701  0.2227 -0.1595 -0.4698
   12SAPS   H2R 1490   2.051   0.065   6.597  0.1590  0.8510 -0.7405
   12SAPS   H2S 1491   2.098   0.130   6.769 -2.2557  0.7328  2.0251
   12SAPS    C3 1492   1.552   0.155   6.610  0.3030  0.0786 -0.2892
   12SAPS    HX 1493   1.557   0.096   6.517 -2.0027 -0.5239 -0.0985
   12SAPS    HY 1494   1.477   0.237   6.605 -0.4805 -0.4785  1.4183
   12SAPS   O31 1495   1.525   0.069   6.721  0.2729 -0.4802  0.3404
   12SAPS   C31 1496   1.557  -0.059   6.708  0.0559  0.3469  0.2959
   12SAPS   O32 1497   1.609  -0.106   6.606  0.1187  0.4183  0.1772
   12SAPS   C32 1498   1.515  -0.143   6.833  0.0789 -0.4227  0.5620
   12SAPS   H2X 1499   1.407  -0.167   6.828  0.3168 -1.3461 -0.9435
   12SAPS   H2Y 1500   1.540  -0.087   6.926 -1.4359 -1.1933  1.4640
   12SAPS   C23 1501   1.967  -0.041   6.762  0.0755 -0.4016 -0.2589
   12SAPS   H3R 1502   1.922  -0.096   6.677  1.1323 -3.1438  0.8291
   12SAPS   H3S 1503   1.912  -0.009   6.854  1.3745 -1.6650  1.0158
   12SAPS   C24 1504   2.080  -0.134   6.801  0.3001  0.0229  0.4558
   12SAPS   H4R 1505   2.167  -0.089   6.853  0.8103 -1.8191  1.3009
   12SAPS   H4S 1506   2.126  -0.165   6.704  0.7103 -0.1854  0.7173
   12SAPS   C25 1507   2.028  -0.256   6.872  0.2591 -0.5438 -0.5161
   12SAPS   H5R 1508   2.004  -0.344   6.809  0.6916 -0.2769 -1.0637
   12SAPS   C26 1509   1.988  -0.262   7.000 -0.1280  0.2660  0.4128
   12SAPS   H6R 1510   1.945  -0.357   7.036 -1.6452  0.5653 -0.5001
   12SAPS   C27 1511   1.986  -0.150   7.104 -0.0936 -0.8862 -0.6143
   12SAPS   H7R 1512   1.993  -0.048   7.060  0.8804 -0.3684  0.6677
   12SAPS   H7S 1513   2.080  -0.152   7.163 -1.3819 -0.0579  1.5994
   12SAPS   C28 1514   1.871  -0.151   7.195  0.4182 -0.2272 -0.8848
   12SAPS   H8R 1515   1.795  -0.072   7.180  0.5040 -0.1652 -0.9934
   12SAPS   C29 1516   1.858  -0.235   7.298 -0.1875  0.0982 -0.3555
   12SAPS   H9R 1517   1.769  -0.229   7.362 -0.0244  2.7050 -0.2655
   12SAPS  C210 1518   1.963  -0.328   7.355  0.2607  0.2995  0.2843
   12SAPS  H10R 1519   2.032  -0.353   7.271 -0.8195 -2.2096  0.0568
   12SAPS  H10S 1520   1.906  -0.415   7.394 -0.8242  1.4787  1.4501
   12SAPS  C211 1521   2.029  -0.257   7.472 -0.3036  0.2106 -0.2046
   12SAPS  H11R 1522   2.075  -0.157   7.460  1.8812 -0.7046  0.1532
   12SAPS  C212 1523   2.031  -0.306   7.601 -0.7752 -0.0581 -0.6562
   12SAPS  H12R 1524   2.099  -0.250   7.667  1.1525 -1.1014 -1.6713
   12SAPS  C213 1525   1.973  -0.440   7.643 -0.0660  0.1514 -0.4558
   12SAPS  H13R 1526   2.046  -0.518   7.614 -1.7193 -2.8112  2.5878
   12SAPS  H13S 1527   1.877  -0.465   7.593 -0.3297  0.5424 -0.1506
   12SAPS  C214 1528   1.952  -0.443   7.793  0.3610  0.0111  0.3110
   12SAPS  H14R 1529   1.877  -0.367   7.820  0.3316 -0.1903  0.8132
   12SAPS  C215 1530   1.993  -0.523   7.891  0.1814 -0.1212 -0.2065
   12SAPS  H15R 1531   1.971  -0.500   7.996  0.3562 -3.7918  0.7657
   12SAPS  C216 1532   2.079  -0.648   7.882  0.2288  0.9139 -0.2118
   12SAPS  H16R 1533   2.075  -0.693   7.780  0.3119 -0.0408  0.2029
   12SAPS  H16S 1534   2.038  -0.724   7.951 -2.9126  3.2933  0.7868
   12SAPS  C217 1535   2.219  -0.629   7.926  0.5840  0.0936 -1.4049
   12SAPS  H17R 1536   2.254  -0.734   7.915 -0.4809 -0.4288 -0.1308
   12SAPS  H17S 1537   2.238  -0.596   8.031  2.1233  1.7061 -2.1457
   12SAPS  C218 1538   2.301  -0.543   7.828 -0.8750  0.3509  0.3862
   12SAPS  H18R 1539   2.274  -0.435   7.835 -0.8151  0.3876  0.0839
   12SAPS  H18S 1540   2.277  -0.569   7.723 -1.8050 -0.6669  0.8425
   12SAPS  C219 1541   2.456  -0.569   7.836  0.0212 -0.3489 -0.0832
   12SAPS  H19R 1542   2.459  -0.680   7.833 -1.5834 -0.3859 -1.5502
   12SAPS  H19S 1543   2.493  -0.528   7.933  0.1025  0.6868 -0.5359
   12SAPS  C220 1544   2.531  -0.507   7.711  0.1813 -0.4446 -0.2534
   12SAPS  H20R 1545   2.492  -0.549   7.616  0.0495  0.3677 -0.5617
   12SAPS  H20S 1546   2.640  -0.520   7.728  0.4794  1.5249 -0.4161
   12SAPS  H20T 1547   2.513  -0.398   7.718 -0.1072 -0.4824 -0.3960
   12SAPS   C33 1548   1.599  -0.289   6.843  0.3836 -0.4323 -0.6509
   12SAPS   H3X 1549   1.704  -0.260   6.818  0.6975  2.1538  2.8586
   12SAPS   H3Y 1550   1.547  -0.361   6.776  0.6130 -0.9078 -0.3202
   12SAPS   C34 1551   1.569  -0.344   6.985 -0.2134 -0.3251 -1.2054
   12SAPS   H4X 1552   1.598  -0.272   7.064  1.5972  0.1481 -2.2562
   12SAPS   H4Y 1553   1.647  -0.422   7.000  0.2321  0.2476 -0.5139
   12SAPS   C35 1554   1.435  -0.403   7.011  0.7967  0.3181 -0.2768
   12SAPS   H5X 1555   1.414  -0.481   6.935 -2.6614 -2.0145  2.6979
   12SAPS   H5Y 1556   1.348  -0.337   6.991  1.9206  1.7363 -0.6786
   12SAPS   C36 1557   1.431  -0.457   7.158  0.1634  0.1819 -0.5905
   12SAPS   H6X 1558   1.326  -0.490   7.164  0.4990 -0.5841  2.2618
   12SAPS   H6Y 1559   1.459  -0.383   7.236 -0.7081 -1.5628  1.4504
   12SAPS   C37 1560   1.527  -0.567   7.192  0.7819  0.2743 -0.6409
   12SAPS   H7X 1561   1.629  -0.527   7.210  1.2912 -0.9102 -0.7701
   12SAPS   H7Y 1562   1.523  -0.629   7.100 -1.8020 -0.2242 -0.2599
   12SAPS   C38 1563   1.489  -0.653   7.320 -0.3439 -0.2412 -1.1610
   12SAPS   H8X 1564   1.539  -0.752   7.321  1.5754  0.6841 -0.3258
   12SAPS   H8Y 1565   1.380  -0.674   7.317 -0.0337 -2.2862 -0.0846
   12SAPS   C39 1566   1.528  -0.572   7.450 -0.6360 -0.0880  0.5248
   12SAPS   H9X 1567   1.469  -0.478   7.445 -0.4453  0.0548  0.9480
   12SAPS   H9Y 1568   1.634  -0.539   7.451  0.1546 -2.4305  1.9162
   12SAPS  C310 1569   1.506  -0.642   7.589 -0.0555 -0.4252  0.6169
   12SAPS  H10X 1570   1.564  -0.736   7.600 -1.9555 -1.8055 -0.5489
   12SAPS  H10Y 1571   1.398  -0.671   7.590  0.2967 -1.9412  2.7499
   12SAPS  C311 1572   1.565  -0.559   7.707 -0.3794 -0.0913 -0.0253
   12SAPS  H11X 1573   1.518  -0.458   7.704  0.8983  0.4920 -2.3991
   12SAPS  H11Y 1574   1.674  -0.560   7.689 -0.4714 -1.9839 -0.6813
   12SAPS  C312 1575   1.525  -0.625   7.835 -0.7089 -0.3665  0.2619
   12SAPS  H12X 1576   1.583  -0.720   7.834  0.3666  0.2827  0.4784
   12SAPS  H12Y 1577   1.417  -0.650   7.827 -0.5266 -1.1885  0.2985
   12SAPS  C313 1578   1.569  -0.542   7.957  0.1309 -0.5579 -1.0125
   12SAPS  H13X 1579   1.494  -0.460   7.967  2.4708  1.7077 -0.9875
   12SAPS  H13Y 1580   1.668  -0.493   7.953  0.1905 -0.3596  1.4077
   12SAPS  C314 1581   1.564  -0.627   8.082  0.5376  0.6989 -0.2502
   12SAPS  H14X 1582   1.483  -0.701   8.064  1.4797 -0.1141 -1.3099
   12SAPS  H14Y 1583   1.548  -0.561   8.170  0.1729 -0.3743  0.5158
   12SAPS  C315 1584   1.697  -0.707   8.105 -1.1227 -0.6318  0.7355
   12SAPS  H15X 1585   1.783  -0.640   8.081 -0.1736 -2.1208 -0.1338
   12SAPS  H15Y 1586   1.697  -0.793   8.036 -1.4056 -0.7760  0.9138
   12SAPS  C316 1587   1.717  -0.746   8.252  0.2227 -0.1084 -0.2063
   12SAPS  H16X 1588   1.793  -0.828   8.251  1.7433  1.2550 -1.2563
   12SAPS  H16Y 1589   1.617  -0.785   8.280  0.3050  0.8182  1.5032
   12SAPS  C317 1590   1.755  -0.636   8.355  0.3615  0.4490  0.1100
   12SAPS  H17X 1591   1.663  -0.581   8.383  0.1836  0.2425 -0.0552
   12SAPS  H17Y 1592   1.826  -0.559   8.318 -0.0464  0.7743 -0.0070
   12SAPS  C318 1593   1.830  -0.696   8.472 -0.7114 -0.4356  0.3387
   12SAPS  H18X 1594   1.768  -0.780   8.509 -0.6322 -0.9610 -0.6884
   12SAPS  H18Y 1595   1.851  -0.622   8.552 -0.0023  1.3244 -1.3824
   12SAPS  H18Z 1596   1.928  -0.741   8.445 -0.5375  0.5376 -0.7439
   13SAPS     N 1597   1.232   4.376   6.169  0.3281 -0.1922  0.3487
   13SAPS   HN1 1598   1.276   4.313   6.239  0.3721  1.3906  1.7910
   13SAPS   HN2 1599   1.234   4.471   6.211  0.7981  1.5178 -3.1546
   13SAPS   HN3 1600   1.136   4.340   6.148  0.6342 -1.7320  1.4249
   13SAPS   C12 1601   1.326   4.392   6.058  0.4188  0.3055  0.1308
   13SAPS  H12A 1602   1.346   4.292   6.023 -0.7960 -0.6750  2.0717
   13SAPS   C13 1603   1.275   4.473   5.933  0.5843 -0.1255  0.5180
   13SAPS  O13A 1604   1.163   4.527   5.947  0.0587  0.2254  0.3954
   13SAPS  O13B 1605   1.327   4.465   5.817  0.2456 -0.3380 -0.3381
   13SAPS   C11 1606   1.458   4.465   6.113  0.3372  0.3478  0.3007
   13SAPS  H11A 1607   1.425   4.571   6.122 -1.8280 -0.1849 -0.8108
   13SAPS  H11B 1608   1.533   4.477   6.031 -0.6033  0.0120 -0.6270
   13SAPS     P 1609   1.615   4.305   6.250 -0.1119 -0.3294 -0.2724
   13SAPS   O13 1610   1.556   4.173   6.273  0.1777  0.2063 -0.2505
   13SAPS   O14 1611   1.702   4.329   6.129 -0.7237  0.2870 -0.3139
   13SAPS   O12 1612   1.509   4.419   6.239 -0.0147 -0.1163  0.1307
   13SAPS   O11 1613   1.696   4.352   6.379  0.4653 -0.6745 -0.5815
   13SAPS    C1 1614   1.837   4.355   6.410  0.1050  0.4152 -0.1620
   13SAPS    HA 1615   1.901   4.345   6.320  0.7958  2.5102  0.0428
   13SAPS    HB 1616   1.860   4.459   6.441  1.7574  0.1504 -0.4080
   13SAPS    C2 1617   1.888   4.250   6.512  0.3605  0.6208 -0.5140
   13SAPS    HS 1618   1.872   4.164   6.443 -1.6565  0.3897  0.1515
   13SAPS   O21 1619   1.788   4.245   6.614  0.0009 -0.3691  0.1369
   13SAPS   C21 1620   1.770   4.124   6.671 -0.4314 -0.0400 -0.3698
   13SAPS   O22 1621   1.822   4.021   6.634  0.4208 -0.1939 -0.3774
   13SAPS   C22 1622   1.673   4.151   6.788 -0.5843 -0.1231 -0.1189
   13SAPS   H2R 1623   1.731   4.211   6.861 -1.5808  1.1706 -0.3311
   13SAPS   H2S 1624   1.591   4.222   6.762  0.6383  1.9539  1.3560
   13SAPS    C3 1625   2.032   4.283   6.579  0.1783  0.3302 -0.2734
   13SAPS    HX 1626   2.000   4.367   6.644 -1.3143 -0.2630 -0.1875
   13SAPS    HY 1627   2.099   4.314   6.496 -1.1077  0.2119 -1.4060
   13SAPS   O31 1628   2.085   4.177   6.664 -0.3016  0.1706  0.4050
   13SAPS   C31 1629   2.149   4.084   6.592 -0.2823  0.0118  0.7395
   13SAPS   O32 1630   2.161   4.079   6.471  0.1419 -0.3356 -0.1821
   13SAPS   C32 1631   2.206   3.976   6.677 -0.9813  1.3164 -0.4461
   13SAPS   H2X 1632   2.128   3.899   6.695  0.4981  0.2773  2.0252
   13SAPS   H2Y 1633   2.222   4.023   6.777  3.3379  0.4074 -0.5231
   13SAPS   C23 1634   1.634   4.012   6.852  0.1443 -0.0696  0.4018
   13SAPS   H3R 1635   1.591   3.944   6.775 -0.3205  0.4938  0.1568
   13SAPS   H3S 1636   1.556   4.042   6.925 -0.2731  1.1617 -0.5060
   13SAPS   C24 1637   1.744   3.938   6.932  0.1722 -0.3387 -0.3362
   13SAPS   H4R 1638   1.813   3.906   6.851 -0.4356 -0.3701 -0.8578
   13SAPS   H4S 1639   1.709   3.843   6.978 -1.7299  0.4648 -0.0365
   13SAPS   C25 1640   1.818   4.016   7.034  0.9285 -0.0096 -0.4906
   13SAPS   H5R 1641   1.881   4.096   6.992 -1.4007  1.7932 -0.7902
   13SAPS   C26 1642   1.839   3.984   7.167 -0.5553 -0.3498 -0.7399
   13SAPS   H6R 1643   1.896   4.053   7.231 -2.1336  1.1136 -0.8499
   13SAPS   C27 1644   1.774   3.861   7.235 -0.3892 -0.2786  0.0432
   13SAPS   H7R 1645   1.844   3.807   7.303 -1.9509  0.0614  1.9987
   13SAPS   H7S 1646   1.763   3.784   7.156  1.0679  0.8663 -1.3546
   13SAPS   C28 1647   1.644   3.883   7.297 -0.0172 -0.6015 -0.5095
   13SAPS   H8R 1648   1.563   3.904   7.226 -0.8033  0.7452  0.7205
   13SAPS   C29 1649   1.620   3.880   7.430 -0.1943  0.0949  0.4410
   13SAPS   H9R 1650   1.518   3.900   7.465  0.1016  2.0505  0.2995
   13SAPS  C210 1651   1.713   3.859   7.547 -0.0076  0.2601  0.6458
   13SAPS  H10R 1652   1.810   3.823   7.506  1.2909  1.7341  2.2889
   13SAPS  H10S 1653   1.673   3.784   7.618  0.3811  0.4992  1.1191
   13SAPS  C211 1654   1.739   3.990   7.617 -0.2916 -0.4631  0.1314
   13SAPS  H11R 1655   1.762   4.080   7.559 -0.5213 -0.8704 -0.5974
   13SAPS  C212 1656   1.731   4.007   7.752  0.3517  0.8436  0.1013
   13SAPS  H12R 1657   1.751   4.104   7.800 -1.9581  1.7343 -0.5829
   13SAPS  C213 1658   1.702   3.906   7.858 -0.4323  0.1887  0.1811
   13SAPS  H13R 1659   1.645   3.820   7.816  1.0897 -0.5789 -0.3583
   13SAPS  H13S 1660   1.631   3.943   7.936 -2.0565 -3.3133  0.5755
   13SAPS  C214 1661   1.827   3.859   7.934 -0.0183  0.9532 -0.4296
   13SAPS  H14R 1662   1.921   3.900   7.895  1.9643 -1.6431  1.3206
   13SAPS  C215 1663   1.839   3.776   8.042 -0.2985  0.0799  0.5782
   13SAPS  H15R 1664   1.936   3.737   8.075 -0.8804 -1.8868  0.0962
   13SAPS  C216 1665   1.726   3.706   8.113  0.2881 -0.2589 -0.0555
   13SAPS  H16R 1666   1.753   3.598   8.111 -0.1253 -0.3613 -0.1134
   13SAPS  H16S 1667   1.623   3.708   8.071  0.2082  0.6357  0.1585
   13SAPS  C217 1668   1.719   3.742   8.260 -0.0416 -0.0675  0.0358
   13SAPS  H17R 1669   1.821   3.760   8.298  0.5593 -2.5359 -0.2068
   13SAPS  H17S 1670   1.688   3.651   8.316  1.0598 -0.9622 -0.7503
   13SAPS  C218 1671   1.624   3.849   8.285 -0.0264 -0.9917 -0.1121
   13SAPS  H18R 1672   1.522   3.812   8.265 -0.3013  0.4840 -1.7089
   13SAPS  H18S 1673   1.637   3.930   8.210 -2.0744  1.2904  1.8326
   13SAPS  C219 1674   1.625   3.915   8.422  0.0006  0.1715  0.4526
   13SAPS  H19R 1675   1.716   3.890   8.481 -0.5583  2.7068  2.5652
   13SAPS  H19S 1676   1.542   3.869   8.480 -0.8473  2.0247  0.7727
   13SAPS  C220 1677   1.625   4.072   8.427  0.8746 -0.6866 -0.5142
   13SAPS  H20R 1678   1.708   4.112   8.365  0.9717 -0.5279 -0.2836
   13SAPS  H20S 1679   1.642   4.121   8.525 -0.0917  1.7555 -1.4845
   13SAPS  H20T 1680   1.529   4.104   8.381  0.5576  1.8646  1.6933
   13SAPS   C33 1681   2.323   3.907   6.614 -0.1758 -0.2597  0.5379
   13SAPS   H3X 1682   2.403   3.983   6.599 -0.6479 -0.0457 -1.1334
   13SAPS   H3Y 1683   2.289   3.873   6.513 -1.7096  0.3042  0.8350
   13SAPS   C34 1684   2.376   3.793   6.710  0.2496  0.0031  0.2526
   13SAPS   H4X 1685   2.466   3.755   6.658  0.3527 -0.0202  0.4464
   13SAPS   H4Y 1686   2.308   3.705   6.705  0.6568 -0.4390  1.8218
   13SAPS   C35 1687   2.409   3.831   6.857 -0.1397 -0.4074 -0.2843
   13SAPS   H5X 1688   2.320   3.883   6.900  1.3677  0.5225  1.9250
   13SAPS   H5Y 1689   2.479   3.917   6.850 -0.0789  0.0793  3.7930
   13SAPS   C36 1690   2.457   3.714   6.950 -0.4778 -0.7156  0.2308
   13SAPS   H6X 1691   2.558   3.675   6.926  0.0537 -0.0827  1.3571
   13SAPS   H6Y 1692   2.388   3.627   6.953  0.6479 -1.6312  0.4218
   13SAPS   C37 1693   2.471   3.768   7.100 -0.2427 -0.7674 -0.0353
   13SAPS   H7X 1694   2.373   3.797   7.142  0.1443  0.4042  0.0908
   13SAPS   H7Y 1695   2.527   3.864   7.094 -1.0093 -0.0274  2.9801
   13SAPS   C38 1696   2.521   3.673   7.206 -0.0503 -0.7526  0.1680
   13SAPS   H8X 1697   2.628   3.654   7.181  0.1683  0.8116 -0.2219
   13SAPS   H8Y 1698   2.464   3.580   7.188  0.1980 -0.7843 -0.4761
   13SAPS   C39 1699   2.504   3.720   7.351 -0.8660  0.5485 -0.2670
   13SAPS   H9X 1700   2.397   3.737   7.378 -0.7665 -0.6435  1.0176
   13SAPS   H9Y 1701   2.551   3.818   7.372  0.0442 -0.3692  2.3635
   13SAPS  C310 1702   2.561   3.615   7.447 -0.9233  0.5743  0.8769
   13SAPS  H10X 1703   2.666   3.596   7.418 -0.7150  2.5281  0.1905
   13SAPS  H10Y 1704   2.503   3.523   7.425  0.3423 -0.1235  0.3845
   13SAPS  C311 1705   2.555   3.642   7.599 -0.3709 -0.0169  0.1840
   13SAPS  H11X 1706   2.620   3.731   7.617  0.5545 -0.1039 -2.3649
   13SAPS  H11Y 1707   2.585   3.564   7.672 -2.2733 -1.5101 -0.5461
   13SAPS  C312 1708   2.411   3.676   7.642  0.6489  0.1107  0.1720
   13SAPS  H12X 1709   2.343   3.602   7.595  1.3530  0.3097 -1.2282
   13SAPS  H12Y 1710   2.385   3.772   7.593  0.3452 -0.7030 -1.3311
   13SAPS  C313 1711   2.393   3.684   7.792 -0.3778 -0.5399 -0.5489
   13SAPS  H13X 1712   2.492   3.715   7.832 -1.4172  1.4623  0.5829
   13SAPS  H13Y 1713   2.366   3.594   7.852 -0.7340  0.3731  0.6884
   13SAPS  C314 1714   2.280   3.788   7.829 -0.3594  0.2928 -0.1767
   13SAPS  H14X 1715   2.191   3.739   7.784 -0.1993 -0.3432  0.1763
   13SAPS  H14Y 1716   2.300   3.886   7.781 -0.3749  0.0767 -0.6258
   13SAPS  C315 1717   2.273   3.810   7.984 -0.4610  0.0142  0.2738
   13SAPS  H15X 1718   2.296   3.712   8.031 -0.1540 -1.9168 -3.5010
   13SAPS  H15Y 1719   2.175   3.855   8.011 -0.5482  0.7771 -1.2096
   13SAPS  C316 1720   2.383   3.914   8.034 -0.6714 -0.6777 -0.0106
   13SAPS  H16X 1721   2.326   4.010   8.032 -0.5853 -0.5836  1.2608
   13SAPS  H16Y 1722   2.465   3.920   7.959 -0.7660 -1.0706 -0.1480
   13SAPS  C317 1723   2.429   3.885   8.176  0.1147 -0.7969 -0.1019
   13SAPS  H17X 1724   2.487   3.791   8.185  0.8319 -0.2303  1.5744
   13SAPS  H17Y 1725   2.338   3.882   8.241 -0.6644  0.7884 -1.0471
   13SAPS  C318 1726   2.522   3.993   8.236 -0.0182  0.4203 -0.2550
   13SAPS  H18X 1727   2.554   3.957   8.336  0.8266 -0.6155 -0.8767
   13SAPS  H18Y 1728   2.466   4.089   8.241 -2.2227 -0.7332 -1.2578
   13SAPS  H18Z 1729   2.614   4.004   8.175  1.1128 -0.4304  1.2137
   14SAPS     N 1730   0.559   1.100   5.589 -0.0241 -0.1245 -0.4481
   14SAPS   HN1 1731   0.544   1.084   5.488  1.8948 -0.2453 -0.7544
   14SAPS   HN2 1732   0.578   1.202   5.590  0.0281 -0.1287 -0.7916
   14SAPS   HN3 1733   0.650   1.051   5.603  1.2203  1.1389 -3.3167
   14SAPS   C12 1734   0.444   1.060   5.676  0.3178  0.1049 -0.3508
   14SAPS  H12A 1735   0.448   1.111   5.771 -0.6721 -1.5076  0.6211
   14SAPS   C13 1736   0.303   1.097   5.621  0.0396 -0.3008 -0.1565
   14SAPS  O13A 1737   0.297   1.159   5.511 -0.2758  0.9188 -0.6970
   14SAPS  O13B 1738   0.202   1.068   5.694  0.5216 -0.2450 -0.1164
   14SAPS   C11 1739   0.447   0.908   5.719 -0.4255  0.0100 -0.3741
   14SAPS  H11A 1740   0.454   0.831   5.638  0.6238 -1.6915  1.2512
   14SAPS  H11B 1741   0.349   0.881   5.765  0.6435 -1.5089  1.1211
   14SAPS     P 1742   0.538   0.763   5.904  0.0419  0.0983  0.0787
   14SAPS   O13 1743   0.477   0.650   5.834 -0.8147  0.3417  0.1415
   14SAPS   O14 1744   0.673   0.736   5.964 -0.6490 -0.3792 -0.1903
   14SAPS   O12 1745   0.554   0.892   5.814 -0.4465  0.1120  1.0091
   14SAPS   O11 1746   0.430   0.801   6.011 -0.7007  0.2021  0.2549
   14SAPS    C1 1747   0.427   0.926   6.075  0.1692 -0.3960  0.0080
   14SAPS    HA 1748   0.507   0.996   6.044  1.3668 -1.6103  0.2801
   14SAPS    HB 1749   0.327   0.973   6.058 -1.5108 -3.2327  1.3756
   14SAPS    C2 1750   0.444   0.918   6.225 -0.0007 -0.0946 -0.9723
   14SAPS    HS 1751   0.548   0.879   6.230 -0.4324 -1.6512 -2.7262
   14SAPS   O21 1752   0.348   0.833   6.286  0.0894  0.4067 -0.3822
   14SAPS   C21 1753   0.408   0.762   6.388 -0.4700 -0.1983  0.4507
   14SAPS   O22 1754   0.514   0.785   6.434  0.3990  0.0066  0.0470
   14SAPS   C22 1755   0.318   0.648   6.419 -0.7588 -0.2354  0.1166
   14SAPS   H2R 1756   0.213   0.686   6.420 -0.7135 -0.0567 -0.8654
   14SAPS   H2S 1757   0.313   0.574   6.336  0.2793  0.7848 -0.8934
   14SAPS    C3 1758   0.443   1.063   6.290  0.4859  0.5103  0.4152
   14SAPS    HX 1759   0.341   1.106   6.296  0.5818  0.9757 -0.9299
   14SAPS    HY 1760   0.491   1.123   6.210 -2.1116  1.1305 -0.7905
   14SAPS   O31 1761   0.498   1.076   6.421 -0.5216 -0.1093  0.1771
   14SAPS   C31 1762   0.632   1.088   6.419  0.5703  0.1303  0.4218
   14SAPS   O32 1763   0.699   1.075   6.321 -0.2639 -0.6337  0.4871
   14SAPS   C32 1764   0.680   1.095   6.566 -0.0639 -0.0091  0.4011
   14SAPS   H2X 1765   0.630   1.006   6.609 -0.8968 -0.0008 -0.5137
   14SAPS   H2Y 1766   0.642   1.192   6.606  1.4337  1.2154 -0.9772
   14SAPS   C23 1767   0.360   0.572   6.549  0.2512 -0.0004  0.3357
   14SAPS   H3R 1768   0.349   0.629   6.643 -0.4735  0.6008 -0.1082
   14SAPS   H3S 1769   0.470   0.558   6.542  0.7351  3.2360  0.1898
   14SAPS   C24 1770   0.283   0.441   6.565  0.2970  0.2558 -0.3978
   14SAPS   H4R 1771   0.315   0.399   6.663  0.3027  3.1568  0.9222
   14SAPS   H4S 1772   0.321   0.360   6.499  1.5735 -0.6048  1.3295
   14SAPS   C25 1773   0.134   0.453   6.548  0.4777 -0.3211 -0.8147
   14SAPS   H5R 1774   0.090   0.439   6.448  0.1556  1.3423 -0.9460
   14SAPS   C26 1775   0.040   0.482   6.639 -0.6924 -0.2142 -0.5340
   14SAPS   H6R 1776  -0.065   0.470   6.607 -0.3902  0.5805 -1.9024
   14SAPS   C27 1777   0.078   0.521   6.787 -0.3762  0.0389 -0.2614
   14SAPS   H7R 1778   0.189   0.532   6.786  0.0740 -3.3999 -2.5759
   14SAPS   H7S 1779   0.054   0.427   6.841  2.2617 -0.1300  0.7623
   14SAPS   C28 1780  -0.008   0.623   6.860  0.6330 -0.2026  0.4240
   14SAPS   H8R 1781  -0.099   0.664   6.813  0.0664 -2.7980 -0.9268
   14SAPS   C29 1782   0.025   0.680   6.978  0.9347  0.6071  0.5203
   14SAPS   H9R 1783  -0.041   0.751   7.030 -0.4584 -0.2907  0.0417
   14SAPS  C210 1784   0.149   0.656   7.062 -0.0640  0.1857  0.3169
   14SAPS  H10R 1785   0.206   0.751   7.070  0.2918  0.0124 -0.1545
   14SAPS  H10S 1786   0.216   0.581   7.016 -1.1596 -0.1584 -0.7949
   14SAPS  C211 1787   0.118   0.621   7.208 -0.2950  0.0555  0.2762
   14SAPS  H11R 1788   0.012   0.613   7.234 -0.8377  3.0293 -0.6556
   14SAPS  C212 1789   0.196   0.594   7.309  0.4077 -0.6028  0.1740
   14SAPS  H12R 1790   0.146   0.569   7.403 -0.2158  2.4769  0.7562
   14SAPS  C213 1791   0.350   0.588   7.298 -0.5594  0.4542  0.0667
   14SAPS  H13R 1792   0.390   0.640   7.208 -1.7610  0.2415 -0.6182
   14SAPS  H13S 1793   0.386   0.483   7.300  1.9165  1.2382 -0.4513
   14SAPS  C214 1794   0.398   0.657   7.427 -0.3360  0.1386  0.1212
   14SAPS  H14R 1795   0.421   0.764   7.414 -2.1872  0.5206 -0.2752
   14SAPS  C215 1796   0.432   0.596   7.547 -0.6006 -0.1268 -0.6502
   14SAPS  H15R 1797   0.462   0.660   7.632 -1.7262 -1.4011  0.7837
   14SAPS  C216 1798   0.427   0.449   7.581 -0.2925  0.5337 -0.2854
   14SAPS  H16R 1799   0.526   0.406   7.554 -0.3672 -0.5639  1.1143
   14SAPS  H16S 1800   0.347   0.399   7.524  1.1664  0.6084 -2.5418
   14SAPS  C217 1801   0.403   0.414   7.730  0.0322 -0.8455  0.0289
   14SAPS  H17R 1802   0.367   0.309   7.723  1.2307 -1.4617  2.3305
   14SAPS  H17S 1803   0.330   0.485   7.774  0.9481 -0.4431  0.9360
   14SAPS  C218 1804   0.525   0.421   7.817  0.2096  0.0810 -0.8247
   14SAPS  H18R 1805   0.500   0.485   7.904 -3.5162 -1.5469 -0.5338
   14SAPS  H18S 1806   0.601   0.476   7.757 -0.0482 -0.0908 -1.3206
   14SAPS  C219 1807   0.588   0.292   7.864 -0.7286  0.1356  0.0815
   14SAPS  H19R 1808   0.682   0.331   7.907 -0.3889  0.2433 -0.7411
   14SAPS  H19S 1809   0.617   0.229   7.776  2.6708 -1.1593  1.9611
   14SAPS  C220 1810   0.517   0.208   7.972 -0.6409  0.2871  0.3344
   14SAPS  H20R 1811   0.496   0.261   8.068 -0.3919 -0.1964  0.6613
   14SAPS  H20S 1812   0.572   0.114   7.996  0.7474  1.4750  2.1324
   14SAPS  H20T 1813   0.419   0.182   7.927  0.4320 -0.1091 -1.8809
   14SAPS   C33 1814   0.836   1.074   6.576  0.6271 -0.2695 -0.1194
   14SAPS   H3X 1815   0.896   1.164   6.554 -1.0229  1.5109  2.1318
   14SAPS   H3Y 1816   0.865   0.993   6.505  0.7947 -0.2887 -0.0298
   14SAPS   C34 1817   0.886   1.019   6.711 -0.2978  0.2685 -0.1162
   14SAPS   H4X 1818   0.989   0.983   6.691 -1.0047 -1.3068 -1.0452
   14SAPS   H4Y 1819   0.827   0.936   6.756 -0.1537  1.0954  1.6900
   14SAPS   C35 1820   0.903   1.120   6.823 -0.0707 -0.0887  0.2219
   14SAPS   H5X 1821   0.813   1.182   6.844  1.2510  2.1854 -0.4501
   14SAPS   H5Y 1822   0.981   1.192   6.790  0.7421 -0.9212  0.2816
   14SAPS   C36 1823   0.950   1.060   6.961  0.4195  0.6927  0.5783
   14SAPS   H6X 1824   1.054   1.024   6.948  0.2142 -0.0255  0.8579
   14SAPS   H6Y 1825   0.898   0.967   6.992  0.4406  0.6351  0.4406
   14SAPS   C37 1826   0.945   1.172   7.067  0.6630 -0.1052  0.2307
   14SAPS   H7X 1827   0.836   1.189   7.080  0.8346  1.3214 -0.0232
   14SAPS   H7Y 1828   0.981   1.272   7.033 -0.2994  0.1528 -0.0904
   14SAPS   C38 1829   0.997   1.118   7.203 -0.1688 -0.3573 -0.0249
   14SAPS   H8X 1830   1.108   1.118   7.205 -0.1745 -1.4234  1.5960
   14SAPS   H8Y 1831   0.956   1.016   7.222  0.1364 -0.2801  1.0876
   14SAPS   C39 1832   0.957   1.207   7.331  0.2276 -0.0966  0.4987
   14SAPS   H9X 1833   0.846   1.204   7.342 -0.1961  1.1348 -2.6953
   14SAPS   H9Y 1834   0.979   1.314   7.312  2.0056 -0.7294 -1.3412
   14SAPS  C310 1835   1.025   1.165   7.466  0.1232  0.0301  0.0149
   14SAPS  H10X 1836   1.131   1.140   7.440  0.6383 -0.4188  2.3513
   14SAPS  H10Y 1837   0.981   1.073   7.510 -0.0913  0.1396  0.0264
   14SAPS  C311 1838   1.012   1.282   7.567  0.0353 -0.0934 -0.6768
   14SAPS  H11X 1839   0.906   1.307   7.588  0.3580  0.7829 -0.0521
   14SAPS  H11Y 1840   1.066   1.370   7.525 -0.3152 -0.1762 -1.3290
   14SAPS  C312 1841   1.051   1.260   7.713 -0.6401 -0.0723  0.1819
   14SAPS  H12X 1842   1.158   1.232   7.705 -1.0681 -1.2381 -2.5861
   14SAPS  H12Y 1843   0.981   1.177   7.739 -0.3569 -0.0415  1.0517
   14SAPS  C313 1844   1.024   1.384   7.799  0.2409 -0.4490  0.0191
   14SAPS  H13X 1845   0.931   1.436   7.767  0.2571  0.5770  1.5458
   14SAPS  H13Y 1846   1.100   1.457   7.763 -0.0655  0.3796  1.0202
   14SAPS  C314 1847   1.018   1.363   7.948  0.1878  0.3090 -1.0852
   14SAPS  H14X 1848   0.932   1.293   7.950  0.5829 -0.1754 -0.0496
   14SAPS  H14Y 1849   1.001   1.453   8.010 -2.7016 -0.2145 -0.9938
   14SAPS  C315 1850   1.145   1.293   8.010 -0.9521  0.8175  0.6292
   14SAPS  H15X 1851   1.223   1.357   7.964 -2.2435  1.5595 -0.6526
   14SAPS  H15Y 1852   1.162   1.187   7.981 -0.5743  1.0476 -0.0009
   14SAPS  C316 1853   1.166   1.300   8.167 -0.4725  0.3160  0.5778
   14SAPS  H16X 1854   1.083   1.252   8.223 -0.4170  1.6739  1.8646
   14SAPS  H16Y 1855   1.162   1.408   8.193 -0.6597  0.9267 -1.7223
   14SAPS  C317 1856   1.307   1.242   8.201 -0.5882  0.0367 -0.5753
   14SAPS  H17X 1857   1.314   1.134   8.180 -0.1342 -0.0612  0.0356
   14SAPS  H17Y 1858   1.324   1.262   8.309 -1.9657  0.8115 -0.4744
   14SAPS  C318 1859   1.422   1.304   8.123 -0.3877  0.0898 -0.6326
   14SAPS  H18X 1860   1.409   1.414   8.134 -2.1180 -0.1770  0.2909
   14SAPS  H18Y 1861   1.432   1.272   8.017  0.4346 -0.1238 -0.5003
   14SAPS  H18Z 1862   1.513   1.271   8.177 -1.4047  2.6724  3.0319
   15SAPS     N 1863   3.080   5.912   6.043 -0.5748 -0.3610  0.6136
   15SAPS   HN1 1864   3.023   5.869   5.967  0.3705  0.5076 -0.6118
   15SAPS   HN2 1865   3.157   5.850   6.077  1.4110  0.6676 -1.7462
   15SAPS   HN3 1866   3.024   5.941   6.126  1.6331  0.9255  1.7352
   15SAPS   C12 1867   3.150   6.036   5.998  1.4129  0.0092  0.1297
   15SAPS  H12A 1868   3.226   6.022   5.923  1.4707 -1.8136  0.4836
   15SAPS   C13 1869   3.050   6.135   5.942  0.6104 -0.4137 -0.3513
   15SAPS  O13A 1870   2.925   6.120   5.949  0.2259  0.7455 -0.1802
   15SAPS  O13B 1871   3.105   6.235   5.888  0.4649 -0.2379 -0.0872
   15SAPS   C11 1872   3.231   6.090   6.121  1.5424  0.6047  0.5754
   15SAPS  H11A 1873   3.159   6.141   6.189 -1.1188 -1.6988 -0.3226
   15SAPS  H11B 1874   3.297   6.170   6.083  0.5500  0.8175 -0.7825
   15SAPS     P 1875   3.459   6.013   6.226 -0.3102  0.0033 -0.0057
   15SAPS   O13 1876   3.548   5.951   6.123  0.0726  0.0663 -0.3995
   15SAPS   O14 1877   3.483   6.156   6.248 -0.0944  0.1664  0.0007
   15SAPS   O12 1878   3.310   5.989   6.185 -0.2800  0.7653 -0.4866
   15SAPS   O11 1879   3.475   5.928   6.357 -0.1283  0.4129 -0.2699
   15SAPS    C1 1880   3.401   5.811   6.391 -0.6887 -0.0631 -0.1299
   15SAPS    HA 1881   3.361   5.750   6.306 -1.6775 -0.4961  0.6223
   15SAPS    HB 1882   3.470   5.736   6.435  1.2972  1.3023 -0.8019
   15SAPS    C2 1883   3.288   5.841   6.496  0.0780 -0.0379 -0.0309
   15SAPS    HS 1884   3.238   5.939   6.480  1.7464  0.9748  0.7218
   15SAPS   O21 1885   3.354   5.835   6.624  0.0316  0.0195  0.0249
   15SAPS   C21 1886   3.346   5.941   6.694 -0.2561 -0.3429 -0.0818
   15SAPS   O22 1887   3.290   6.043   6.664  0.8063  0.0713 -0.2308
   15SAPS   C22 1888   3.419   5.921   6.823 -0.1139 -0.1126 -0.7116
   15SAPS   H2R 1889   3.409   5.814   6.851 -3.3112  0.7073  1.9187
   15SAPS   H2S 1890   3.526   5.946   6.803 -0.9404  3.8880 -0.9441
   15SAPS    C3 1891   3.176   5.736   6.485  0.1625  0.5670  0.1550
   15SAPS    HX 1892   3.227   5.642   6.513 -1.4516  0.1575  1.9247
   15SAPS    HY 1893   3.145   5.714   6.381  1.3138  2.3239 -0.6021
   15SAPS   O31 1894   3.066   5.770   6.573  0.1841  0.2838  0.0557
   15SAPS   C31 1895   2.980   5.674   6.581 -0.3699  0.2246  0.1126
   15SAPS   O32 1896   2.979   5.572   6.519 -0.2604 -0.1848  0.0912
   15SAPS   C32 1897   2.890   5.687   6.704 -0.3436  0.0927  0.0484
   15SAPS   H2X 1898   2.793   5.650   6.664 -1.0102  2.6551 -0.9051
   15SAPS   H2Y 1899   2.883   5.794   6.734 -0.0406 -0.0356  0.5727
   15SAPS   C23 1900   3.370   6.018   6.928 -0.3598 -0.3477 -0.0209
   15SAPS   H3R 1901   3.264   5.997   6.954 -0.2254  1.2049  2.0289
   15SAPS   H3S 1902   3.367   6.123   6.891 -3.0695  1.0613  3.5618
   15SAPS   C24 1903   3.448   6.009   7.063  0.2532  1.0045 -0.6113
   15SAPS   H4R 1904   3.553   6.039   7.045  0.6210  0.4633  0.5183
   15SAPS   H4S 1905   3.442   5.905   7.101  0.6577  0.8639 -0.9337
   15SAPS   C25 1906   3.392   6.099   7.171  0.3553 -0.9019  0.2720
   15SAPS   H5R 1907   3.330   6.181   7.132 -1.5111 -2.0555  0.7201
   15SAPS   C26 1908   3.392   6.086   7.302  0.2019 -0.1317  0.7986
   15SAPS   H6R 1909   3.338   6.158   7.366 -0.1943 -0.4843  0.8649
   15SAPS   C27 1910   3.457   5.984   7.390  0.6213 -0.2366 -0.0995
   15SAPS   H7R 1911   3.560   5.964   7.351 -0.0070 -0.7388 -1.5731
   15SAPS   H7S 1912   3.400   5.889   7.383 -0.6079 -0.0164  4.2100
   15SAPS   C28 1913   3.469   6.036   7.533 -0.4257 -0.1495 -0.2181
   15SAPS   H8R 1914   3.511   6.137   7.541  1.0899 -0.5823 -2.0231
   15SAPS   C29 1915   3.449   5.959   7.645  0.2977 -0.1734 -0.2001
   15SAPS   H9R 1916   3.451   6.007   7.744 -0.8370  0.5075 -0.4945
   15SAPS  C210 1917   3.420   5.807   7.657 -0.3129 -0.5606 -0.4003
   15SAPS  H10R 1918   3.451   5.766   7.558  0.5087 -0.6329 -0.1265
   15SAPS  H10S 1919   3.311   5.788   7.658 -0.2678 -1.2266 -2.3775
   15SAPS  C211 1920   3.513   5.736   7.761 -0.5008  0.4004  0.9496
   15SAPS  H11R 1921   3.621   5.754   7.754 -0.2437 -1.1469  0.4879
   15SAPS  C212 1922   3.465   5.682   7.872  0.5455 -0.1677 -0.1698
   15SAPS  H12R 1923   3.535   5.619   7.929  1.9200  1.0766 -0.4238
   15SAPS  C213 1924   3.316   5.674   7.908  0.0743 -0.3078  0.1853
   15SAPS  H13R 1925   3.265   5.624   7.823 -1.0387  2.9017 -1.1968
   15SAPS  H13S 1926   3.261   5.771   7.913  1.6104  0.6264 -0.2603
   15SAPS  C214 1927   3.292   5.601   8.034  0.0246 -0.0447  0.1079
   15SAPS  H14R 1928   3.384   5.581   8.092 -0.9828  0.4644  1.9572
   15SAPS  C215 1929   3.172   5.581   8.095  0.2160  0.2694 -0.3635
   15SAPS  H15R 1930   3.168   5.545   8.199  1.3834  0.5624 -0.1986
   15SAPS  C216 1931   3.042   5.615   8.040 -0.8374 -0.9846  0.1169
   15SAPS  H16R 1932   3.050   5.672   7.945  1.4539 -0.7052  0.4089
   15SAPS  H16S 1933   2.981   5.675   8.111 -0.2732 -0.9435  0.5784
   15SAPS  C217 1934   2.959   5.495   7.993  0.1061 -0.2108 -0.3328
   15SAPS  H17R 1935   2.921   5.454   8.089  1.5452  0.6721  0.6662
   15SAPS  H17S 1936   3.022   5.414   7.951  1.2297 -0.7813  2.2110
   15SAPS  C218 1937   2.842   5.533   7.910  0.1022 -0.5574 -0.0875
   15SAPS  H18R 1938   2.807   5.629   7.953 -3.9211 -1.9709  0.2375
   15SAPS  H18S 1939   2.754   5.466   7.913 -1.1677  1.1080  1.3984
   15SAPS  C219 1940   2.882   5.556   7.760  0.2789  0.1898  0.4880
   15SAPS  H19R 1941   2.977   5.610   7.745 -1.2568  2.8496 -0.3870
   15SAPS  H19S 1942   2.814   5.634   7.719  0.5739  0.4707  0.5263
   15SAPS  C220 1943   2.880   5.437   7.663  0.7628 -0.2894 -1.1789
   15SAPS  H20R 1944   2.930   5.354   7.719 -1.5713 -0.2870  1.1266
   15SAPS  H20S 1945   2.930   5.472   7.570 -0.9677  2.7242 -1.0981
   15SAPS  H20T 1946   2.775   5.421   7.633  0.7883 -1.0590 -0.8990
   15SAPS   C33 1947   2.942   5.599   6.814 -0.3489 -0.2347  0.1380
   15SAPS   H3X 1948   2.965   5.495   6.784  0.9335  0.2319 -0.5560
   15SAPS   H3Y 1949   2.861   5.600   6.891 -0.4928 -0.2693 -0.0118
   15SAPS   C34 1950   3.064   5.658   6.885  0.4514 -0.6223  0.9044
   15SAPS   H4X 1951   3.059   5.768   6.893 -0.0327 -0.5805  0.0931
   15SAPS   H4Y 1952   3.155   5.628   6.828 -0.0238 -3.9480  1.6735
   15SAPS   C35 1953   3.074   5.606   7.025 -0.6278 -0.4125 -0.1831
   15SAPS   H5X 1954   3.036   5.502   7.030 -1.6869 -0.0312 -0.2208
   15SAPS   H5Y 1955   3.011   5.670   7.090 -0.3609  0.4203 -0.7304
   15SAPS   C36 1956   3.217   5.598   7.087 -0.5417 -0.0008  0.1566
   15SAPS   H6X 1957   3.231   5.705   7.114  2.6634 -0.2146 -0.1887
   15SAPS   H6Y 1958   3.293   5.565   7.013 -1.0792 -2.0897  0.4661
   15SAPS   C37 1959   3.234   5.521   7.224  0.0771 -0.4252 -0.4335
   15SAPS   H7X 1960   3.342   5.537   7.248  0.6137 -1.1488 -2.1894
   15SAPS   H7Y 1961   3.239   5.413   7.198  0.9795 -1.0939  2.1852
   15SAPS   C38 1962   3.153   5.556   7.349 -0.4148  0.2969  0.0553
   15SAPS   H8X 1963   3.054   5.508   7.344 -0.2155 -0.3262  1.4506
   15SAPS   H8Y 1964   3.143   5.667   7.346  3.4401  0.7712 -1.9214
   15SAPS   C39 1965   3.218   5.530   7.487 -0.1520 -1.0590  0.1017
   15SAPS   H9X 1966   3.154   5.579   7.563  0.5432  0.0928 -0.0298
   15SAPS   H9Y 1967   3.323   5.564   7.504 -0.6519  0.4163  0.3830
   15SAPS  C310 1968   3.211   5.385   7.530 -0.3557 -0.1015  0.2871
   15SAPS  H10X 1969   3.290   5.328   7.477 -1.6086  0.8683 -2.8398
   15SAPS  H10Y 1970   3.113   5.334   7.515 -1.6255  1.8009  1.5931
   15SAPS  C311 1971   3.239   5.376   7.685  0.1378 -0.3123 -0.2197
   15SAPS  H11X 1972   3.175   5.450   7.738 -0.7423  0.1936 -1.9109
   15SAPS  H11Y 1973   3.346   5.404   7.691 -0.4295  2.6889 -2.0441
   15SAPS  C312 1974   3.232   5.224   7.731 -0.3624 -1.0978 -0.4438
   15SAPS  H12X 1975   3.308   5.169   7.671  0.7431  0.4298 -0.4940
   15SAPS  H12Y 1976   3.128   5.200   7.699 -0.0162  0.5000 -2.9659
   15SAPS  C313 1977   3.241   5.214   7.884  0.4497 -0.8619  0.3103
   15SAPS  H13X 1978   3.197   5.305   7.931  0.4457 -1.2182  1.0149
   15SAPS  H13Y 1979   3.347   5.215   7.917  0.0048 -0.2072  1.8365
   15SAPS  C314 1980   3.185   5.079   7.938  0.8880  0.4555 -0.3649
   15SAPS  H14X 1981   3.212   4.998   7.866 -1.3203 -0.2849 -0.4267
   15SAPS  H14Y 1982   3.074   5.082   7.939  0.6922 -2.0386 -2.5179
   15SAPS  C315 1983   3.244   5.046   8.079  0.5041  0.4704 -0.0300
   15SAPS  H15X 1984   3.353   5.040   8.056  0.2902  0.7019 -1.1396
   15SAPS  H15Y 1985   3.200   4.952   8.116  0.9178  1.4836  3.4009
   15SAPS  C316 1986   3.218   5.149   8.185 -0.2224 -0.1298 -0.5117
   15SAPS  H16X 1987   3.255   5.250   8.155 -2.1370  0.5713 -0.6487
   15SAPS  H16Y 1988   3.272   5.110   8.274 -0.1863  2.3407  0.6260
   15SAPS  C317 1989   3.066   5.175   8.213  0.1005  0.0866  0.6835
   15SAPS  H17X 1990   3.004   5.085   8.231 -0.3720  0.5016  1.1743
   15SAPS  H17Y 1991   3.036   5.220   8.116 -0.8019 -0.1043  0.8694
   15SAPS  C318 1992   3.027   5.273   8.327 -0.0072  0.1930 -0.5476
   15SAPS  H18X 1993   3.092   5.252   8.414  1.5713  1.2542 -1.4102
   15SAPS  H18Y 1994   2.918   5.267   8.349  0.6522 -1.1126  2.9702
   15SAPS  H18Z 1995   3.053   5.376   8.294  0.6548 -0.1394 -1.0835
   16SAPS     N 1996   4.220   2.814   6.270 -0.0085  0.0826  0.8390
   16SAPS   HN1 1997   4.267   2.906   6.277 -0.0926  0.2355 -0.3767
   16SAPS   HN2 1998   4.267   2.742   6.328 -1.5636 -0.9235  0.9177
   16SAPS   HN3 1999   4.232   2.776   6.174  1.2705  1.1996  0.5277
   16SAPS   C12 2000   4.072   2.833   6.300 -0.5687  0.0786 -0.1272
   16SAPS  H12A 2001   4.059   2.898   6.385  0.2200  2.4674 -1.7556
   16SAPS   C13 2002   3.995   2.894   6.181  0.2070 -0.1643 -0.4613
   16SAPS  O13A 2003   4.048   2.910   6.071 -0.5523  0.7619 -0.1864
   16SAPS  O13B 2004   3.875   2.941   6.196  0.0103 -0.8185 -0.0095
   16SAPS   C11 2005   4.002   2.703   6.331 -0.1057  0.1200 -0.2220
   16SAPS  H11A 2006   4.025   2.636   6.246  2.5314  0.5758  0.0255
   16SAPS  H11B 2007   3.893   2.724   6.334 -0.0063  1.0277 -1.7155
   16SAPS     P 2008   4.009   2.532   6.534 -0.1650  0.0735  0.0709
   16SAPS   O13 2009   3.961   2.420   6.450  0.6028  0.9868  0.5009
   16SAPS   O14 2010   4.107   2.504   6.642  0.0281 -0.4758  0.3591
   16SAPS   O12 2011   4.066   2.648   6.451  0.1899  0.2347  0.0234
   16SAPS   O11 2012   3.884   2.602   6.597 -0.1272  0.2668 -0.1854
   16SAPS    C1 2013   3.889   2.657   6.731 -0.2970 -0.5000 -0.7892
   16SAPS    HA 2014   3.838   2.582   6.796 -1.3858  0.6289 -0.3031
   16SAPS    HB 2015   3.992   2.679   6.764 -0.2669 -1.4962 -0.1504
   16SAPS    C2 2016   3.794   2.783   6.730 -0.1519  0.3497  0.8327
   16SAPS    HS 2017   3.702   2.750   6.676 -0.6956  2.3123  0.4960
   16SAPS   O21 2018   3.866   2.888   6.660  0.4985 -0.0920 -0.6500
   16SAPS   C21 2019   3.801   2.989   6.616 -0.6516  0.5709 -0.6023
   16SAPS   O22 2020   3.681   3.002   6.619 -0.1152 -0.9733 -0.2740
   16SAPS   C22 2021   3.893   3.086   6.547  0.2629 -0.4991 -0.3498
   16SAPS   H2R 2022   3.994   3.039   6.548  0.6751  0.3302 -1.1711
   16SAPS   H2S 2023   3.865   3.089   6.440 -0.1122 -1.4971 -0.2895
   16SAPS    C3 2024   3.757   2.826   6.871  0.3454  0.1661  0.3935
   16SAPS    HX 2025   3.715   2.929   6.871 -0.8138 -0.2474  2.7618
   16SAPS    HY 2026   3.848   2.836   6.934  1.5663 -1.2217 -1.0574
   16SAPS   O31 2027   3.680   2.730   6.952  0.0516 -0.8516 -0.3463
   16SAPS   C31 2028   3.626   2.794   7.062  0.5007 -0.0998  0.2756
   16SAPS   O32 2029   3.623   2.913   7.084 -0.4193  0.4619  0.3153
   16SAPS   C32 2030   3.574   2.690   7.160 -0.3167 -0.2305  0.1420
   16SAPS   H2X 2031   3.497   2.624   7.114 -0.6397  0.4244 -0.2679
   16SAPS   H2Y 2032   3.510   2.746   7.231  1.0460  0.8449  0.5632
   16SAPS   C23 2033   3.886   3.228   6.606 -0.2469 -0.8100 -0.3637
   16SAPS   H3R 2034   3.805   3.231   6.682  0.0112 -0.2000 -0.1007
   16SAPS   H3S 2035   3.850   3.298   6.527 -0.0423 -0.5999 -0.2715
   16SAPS   C24 2036   4.018   3.274   6.675  0.9158 -0.6068  0.6167
   16SAPS   H4R 2037   4.010   3.375   6.720  1.5846  0.4128 -1.4262
   16SAPS   H4S 2038   4.089   3.297   6.592 -0.5397  1.7676 -0.0487
   16SAPS   C25 2039   4.067   3.181   6.776  0.3154 -0.2782  0.3816
   16SAPS   H5R 2040   4.123   3.097   6.732  0.3446  0.0488 -0.2068
   16SAPS   C26 2041   4.047   3.177   6.907 -0.7077  0.3739  0.5760
   16SAPS   H6R 2042   4.083   3.093   6.968  3.1087  0.2277 -1.5447
   16SAPS   C27 2043   3.961   3.278   6.987 -0.4914 -0.4646  0.2625
   16SAPS   H7R 2044   3.896   3.344   6.925 -0.6188  0.2299  1.1207
   16SAPS   H7S 2045   4.029   3.346   7.043 -1.7383  1.2430 -0.2141
   16SAPS   C28 2046   3.872   3.187   7.064 -0.0276  0.6074 -0.0734
   16SAPS   H8R 2047   3.796   3.135   7.004  1.0809 -1.7905  0.4820
   16SAPS   C29 2048   3.880   3.135   7.187 -0.0516 -0.0284 -0.4774
   16SAPS   H9R 2049   3.801   3.070   7.228  1.1220  1.0230  4.0027
   16SAPS  C210 2050   3.990   3.165   7.290 -0.3129  0.0764 -0.4782
   16SAPS  H10R 2051   4.087   3.136   7.245 -0.2011 -1.6412  0.7653
   16SAPS  H10S 2052   3.977   3.090   7.371  0.6409  1.1812  0.7317
   16SAPS  C211 2053   4.017   3.306   7.340  0.6824 -0.3224  0.0464
   16SAPS  H11R 2054   4.045   3.384   7.268  2.1113 -0.8132  0.0351
   16SAPS  C212 2055   4.015   3.339   7.469 -1.1039 -0.6423  0.0294
   16SAPS  H12R 2056   4.047   3.437   7.508  0.4117 -2.0442  2.6449
   16SAPS  C213 2057   3.986   3.244   7.585 -0.5456  0.0322  0.0668
   16SAPS  H13R 2058   3.884   3.201   7.570 -0.5808  0.3170 -0.5363
   16SAPS  H13S 2059   3.967   3.312   7.672  0.5115  0.0424  0.3004
   16SAPS  C214 2060   4.094   3.145   7.607  0.1355  0.4104 -0.2357
   16SAPS  H14R 2061   4.082   3.062   7.536  0.7807 -0.3178  0.4913
   16SAPS  C215 2062   4.192   3.130   7.703  0.2059  0.0724  0.0533
   16SAPS  H15R 2063   4.251   3.037   7.689  1.9273  1.3278 -1.5978
   16SAPS  C216 2064   4.226   3.220   7.817  0.2735  0.1248 -0.6562
   16SAPS  H16R 2065   4.142   3.288   7.844  0.7850  0.6707 -0.4034
   16SAPS  H16S 2066   4.303   3.291   7.780  0.5061 -0.4959 -1.3832
   16SAPS  C217 2067   4.264   3.125   7.939  0.2023 -0.2808  0.4418
   16SAPS  H17R 2068   4.292   3.188   8.026 -1.2569  2.4054 -0.9137
   16SAPS  H17S 2069   4.345   3.054   7.914 -1.3776 -2.3771  0.9076
   16SAPS  C218 2070   4.144   3.047   7.995 -0.8403  0.7189 -0.2088
   16SAPS  H18R 2071   4.099   2.990   7.911  0.5605  0.1825 -0.6096
   16SAPS  H18S 2072   4.067   3.108   8.048 -1.1084  1.1250 -1.0559
   16SAPS  C219 2073   4.170   2.941   8.107  0.0129  0.0680  0.6895
   16SAPS  H19R 2074   4.238   2.865   8.064 -1.9584 -1.4643  0.1575
   16SAPS  H19S 2075   4.074   2.891   8.133  0.4178 -1.2588 -0.3078
   16SAPS  C220 2076   4.257   3.006   8.222  0.2725  0.1118  0.2042
   16SAPS  H20R 2077   4.365   3.003   8.198  0.5499 -4.3905  1.1981
   16SAPS  H20S 2078   4.238   2.942   8.311 -3.0286  0.2647 -0.2482
   16SAPS  H20T 2079   4.235   3.114   8.232  3.6226  0.9605 -0.6100
   16SAPS   C33 2080   3.694   2.617   7.233 -0.0072  0.0593  0.9364
   16SAPS   H3X 2081   3.744   2.540   7.171 -0.1235  1.3632 -0.8770
   16SAPS   H3Y 2082   3.658   2.565   7.324  0.6750 -0.1736  1.0740
   16SAPS   C34 2083   3.797   2.715   7.285 -0.8244 -0.4376 -0.0975
   16SAPS   H4X 2084   3.827   2.783   7.203 -2.9187 -1.2151 -1.5810
   16SAPS   H4Y 2085   3.884   2.655   7.321 -0.6360  0.0076  0.1965
   16SAPS   C35 2086   3.755   2.805   7.406  0.9713  0.0358  0.8144
   16SAPS   H5X 2087   3.647   2.831   7.401  0.6390 -1.4245 -0.0072
   16SAPS   H5Y 2088   3.812   2.900   7.397  0.7571  0.1188  0.3141
   16SAPS   C36 2089   3.796   2.736   7.538 -0.5171  0.3124  0.1385
   16SAPS   H6X 2090   3.900   2.698   7.525 -0.4386  0.7745 -0.6440
   16SAPS   H6Y 2091   3.728   2.650   7.554 -0.2694  0.2113  0.6491
   16SAPS   C37 2092   3.795   2.825   7.656  0.4661  0.5993  0.0198
   16SAPS   H7X 2093   3.712   2.897   7.642  1.0968  1.2917 -0.2068
   16SAPS   H7Y 2094   3.892   2.879   7.656 -0.5450  2.4801 -0.0637
   16SAPS   C38 2095   3.762   2.746   7.785  0.3726 -0.8235  0.3987
   16SAPS   H8X 2096   3.840   2.669   7.806 -0.6372 -1.2167  2.9307
   16SAPS   H8Y 2097   3.663   2.697   7.788 -1.2648  2.1578 -0.4770
   16SAPS   C39 2098   3.764   2.846   7.905 -0.4629  0.0174  0.5841
   16SAPS   H9X 2099   3.676   2.914   7.907 -0.0764  0.5337  0.4293
   16SAPS   H9Y 2100   3.855   2.910   7.895  0.2240 -0.7321  1.7931
   16SAPS  C310 2101   3.768   2.763   8.033  0.0956  0.6889 -0.3577
   16SAPS  H10X 2102   3.839   2.803   8.108 -0.0147 -1.5029  0.9915
   16SAPS  H10Y 2103   3.808   2.662   8.009  0.8277  0.3383  2.0674
   16SAPS  C311 2104   3.629   2.756   8.105 -0.2905 -0.4541  0.1870
   16SAPS  H11X 2105   3.610   2.656   8.151  1.6576 -1.1850 -0.5041
   16SAPS  H11Y 2106   3.544   2.762   8.033 -1.3083  0.5121  1.4219
   16SAPS  C312 2107   3.615   2.868   8.213  0.2238  0.3227 -0.7201
   16SAPS  H12X 2108   3.635   2.969   8.172 -0.0777  0.4983 -0.4306
   16SAPS  H12Y 2109   3.688   2.865   8.297 -1.1746  1.6109  0.5995
   16SAPS  C313 2110   3.475   2.885   8.279 -0.5699 -0.2868  0.3570
   16SAPS  H13X 2111   3.443   2.779   8.289 -1.2482 -0.2376 -0.9789
   16SAPS  H13Y 2112   3.407   2.933   8.205  0.9641 -1.9004 -2.2543
   16SAPS  C314 2113   3.486   2.959   8.413  0.0517 -0.2228 -0.6633
   16SAPS  H14X 2114   3.510   3.065   8.388  0.8574 -0.4873 -1.0661
   16SAPS  H14Y 2115   3.576   2.910   8.456  1.3452  0.6810 -2.2453
   16SAPS  C315 2116   3.363   2.951   8.505 -0.4361 -0.5859  0.5719
   16SAPS  H15X 2117   3.332   2.845   8.494  2.9034 -1.6781  0.8253
   16SAPS  H15Y 2118   3.288   3.022   8.464  1.8536  0.0908 -2.8947
   16SAPS  C316 2119   3.403   2.980   8.653 -0.4477  0.5009 -0.0877
   16SAPS  H16X 2120   3.502   2.934   8.672  0.9959  1.8224 -3.4800
   16SAPS  H16Y 2121   3.338   2.916   8.716  1.3489 -0.5156  0.8040
   16SAPS  C317 2122   3.406   3.128   8.699 -0.3695 -0.1086  0.4349
   16SAPS  H17X 2123   3.299   3.157   8.693 -0.2749  0.7749  2.3966
   16SAPS  H17Y 2124   3.467   3.178   8.621 -0.7709 -0.0113  0.1837
   16SAPS  C318 2125   3.463   3.146   8.840  0.4135 -0.3766  0.8797
   16SAPS  H18X 2126   3.401   3.082   8.906 -0.5502 -1.3766 -0.9138
   16SAPS  H18Y 2127   3.465   3.251   8.876  1.2453 -0.8580  2.3446
   16SAPS  H18Z 2128   3.569   3.113   8.842  0.7710  0.6953  0.2630
   17SAPC     N 2129   2.496   6.743  10.857 -0.5878 -0.3316 -0.1294
   17SAPC   C12 2130   2.610   6.745  10.757  0.1760  0.4150 -0.5224
   17SAPC  H12A 2131   2.662   6.651  10.764 -1.3400 -0.3670  0.7989
   17SAPC  H12B 2132   2.680   6.825  10.779  1.4402  0.1175 -3.1297
   17SAPC   C13 2133   2.386   6.661  10.803  0.2249 -0.8760  0.2203
   17SAPC  H13A 2134   2.423   6.563  10.777 -0.7288 -1.5841  1.4131
   17SAPC  H13B 2135   2.297   6.658  10.864 -0.7487 -0.0364 -1.1039
   17SAPC  H13C 2136   2.359   6.710  10.711 -0.4501  0.1862  0.9485
   17SAPC   C14 2137   2.544   6.693  10.988 -0.4434 -0.2672  0.4761
   17SAPC  H14A 2138   2.608   6.766  11.035 -0.5430 -0.1537  0.4392
   17SAPC  H14B 2139   2.463   6.677  11.057 -0.1236  1.4039  1.3030
   17SAPC  H14C 2140   2.596   6.600  10.974 -0.3333 -0.3158  1.1975
   17SAPC   C15 2141   2.448   6.883  10.884  0.9798 -1.0044 -0.0347
   17SAPC  H15A 2142   2.373   6.872  10.960 -0.7567 -1.7068 -1.7623
   17SAPC  H15B 2143   2.532   6.946  10.906  2.2782 -2.3329 -0.9556
   17SAPC  H15C 2144   2.393   6.917  10.797  1.5009  1.2647  0.4759
   17SAPC   C11 2145   2.594   6.769  10.605 -0.3392 -0.3990 -0.0904
   17SAPC  H11A 2146   2.526   6.689  10.567  0.3843 -1.4914  0.8480
   17SAPC  H11B 2147   2.696   6.769  10.563  0.7268  0.3848  2.3427
   17SAPC     P 2148   2.623   7.024  10.569  0.4397  0.2051 -0.5015
   17SAPC   O13 2149   2.536   7.140  10.595  0.4889 -0.3930 -0.3489
   17SAPC   O14 2150   2.750   7.015  10.643 -0.3201  0.2233  0.6097
   17SAPC   O12 2151   2.533   6.898  10.584 -0.0561  0.3469 -0.4254
   17SAPC   O11 2152   2.659   7.025  10.410  0.1012  0.2582  0.0553
   17SAPC    C1 2153   2.569   6.983  10.307  0.6621  0.8563 -0.1857
   17SAPC    HA 2154   2.523   6.883  10.325  1.1056  0.6923  0.0430
   17SAPC    HB 2155   2.489   7.058  10.290  1.2207  1.4148 -0.3792
   17SAPC    C2 2156   2.647   6.980  10.178  0.3875  0.2603  0.1346
   17SAPC    HS 2157   2.699   7.078  10.166 -0.1359  0.6393  0.8712
   17SAPC   O21 2158   2.560   6.972  10.064 -0.1863  0.4681  0.3317
   17SAPC   C21 2159   2.615   7.010   9.945  0.2395 -0.4515 -0.4516
   17SAPC   O22 2160   2.733   7.011   9.921  0.3349 -0.1800  0.2318
   17SAPC   C22 2161   2.503   7.031   9.844 -0.4558  0.8976 -0.0388
   17SAPC   H2R 2162   2.431   6.947   9.854 -1.7143  1.6220 -2.2317
   17SAPC   H2S 2163   2.464   7.134   9.862 -1.2192  0.4373  1.0646
   17SAPC    C3 2164   2.761   6.872  10.172  0.5373  0.1742  0.7463
   17SAPC    HX 2165   2.817   6.871  10.268  1.5928 -1.5204  0.1513
   17SAPC    HY 2166   2.831   6.903  10.091  2.2894  1.4971  2.6689
   17SAPC   O31 2167   2.700   6.745  10.146  0.1052  0.2403  0.3443
   17SAPC   C31 2168   2.791   6.650  10.135  0.6786  0.9510 -0.2778
   17SAPC   O32 2169   2.913   6.668  10.134 -0.0443 -0.5091 -0.0454
   17SAPC   C32 2170   2.728   6.515  10.112 -0.0447  0.8503 -0.1862
   17SAPC   H2X 2171   2.627   6.506  10.158  0.1705  0.8206  0.2876
   17SAPC   H2Y 2172   2.787   6.434  10.159  0.7520  2.3104  1.4452
   17SAPC   C23 2173   2.568   7.040   9.700 -1.1484 -0.7026 -0.3963
   17SAPC   H3R 2174   2.642   6.958   9.684  0.5565  1.0923 -2.3977
   17SAPC   H3S 2175   2.623   7.136   9.697 -0.9208 -0.7713  1.1062
   17SAPC   C24 2176   2.454   7.038   9.586 -1.1610  0.0864 -0.1401
   17SAPC   H4R 2177   2.378   7.110   9.626 -2.1893 -0.8006 -0.4621
   17SAPC   H4S 2178   2.403   6.940   9.583 -0.8806 -0.1087  0.9672
   17SAPC   C25 2179   2.499   7.094   9.451  0.1561  0.5004  0.0001
   17SAPC   H5R 2180   2.551   7.191   9.452  1.2223 -0.0555  0.2489
   17SAPC   C26 2181   2.491   7.022   9.336 -0.1579 -0.3969  0.4285
   17SAPC   H6R 2182   2.533   7.064   9.243 -0.0537 -0.6539  0.3566
   17SAPC   C27 2183   2.419   6.890   9.320 -0.1320  0.4105  0.0573
   17SAPC   H7R 2184   2.335   6.898   9.247  1.3934 -2.8762 -2.3849
   17SAPC   H7S 2185   2.363   6.862   9.412 -0.7983  0.8324 -0.2161
   17SAPC   C28 2186   2.518   6.780   9.292 -0.1458 -0.1536 -0.3591
   17SAPC   H8R 2187   2.615   6.788   9.343  1.1501 -1.5525 -2.4200
   17SAPC   C29 2188   2.509   6.693   9.190  0.1720 -0.0976  0.1120
   17SAPC   H9R 2189   2.587   6.616   9.181  1.3593  0.6865  2.5721
   17SAPC  C210 2190   2.406   6.688   9.081  0.6473  0.4259  0.0006
   17SAPC  H10R 2191   2.448   6.671   8.980  1.3394 -1.1245  0.5250
   17SAPC  H10S 2192   2.350   6.784   9.074 -0.5358 -0.2138  0.4666
   17SAPC  C211 2193   2.316   6.568   9.108 -0.5286  0.2577 -0.6932
   17SAPC  H11R 2194   2.260   6.573   9.202  2.1632  0.8946  1.0102
   17SAPC  C212 2195   2.279   6.469   9.025  0.7595  0.9326  0.3403
   17SAPC  H12R 2196   2.201   6.399   9.061 -0.9379  2.1716 -0.7707
   17SAPC  C213 2197   2.331   6.448   8.880 -0.0016 -0.0405  0.5025
   17SAPC  H13R 2198   2.343   6.340   8.860  0.5494  0.1188 -0.0754
   17SAPC  H13S 2199   2.427   6.503   8.871 -0.1918  0.4135  1.1764
   17SAPC  C214 2200   2.246   6.518   8.782 -0.0535  0.8141  0.4142
   17SAPC  H14R 2201   2.266   6.624   8.762 -0.1711  0.7929  0.1793
   17SAPC  C215 2202   2.156   6.453   8.702 -0.2928  0.4323  0.2805
   17SAPC  H15R 2203   2.089   6.503   8.631 -1.3686 -1.3800 -0.0533
   17SAPC  C216 2204   2.114   6.301   8.697  0.4150  0.0746 -0.0544
   17SAPC  H16R 2205   2.015   6.284   8.649 -0.6325 -3.7077  2.9442
   17SAPC  H16S 2206   2.119   6.259   8.800  1.0798  1.1854  0.3907
   17SAPC  C217 2207   2.212   6.228   8.613 -0.5786 -0.9057  0.2444
   17SAPC  H17R 2208   2.186   6.121   8.598  2.0378 -1.5899  0.1526
   17SAPC  H17S 2209   2.309   6.238   8.667  0.2555 -0.2587 -1.2973
   17SAPC  C218 2210   2.217   6.297   8.475  0.2703  0.1289  0.2691
   17SAPC  H18R 2211   2.291   6.378   8.492  1.0126 -0.8511  1.9055
   17SAPC  H18S 2212   2.118   6.337   8.445  0.3024 -0.7944 -1.1718
   17SAPC  C219 2213   2.267   6.222   8.350 -0.4430  0.8085  0.3683
   17SAPC  H19R 2214   2.374   6.193   8.361 -0.0258  0.2130 -3.7680
   17SAPC  H19S 2215   2.272   6.284   8.259 -0.3914 -1.2244 -1.0917
   17SAPC  C220 2216   2.192   6.093   8.323 -0.2310 -0.4356  0.1139
   17SAPC  H20R 2217   2.089   6.122   8.294  0.1948  0.8876 -0.1780
   17SAPC  H20S 2218   2.199   6.019   8.405 -1.6643 -2.5980 -1.6141
   17SAPC  H20T 2219   2.238   6.045   8.234  0.3064 -0.9035  0.6356
   17SAPC   C33 2220   2.707   6.470   9.963  0.3717 -0.7531 -0.5080
   17SAPC   H3X 2221   2.665   6.367   9.972  0.0938 -0.6054 -0.0689
   17SAPC   H3Y 2222   2.802   6.464   9.905  0.4448 -0.4413 -0.4222
   17SAPC   C34 2223   2.608   6.549   9.883  0.1804 -0.1537 -0.1933
   17SAPC   H4X 2224   2.641   6.653   9.858  2.0367 -0.7932 -0.6116
   17SAPC   H4Y 2225   2.513   6.563   9.938  1.2011 -1.4365  2.0514
   17SAPC   C35 2226   2.561   6.470   9.762 -0.2452 -0.0947 -0.4616
   17SAPC   H5X 2227   2.509   6.378   9.794 -1.7397  0.0917 -2.1879
   17SAPC   H5Y 2228   2.649   6.429   9.707 -0.0182 -1.3367  0.7712
   17SAPC   C36 2229   2.474   6.551   9.666  0.1289  0.6334  0.8902
   17SAPC   H6X 2230   2.527   6.639   9.624  1.1469 -0.9393 -1.3321
   17SAPC   H6Y 2231   2.374   6.571   9.710 -1.1625 -0.5158 -1.3086
   17SAPC   C37 2232   2.438   6.464   9.538 -0.2699  0.0200 -0.2222
   17SAPC   H7X 2233   2.374   6.528   9.474  1.5416  0.6768 -1.4796
   17SAPC   H7Y 2234   2.401   6.369   9.581 -0.1297  0.1614  0.2227
   17SAPC   C38 2235   2.551   6.426   9.452  0.0084 -0.3367 -0.3360
   17SAPC   H8X 2236   2.636   6.381   9.508 -1.7706 -1.6593  1.4610
   17SAPC   H8Y 2237   2.586   6.520   9.406  0.5475 -0.1930  0.3526
   17SAPC   C39 2238   2.507   6.325   9.341  0.0365 -0.2727  0.0499
   17SAPC   H9X 2239   2.422   6.362   9.280 -2.5768 -1.5870  2.5945
   17SAPC   H9Y 2240   2.470   6.229   9.385 -0.6147 -1.0740 -2.1436
   17SAPC  C310 2241   2.615   6.273   9.249  0.5134  0.5507 -0.1029
   17SAPC  H10X 2242   2.697   6.216   9.299 -0.5524 -2.0173 -1.1131
   17SAPC  H10Y 2243   2.659   6.359   9.194  0.4062  0.5654 -0.1657
   17SAPC  C311 2244   2.557   6.184   9.141  0.0242 -0.0936  0.7300
   17SAPC  H11X 2245   2.489   6.251   9.084  2.0749  0.1193 -1.5850
   17SAPC  H11Y 2246   2.490   6.107   9.186  0.0650 -0.9342 -0.6253
   17SAPC  C312 2247   2.671   6.122   9.061  1.3448  0.1968  0.2227
   17SAPC  H12X 2248   2.731   6.053   9.124  0.4928  0.0036  0.8433
   17SAPC  H12Y 2249   2.732   6.199   9.010 -0.6986  1.0005 -1.1364
   17SAPC  C313 2250   2.625   6.016   8.949 -0.0532  0.6575  0.3605
   17SAPC  H13X 2251   2.572   5.934   9.003  0.6179  1.1947  1.9153
   17SAPC  H13Y 2252   2.716   5.974   8.903 -0.7500  1.6192 -2.0237
   17SAPC  C314 2253   2.535   6.070   8.842  0.6271 -0.0126  0.2604
   17SAPC  H14X 2254   2.593   6.159   8.810  1.8699 -1.4036 -1.5785
   17SAPC  H14Y 2255   2.439   6.105   8.887  0.4779 -1.2460  0.9469
   17SAPC  C315 2256   2.515   5.965   8.727  1.1149 -0.1349 -0.2111
   17SAPC  H15X 2257   2.612   5.918   8.700  1.7668  1.2677 -0.4046
   17SAPC  H15Y 2258   2.482   6.016   8.634 -2.1176 -0.8544  0.4104
   17SAPC  C316 2259   2.408   5.860   8.749 -0.5143  0.2664  0.2457
   17SAPC  H16X 2260   2.308   5.902   8.772 -1.2631 -0.4772 -1.4423
   17SAPC  H16Y 2261   2.436   5.804   8.841  3.5360  0.6166 -0.5578
   17SAPC  C317 2262   2.393   5.748   8.640 -0.8090  0.0756  0.1426
   17SAPC  H17X 2263   2.332   5.668   8.687  1.1399 -0.5485  1.7618
   17SAPC  H17Y 2264   2.491   5.703   8.614 -0.5037 -0.1421  1.5895
   17SAPC  C318 2265   2.336   5.787   8.505  0.1709 -0.1589 -0.6022
   17SAPC  H18X 2266   2.253   5.856   8.530 -0.5722 -1.1641 -0.2359
   17SAPC  H18Y 2267   2.413   5.848   8.453  1.9596 -1.7211  0.0667
   17SAPC  H18Z 2268   2.303   5.701   8.444 -1.6451  0.8651 -1.1236
   18SAPC     N 2269   1.542   5.116  10.724 -0.4547  0.6027  0.2044
   18SAPC   C12 2270   1.652   5.041  10.655  0.8515 -0.3937 -0.1943
   18SAPC  H12A 2271   1.605   4.963  10.597 -2.1908  0.0714  1.4299
   18SAPC  H12B 2272   1.716   4.997  10.731  1.4036  2.5701  1.1916
   18SAPC   C13 2273   1.454   5.012  10.789  0.0790  0.4173  0.1168
   18SAPC  H13A 2274   1.510   4.928  10.829 -0.2895  0.2314  0.2406
   18SAPC  H13B 2275   1.393   5.049  10.869 -0.4048  1.4598 -0.7135
   18SAPC  H13C 2276   1.388   4.960  10.721 -0.1733  0.1622  0.5562
   18SAPC   C14 2277   1.586   5.209  10.838  0.2117  0.5571  0.4565
   18SAPC  H14A 2278   1.656   5.284  10.805  0.8047  0.0977  0.6484
   18SAPC  H14B 2279   1.502   5.254  10.889 -1.6391 -2.6669  0.5564
   18SAPC  H14C 2280   1.632   5.150  10.916 -0.1035 -1.5672 -0.8703
   18SAPC   C15 2281   1.465   5.203  10.625  0.4829  0.4800  0.1253
   18SAPC  H15A 2282   1.529   5.277  10.579  0.4983  0.3905  0.0055
   18SAPC  H15B 2283   1.425   5.132  10.555  3.6072 -0.6107 -0.7308
   18SAPC  H15C 2284   1.381   5.250  10.674 -1.4226  1.4923 -3.7231
   18SAPC   C11 2285   1.750   5.129  10.565  0.1695  0.1841 -0.1310
   18SAPC  H11A 2286   1.696   5.181  10.483 -0.4363 -3.0660 -1.9583
   18SAPC  H11B 2287   1.816   5.056  10.515 -0.1852 -0.0659 -0.2432
   18SAPC     P 2288   1.910   5.339  10.601  0.4012  0.1042  0.2746
   18SAPC   O13 2289   1.854   5.459  10.669 -0.2731 -0.0888  0.3377
   18SAPC   O14 2290   2.053   5.311  10.621 -0.7154  0.2618  0.5897
   18SAPC   O12 2291   1.828   5.216  10.646  0.5498 -0.3520  0.2049
   18SAPC   O11 2292   1.892   5.348  10.446 -0.1390  0.0765 -0.2268
   18SAPC    C1 2293   1.911   5.468  10.371  0.2176  0.8920 -0.0780
   18SAPC    HA 2294   1.958   5.554  10.422  0.6617  0.3854  0.3778
   18SAPC    HB 2295   1.971   5.447  10.280  2.3769  2.4816  0.9216
   18SAPC    C2 2296   1.776   5.520  10.313 -0.5248 -0.4643  0.1821
   18SAPC    HS 2297   1.711   5.545  10.400  0.9702 -0.5368  1.3569
   18SAPC   O21 2298   1.709   5.427  10.217 -0.0115 -0.5140  0.0824
   18SAPC   C21 2299   1.608   5.363  10.268 -1.2346 -0.0168  0.3185
   18SAPC   O22 2300   1.545   5.397  10.369  0.0335 -0.9566  0.0350
   18SAPC   C22 2301   1.604   5.229  10.206  0.2158  0.0905  0.5907
   18SAPC   H2R 2302   1.583   5.249  10.099 -2.4094 -1.1186  0.7986
   18SAPC   H2S 2303   1.702   5.180  10.220  0.1620 -0.5332 -1.0056
   18SAPC    C3 2304   1.792   5.657  10.242 -0.2748 -0.0082 -0.1356
   18SAPC    HX 2305   1.819   5.731  10.320 -0.0218  0.1108 -0.3328
   18SAPC    HY 2306   1.691   5.695  10.216  0.4471  0.8135 -1.9511
   18SAPC   O31 2307   1.878   5.659  10.133  0.4197  0.1470  0.6154
   18SAPC   C31 2308   1.920   5.784  10.103  0.5338  0.8268 -0.0472
   18SAPC   O32 2309   1.902   5.880  10.175 -0.4752  0.2924  0.3866
   18SAPC   C32 2310   2.007   5.771   9.975  0.0711  0.2652 -0.3544
   18SAPC   H2X 2311   1.944   5.718   9.901  1.0503  2.2071 -2.6961
   18SAPC   H2Y 2312   2.093   5.709  10.010  0.1645  0.4996 -0.1634
   18SAPC   C23 2313   1.485   5.147  10.266  0.8687  0.0905  0.4266
   18SAPC   H3R 2314   1.388   5.192  10.237 -0.2916 -3.8966 -2.8973
   18SAPC   H3S 2315   1.505   5.153  10.375  0.6057  3.4494  0.3879
   18SAPC   C24 2316   1.486   5.001  10.218 -0.4797 -0.7647  0.3307
   18SAPC   H4R 2317   1.445   4.941  10.302  0.4505  1.6350  2.6338
   18SAPC   H4S 2318   1.595   4.982  10.226 -0.1462  0.9535  0.2777
   18SAPC   C25 2319   1.426   4.987  10.081 -0.4749 -0.1706  1.1080
   18SAPC   H5R 2320   1.317   4.994  10.069 -0.1926 -0.5856 -3.5764
   18SAPC   C26 2321   1.491   4.975   9.961 -0.8014 -0.0106  0.5530
   18SAPC   H6R 2322   1.431   4.962   9.870 -0.7633  2.3646  0.1174
   18SAPC   C27 2323   1.641   4.975   9.936 -0.4965  0.2149  0.4005
   18SAPC   H7R 2324   1.702   4.982  10.029  0.5316 -0.4167 -0.2096
   18SAPC   H7S 2325   1.669   5.063   9.874 -2.1917  0.1468 -0.5228
   18SAPC   C28 2326   1.674   4.842   9.866  0.4775 -0.0295  0.3381
   18SAPC   H8R 2327   1.636   4.748   9.907  1.0443 -0.2106  0.4444
   18SAPC   C29 2328   1.766   4.832   9.765  0.2327 -0.8462 -0.7454
   18SAPC   H9R 2329   1.789   4.732   9.724  1.0894 -1.4817  1.1617
   18SAPC  C210 2330   1.840   4.939   9.694 -0.5688 -0.2350  0.1864
   18SAPC  H10R 2331   1.850   5.027   9.762 -1.0725  0.6500 -0.8663
   18SAPC  H10S 2332   1.776   4.974   9.610 -0.3115  1.4879  0.6498
   18SAPC  C211 2333   1.977   4.893   9.635  0.3176 -0.4505  0.0105
   18SAPC  H11R 2334   2.064   4.920   9.696  0.1048  1.9832 -0.6473
   18SAPC  C212 2335   1.999   4.837   9.519 -0.1083 -0.5500 -0.0230
   18SAPC  H12R 2336   2.101   4.830   9.479 -0.5977  1.0174 -1.6639
   18SAPC  C213 2337   1.907   4.797   9.406  0.3027 -1.1067  0.3581
   18SAPC  H13R 2338   1.966   4.805   9.312  0.7257 -0.3459  0.6842
   18SAPC  H13S 2339   1.825   4.872   9.410 -2.2067 -3.5558 -1.3885
   18SAPC  C214 2340   1.848   4.660   9.430 -0.4013  0.3711 -0.3065
   18SAPC  H14R 2341   1.841   4.616   9.531  1.4152  1.2283  0.2308
   18SAPC  C215 2342   1.795   4.574   9.341  0.3027 -1.3608 -0.5264
   18SAPC  H15R 2343   1.771   4.470   9.368  1.3398 -1.2462  0.9995
   18SAPC  C216 2344   1.792   4.609   9.193 -0.0247 -0.8401 -0.0644
   18SAPC  H16R 2345   1.873   4.677   9.159 -0.0043 -0.4950  0.6546
   18SAPC  H16S 2346   1.694   4.659   9.174  0.2273 -0.4117 -0.2450
   18SAPC  C217 2347   1.793   4.484   9.105 -0.3298 -0.2541 -0.4074
   18SAPC  H17R 2348   1.713   4.410   9.129 -0.9888  0.7467  0.6077
   18SAPC  H17S 2349   1.896   4.443   9.112  0.1736  0.8872 -0.9373
   18SAPC  C218 2350   1.752   4.517   8.964 -0.5828 -1.0189 -0.8607
   18SAPC  H18R 2351   1.839   4.580   8.936  0.0136 -1.8224 -0.8462
   18SAPC  H18S 2352   1.660   4.578   8.956 -0.7163 -1.1344 -0.2146
   18SAPC  C219 2353   1.744   4.393   8.883 -0.1325  0.5549 -0.5496
   18SAPC  H19R 2354   1.652   4.335   8.904  1.1449 -1.1727  0.6041
   18SAPC  H19S 2355   1.822   4.323   8.921  0.5457  1.6025  0.0520
   18SAPC  C220 2356   1.756   4.401   8.735 -0.4598  0.6760  0.3675
   18SAPC  H20R 2357   1.755   4.300   8.688  1.7057  1.9624 -2.7977
   18SAPC  H20S 2358   1.856   4.438   8.704  0.0595 -1.3973 -0.6471
   18SAPC  H20T 2359   1.677   4.465   8.690  0.6046  0.1424 -2.4919
   18SAPC   C33 2360   2.059   5.909   9.913 -0.3262  0.1662 -0.0583
   18SAPC   H3X 2361   2.127   5.956   9.987 -0.9586  0.4183  0.3631
   18SAPC   H3Y 2362   1.966   5.967   9.894 -0.2809 -0.5294 -2.9090
   18SAPC   C34 2363   2.129   5.888   9.780  0.2957  0.1352 -0.4622
   18SAPC   H4X 2364   2.233   5.854   9.803  0.4218  1.2965  0.8573
   18SAPC   H4Y 2365   2.137   5.987   9.729  2.7596 -0.5456 -1.5332
   18SAPC   C35 2366   2.075   5.779   9.691  0.0550  0.3615  0.1083
   18SAPC   H5X 2367   1.968   5.803   9.670  0.0573 -2.1036 -3.8319
   18SAPC   H5Y 2368   2.078   5.674   9.728  0.5925  1.0692  2.2285
   18SAPC   C36 2369   2.145   5.789   9.556  0.4237  0.0085 -1.0700
   18SAPC   H6X 2370   2.255   5.781   9.570  0.6866  1.5377 -1.9690
   18SAPC   H6Y 2371   2.116   5.888   9.515 -1.6476  0.1874  0.6599
   18SAPC   C37 2372   2.106   5.689   9.454 -0.6278  0.3874  0.1654
   18SAPC   H7X 2373   2.135   5.587   9.488  1.0200  1.1975  1.2973
   18SAPC   H7Y 2374   2.172   5.705   9.367  0.7761  0.1062  1.1450
   18SAPC   C38 2375   1.961   5.710   9.401 -0.8385  0.1076  0.7027
   18SAPC   H8X 2376   1.941   5.811   9.359 -0.6164 -0.3631 -0.5627
   18SAPC   H8Y 2377   1.890   5.682   9.482 -1.0261 -1.3476  0.0493
   18SAPC   C39 2378   1.937   5.621   9.287  0.6329  0.0624  0.7508
   18SAPC   H9X 2379   1.949   5.519   9.329 -0.5103  0.3393  1.8049
   18SAPC   H9Y 2380   2.023   5.621   9.216  0.6373 -0.5353  0.7541
   18SAPC  C310 2381   1.806   5.632   9.207  0.2291 -0.2064 -0.4447
   18SAPC  H10X 2382   1.779   5.737   9.180  1.2221 -0.2027 -1.5227
   18SAPC  H10Y 2383   1.731   5.594   9.278 -0.8565  2.4146 -0.0885
   18SAPC  C311 2384   1.816   5.547   9.079  0.2070 -0.0985  0.2474
   18SAPC  H11X 2385   1.856   5.449   9.114 -0.0011 -0.1530  0.3320
   18SAPC  H11Y 2386   1.897   5.582   9.011 -0.6860 -1.5796 -1.6924
   18SAPC  C312 2387   1.688   5.527   8.995  0.0814  0.3145  0.3725
   18SAPC  H12X 2388   1.649   5.620   8.949 -0.2316 -0.3749 -0.7805
   18SAPC  H12Y 2389   1.605   5.496   9.062 -0.7472 -0.0857 -0.8171
   18SAPC  C313 2390   1.703   5.439   8.868 -0.0950  0.2674 -0.2148
   18SAPC  H13X 2391   1.705   5.334   8.904 -0.2033  0.9054  1.8027
   18SAPC  H13Y 2392   1.807   5.447   8.829  0.5022  0.2692  1.2744
   18SAPC  C314 2393   1.606   5.468   8.759  0.0901 -0.5096 -0.6509
   18SAPC  H14X 2394   1.616   5.575   8.730  1.8527  0.4427  2.8551
   18SAPC  H14Y 2395   1.503   5.464   8.800  1.5389  1.5433  3.8474
   18SAPC  C315 2396   1.626   5.388   8.633  0.1087  0.3163  0.6705
   18SAPC  H15X 2397   1.626   5.285   8.675 -0.3678  0.9146  2.2257
   18SAPC  H15Y 2398   1.723   5.416   8.587 -0.1587  1.1403  0.5915
   18SAPC  C316 2399   1.520   5.400   8.525  0.0554  0.2060  0.2731
   18SAPC  H16X 2400   1.514   5.501   8.479  1.0842 -0.4346 -1.3460
   18SAPC  H16Y 2401   1.417   5.377   8.560 -1.3477  2.8655 -1.7161
   18SAPC  C317 2402   1.544   5.302   8.406  0.2550  0.3315 -0.2331
   18SAPC  H17X 2403   1.474   5.335   8.326 -0.7952  0.6920  0.8083
   18SAPC  H17Y 2404   1.519   5.205   8.453  2.6189  0.1344  0.7640
   18SAPC  C318 2405   1.682   5.290   8.359  0.6169 -0.1706  0.2454
   18SAPC  H18X 2406   1.723   5.381   8.310 -0.0300  1.0925  1.9477
   18SAPC  H18Y 2407   1.681   5.216   8.276  3.6331 -1.6989  1.4157
   18SAPC  H18Z 2408   1.760   5.276   8.438  1.1881  1.8772  0.1008
   19SAPC     N 2409   0.435   6.495  10.432  0.2460  0.3335  0.7814
   19SAPC   C12 2410   0.384   6.391  10.523  0.0628 -0.1881  0.1571
   19SAPC  H12A 2411   0.298   6.343  10.478  0.5296  0.4553 -1.4961
   19SAPC  H12B 2412   0.344   6.434  10.614  1.4460  1.6978 -0.0809
   19SAPC   C13 2413   0.524   6.578  10.513  0.1249 -1.2621  0.7388
   19SAPC  H13A 2414   0.478   6.619  10.601  1.4404  0.6382  0.6147
   19SAPC  H13B 2415   0.615   6.525  10.539  1.6353  0.4696 -0.6951
   19SAPC  H13C 2416   0.566   6.659  10.454  2.2677  0.2760  4.0878
   19SAPC   C14 2417   0.490   6.428  10.307  0.2499  0.3508 -0.3878
   19SAPC  H14A 2418   0.546   6.491  10.240  0.1437  0.6062 -0.2374
   19SAPC  H14B 2419   0.563   6.354  10.335  0.0236  0.2258 -0.1345
   19SAPC  H14C 2420   0.408   6.375  10.260  1.4224 -1.0499 -0.9219
   19SAPC   C15 2421   0.324   6.587  10.387  0.9903 -0.0880 -0.3945
   19SAPC  H15A 2422   0.264   6.614  10.473 -1.2562 -4.1738 -0.4448
   19SAPC  H15B 2423   0.379   6.674  10.352  0.7112  0.3858  0.3186
   19SAPC  H15C 2424   0.261   6.552  10.307  1.3392 -3.4123  0.6358
   19SAPC   C11 2425   0.479   6.273  10.558 -0.2996  0.5763  1.2536
   19SAPC  H11A 2426   0.547   6.306  10.640  1.4889 -1.2957  0.6037
   19SAPC  H11B 2427   0.546   6.250  10.473  1.8597  1.9061  2.4824
   19SAPC     P 2428   0.310   6.082  10.506  0.1814  0.1788  0.1877
   19SAPC   O13 2429   0.393   6.059  10.382  0.1160  0.8384  0.2703
   19SAPC   O14 2430   0.254   5.962  10.578 -0.4750  0.0913 -0.1261
   19SAPC   O12 2431   0.407   6.161  10.603 -0.3380  0.3411 -0.3748
   19SAPC   O11 2432   0.192   6.183  10.486  0.1346  0.0497  0.7070
   19SAPC    C1 2433   0.056   6.146  10.449 -0.3761  0.0223  0.3853
   19SAPC    HA 2434   0.055   6.040  10.415  0.2384 -0.2931  1.3141
   19SAPC    HB 2435  -0.017   6.152  10.533 -0.8179  1.4587 -0.0671
   19SAPC    C2 2436   0.001   6.230  10.329 -0.7085  1.1905  0.1607
   19SAPC    HS 2437  -0.091   6.178  10.292  0.7452 -1.2103 -0.2927
   19SAPC   O21 2438   0.099   6.228  10.225  0.9845 -0.2346 -0.2744
   19SAPC   C21 2439   0.130   6.117  10.155 -0.5106 -0.4423 -0.1137
   19SAPC   O22 2440   0.074   6.014  10.169  0.8321  0.4645  0.3056
   19SAPC   C22 2441   0.248   6.154  10.059 -0.0775 -0.1067  0.2599
   19SAPC   H2R 2442   0.210   6.217   9.977 -1.0032 -1.1443 -0.1219
   19SAPC   H2S 2443   0.327   6.209  10.114 -0.3904 -0.0428  0.6528
   19SAPC    C3 2444  -0.023   6.382  10.364  0.0605  0.1566  0.5894
   19SAPC    HX 2445   0.080   6.423  10.377  1.5651 -2.3353 -2.0419
   19SAPC    HY 2446  -0.085   6.382  10.456 -1.0970 -1.9028 -0.1177
   19SAPC   O31 2447  -0.100   6.447  10.263 -0.0022  0.1798 -0.1713
   19SAPC   C31 2448  -0.033   6.539  10.192  0.2432  0.2072 -0.5377
   19SAPC   O32 2449   0.086   6.559  10.194 -0.1739  0.1985  0.3148
   19SAPC   C32 2450  -0.137   6.607  10.095 -0.2824 -0.0473  0.7787
   19SAPC   H2X 2451  -0.200   6.662  10.169  0.0402  0.0917  0.9509
   19SAPC   H2Y 2452  -0.187   6.533  10.029 -0.4669  0.8579 -0.1147
   19SAPC   C23 2453   0.313   6.026  10.008  0.0961 -0.6172 -0.7828
   19SAPC   H3R 2454   0.235   5.969   9.952 -1.1268  0.7622 -0.5478
   19SAPC   H3S 2455   0.335   5.960  10.095  0.7169  1.5899  0.8141
   19SAPC   C24 2456   0.427   6.043   9.903 -0.2674 -0.7830 -0.1241
   19SAPC   H4R 2457   0.511   6.094   9.956 -0.7078  2.2724 -2.1075
   19SAPC   H4S 2458   0.396   6.110   9.820  1.7131 -0.8393 -0.9554
   19SAPC   C25 2459   0.471   5.916   9.843 -0.5041 -0.5655 -0.1084
   19SAPC   H5R 2460   0.520   5.849   9.914 -1.1247 -1.8395 -0.8402
   19SAPC   C26 2461   0.451   5.870   9.724  0.4430 -0.4218 -0.1233
   19SAPC   H6R 2462   0.494   5.771   9.705 -0.8140 -1.0804  0.3935
   19SAPC   C27 2463   0.369   5.935   9.614  0.3125 -0.0338  0.7879
   19SAPC   H7R 2464   0.429   6.024   9.589  0.2321 -0.9951 -3.7076
   19SAPC   H7S 2465   0.268   5.967   9.647 -0.7023 -1.7344 -0.4873
   19SAPC   C28 2466   0.357   5.853   9.488 -0.6884 -0.3057 -0.4069
   19SAPC   H8R 2467   0.460   5.832   9.454  0.0283 -0.2540  1.5916
   19SAPC   C29 2468   0.245   5.801   9.431 -0.6697  0.6268  0.3111
   19SAPC   H9R 2469   0.271   5.755   9.335  3.8080  0.6408  1.2950
   19SAPC  C210 2470   0.101   5.812   9.480 -0.7565 -0.1717  0.6434
   19SAPC  H10R 2471   0.107   5.884   9.564 -1.1941 -1.1116  1.4937
   19SAPC  H10S 2472   0.084   5.717   9.535  2.8891 -2.0603 -1.0895
   19SAPC  C211 2473  -0.021   5.852   9.393  0.2404  0.8049 -0.5313
   19SAPC  H11R 2474  -0.105   5.782   9.400  0.0179  1.1916  0.9910
   19SAPC  C212 2475  -0.040   5.964   9.322  0.0192 -0.1747 -0.2172
   19SAPC  H12R 2476  -0.128   5.968   9.256  0.5036 -0.2050 -0.8765
   19SAPC  C213 2477   0.059   6.071   9.308  0.6267 -0.3594  0.0470
   19SAPC  H13R 2478   0.140   6.066   9.232 -0.6989  1.1819 -1.5677
   19SAPC  H13S 2479   0.107   6.070   9.408  0.7102  0.2101  0.0166
   19SAPC  C214 2480  -0.014   6.200   9.279  0.4852  0.7208  0.4127
   19SAPC  H14R 2481  -0.068   6.235   9.368  0.9950  1.1538  0.5592
   19SAPC  C215 2482  -0.014   6.267   9.162  0.4456  0.3651 -0.4033
   19SAPC  H15R 2483  -0.064   6.364   9.156  1.5099  0.9170 -0.5389
   19SAPC  C216 2484   0.044   6.236   9.024 -0.8742  0.3790 -0.4196
   19SAPC  H16R 2485   0.080   6.131   9.018 -1.4276  0.0509  1.3465
   19SAPC  H16S 2486   0.135   6.296   9.003  1.6264 -2.9096  0.1230
   19SAPC  C217 2487  -0.054   6.260   8.913 -0.2071  0.0323  0.2948
   19SAPC  H17R 2488  -0.079   6.368   8.919  0.1826  0.1551 -0.2029
   19SAPC  H17S 2489  -0.151   6.205   8.916 -0.6502  0.8233  1.6752
   19SAPC  C218 2490   0.022   6.226   8.787  0.8962 -0.0186 -0.0016
   19SAPC  H18R 2491   0.110   6.166   8.819 -0.4152 -0.8978  2.2181
   19SAPC  H18S 2492   0.068   6.319   8.748 -0.1160  0.9498  1.0452
   19SAPC  C219 2493  -0.064   6.141   8.683 -0.1671 -0.7882 -0.3405
   19SAPC  H19R 2494  -0.135   6.067   8.725 -0.2405 -0.8933 -0.6472
   19SAPC  H19S 2495  -0.000   6.081   8.615 -2.4355 -1.7286 -1.7280
   19SAPC  C220 2496  -0.137   6.233   8.590  0.1295 -0.1498 -0.5019
   19SAPC  H20R 2497  -0.216   6.283   8.651  0.2524 -1.8216  1.1284
   19SAPC  H20S 2498  -0.172   6.202   8.490 -1.3723 -1.0167  0.2644
   19SAPC  H20T 2499  -0.076   6.320   8.556 -0.9505  0.9489  0.2620
   19SAPC   C33 2500  -0.073   6.714   9.998 -0.2392  0.7093 -0.1754
   19SAPC   H3X 2501   0.006   6.772  10.050 -0.3759 -0.4461  1.3660
   19SAPC   H3Y 2502  -0.153   6.791   9.987  0.7484  1.9244  0.7918
   19SAPC   C34 2503  -0.042   6.666   9.855 -0.1906 -0.2196 -0.5224
   19SAPC   H4X 2504  -0.002   6.754   9.800 -0.0300 -0.4610 -0.7966
   19SAPC   H4Y 2505  -0.136   6.624   9.815  0.3000 -0.6224 -1.2743
   19SAPC   C35 2506   0.057   6.548   9.850 -0.6013  0.7742  0.3426
   19SAPC   H5X 2507   0.002   6.459   9.890  0.7726 -0.9661 -1.4306
   19SAPC   H5Y 2508   0.146   6.568   9.914 -0.0497 -1.0074  0.1924
   19SAPC   C36 2509   0.105   6.527   9.706  0.6413  0.1460  0.7052
   19SAPC   H6X 2510   0.154   6.619   9.670 -0.6767 -0.3868 -2.8255
   19SAPC   H6Y 2511   0.025   6.488   9.640 -0.1124  2.7377 -0.0381
   19SAPC   C37 2512   0.210   6.423   9.697 -0.0736  0.6364  0.0400
   19SAPC   H7X 2513   0.181   6.327   9.744  1.9262  0.9251  2.0274
   19SAPC   H7Y 2514   0.305   6.456   9.744 -0.4068 -0.1749  1.3183
   19SAPC   C38 2515   0.251   6.392   9.548  0.1502  0.3733 -0.3664
   19SAPC   H8X 2516   0.165   6.342   9.500  1.0412 -0.4006 -1.1859
   19SAPC   H8Y 2517   0.342   6.329   9.551 -0.3973 -0.4196  1.6632
   19SAPC   C39 2518   0.301   6.514   9.470 -0.0554 -0.3730  0.0462
   19SAPC   H9X 2519   0.374   6.578   9.524 -0.6992  1.9876 -1.6671
   19SAPC   H9Y 2520   0.217   6.580   9.439 -1.7020 -2.3439  0.1347
   19SAPC  C310 2521   0.385   6.467   9.353  0.0441 -0.3950 -0.1299
   19SAPC  H10X 2522   0.338   6.377   9.308  0.6135  0.1220 -1.8483
   19SAPC  H10Y 2523   0.482   6.421   9.383 -0.1927 -0.5472  0.4236
   19SAPC  C311 2524   0.418   6.574   9.244 -0.8191  0.5813 -0.2273
   19SAPC  H11X 2525   0.475   6.659   9.287  0.4055  0.1764 -1.0171
   19SAPC  H11Y 2526   0.322   6.622   9.217 -1.0768  0.0097 -0.3511
   19SAPC  C312 2527   0.484   6.532   9.123  0.0335 -0.7277 -0.0903
   19SAPC  H12X 2528   0.411   6.477   9.059  0.7647 -1.0416 -0.6724
   19SAPC  H12Y 2529   0.562   6.459   9.154  0.7484  0.2068  0.3450
   19SAPC  C313 2530   0.546   6.639   9.029 -0.2700 -0.0706 -0.1606
   19SAPC  H13X 2531   0.654   6.654   9.050 -0.1932  1.0301 -1.1905
   19SAPC  H13Y 2532   0.498   6.734   9.060 -0.0524 -0.2612  0.7767
   19SAPC  C314 2533   0.524   6.617   8.885 -0.0312  0.8597  0.3090
   19SAPC  H14X 2534   0.551   6.707   8.826 -0.4481  2.1239  1.9661
   19SAPC  H14Y 2535   0.415   6.595   8.871  0.3236 -0.6876 -0.2727
   19SAPC  C315 2536   0.621   6.503   8.839  0.5911 -0.0056  0.6488
   19SAPC  H15X 2537   0.611   6.418   8.909 -0.7011  0.9461  1.6815
   19SAPC  H15Y 2538   0.726   6.540   8.843  0.0276  1.6112  3.8622
   19SAPC  C316 2539   0.587   6.448   8.697 -0.0045 -0.0604 -0.1443
   19SAPC  H16X 2540   0.682   6.412   8.654  1.1943 -0.3828  2.5667
   19SAPC  H16Y 2541   0.559   6.526   8.623 -1.6720 -0.6481 -0.1963
   19SAPC  C317 2542   0.490   6.327   8.684  0.2605 -0.3984 -0.8445
   19SAPC  H17X 2543   0.392   6.358   8.726  0.3179  0.0434 -1.0326
   19SAPC  H17Y 2544   0.506   6.240   8.751 -1.7164  0.0468  0.2845
   19SAPC  C318 2545   0.491   6.281   8.535  0.0805  0.3463  0.3292
   19SAPC  H18X 2546   0.589   6.233   8.513 -0.9645 -1.5268 -0.4131
   19SAPC  H18Y 2547   0.453   6.356   8.463 -2.2620 -1.5358 -0.5113
   19SAPC  H18Z 2548   0.430   6.193   8.508  2.0683 -0.7391 -0.9214
   20SAPC     N 2549   1.451   2.944  11.115 -0.5690 -0.1376 -0.4858
   20SAPC   C12 2550   1.556   2.980  11.212  0.0695  0.8011 -0.0208
   20SAPC  H12A 2551   1.606   2.892  11.248  0.3644  1.0653  0.2225
   20SAPC  H12B 2552   1.516   3.035  11.296  0.7314  3.8850 -1.5577
   20SAPC   C13 2553   1.375   3.058  11.047 -0.0320  0.0513  0.5544
   20SAPC  H13A 2554   1.296   3.031  10.978  2.6859  0.9370 -3.2166
   20SAPC  H13B 2555   1.330   3.126  11.118 -1.1720  1.2355 -1.2183
   20SAPC  H13C 2556   1.436   3.131  10.996 -0.2732  1.1308  1.7320
   20SAPC   C14 2557   1.521   2.867  11.002  0.3730  0.0568 -0.3744
   20SAPC  H14A 2558   1.589   2.935  10.952 -0.5856  0.1226 -1.6411
   20SAPC  H14B 2559   1.587   2.788  11.037 -1.0957 -1.5177 -1.0226
   20SAPC  H14C 2560   1.445   2.837  10.931  0.4568  0.5226 -0.6635
   20SAPC   C15 2561   1.347   2.848  11.176 -0.1578 -0.1137  0.1934
   20SAPC  H15A 2562   1.272   2.831  11.100  0.7376 -0.0785 -0.7283
   20SAPC  H15B 2563   1.389   2.753  11.207 -0.7520 -0.3683  0.2343
   20SAPC  H15C 2564   1.313   2.896  11.266  1.5577 -0.9243  1.3473
   20SAPC   C11 2565   1.653   3.080  11.153  0.6852  0.0980  0.1220
   20SAPC  H11A 2566   1.707   3.133  11.235  2.9665  0.0552 -1.2492
   20SAPC  H11B 2567   1.595   3.147  11.086  1.0668 -0.9561 -1.3029
   20SAPC     P 2568   1.870   2.949  11.095 -0.1279 -0.3870  0.0893
   20SAPC   O13 2569   1.956   3.030  11.191  0.6336  0.1287  0.1067
   20SAPC   O14 2570   1.822   2.814  11.122 -0.5713  0.0592 -0.0669
   20SAPC   O12 2571   1.743   3.028  11.054  0.0384 -0.1390 -0.3043
   20SAPC   O11 2572   1.950   2.943  10.956  0.0928  0.1748 -0.2777
   20SAPC    C1 2573   2.048   3.046  10.929  1.0409  0.2418 -0.0533
   20SAPC    HA 2574   1.995   3.138  10.963  0.0060 -0.8670  1.4246
   20SAPC    HB 2575   2.137   3.034  10.994  0.2412  1.9848  1.4496
   20SAPC    C2 2576   2.103   3.055  10.782  0.0607 -0.0121  0.2121
   20SAPC    HS 2577   2.185   3.130  10.781 -1.6269  1.8968 -1.4546
   20SAPC   O21 2578   2.000   3.092  10.692  0.2203 -0.1120  0.0344
   20SAPC   C21 2579   1.971   3.214  10.683  0.3771 -0.7122 -0.1049
   20SAPC   O22 2580   2.024   3.309  10.737  0.2847 -0.0199  0.0568
   20SAPC   C22 2581   1.855   3.227  10.582  0.3376  0.4112  0.2593
   20SAPC   H2R 2582   1.811   3.126  10.564 -0.4980  0.7515  0.3486
   20SAPC   H2S 2583   1.773   3.294  10.615 -3.8149 -2.2806 -3.4614
   20SAPC    C3 2584   2.161   2.921  10.727 -0.4034  0.1935 -0.2178
   20SAPC    HX 2585   2.087   2.844  10.757  0.1261 -0.7430 -1.2147
   20SAPC    HY 2586   2.252   2.904  10.788 -0.6012  0.3757  0.1307
   20SAPC   O31 2587   2.188   2.906  10.583 -0.4639 -0.0222 -0.6002
   20SAPC   C31 2588   2.096   2.859  10.505 -0.2907 -0.2911 -0.5486
   20SAPC   O32 2589   1.993   2.809  10.544  0.0182  0.0296  0.2723
   20SAPC   C32 2590   2.133   2.900  10.355 -0.1905  0.0789  0.0857
   20SAPC   H2X 2591   2.243   2.893  10.356 -0.2382 -0.9870 -0.3718
   20SAPC   H2Y 2592   2.090   3.002  10.344 -1.2107 -0.3710 -0.2082
   20SAPC   C23 2593   1.892   3.273  10.435 -0.0695 -0.6236 -0.2472
   20SAPC   H3R 2594   1.940   3.188  10.382 -0.5429 -0.6656 -0.6161
   20SAPC   H3S 2595   1.968   3.350  10.458  1.3225 -1.8256 -0.6537
   20SAPC   C24 2596   1.764   3.323  10.366  0.4631 -0.1425  0.1350
   20SAPC   H4R 2597   1.678   3.280  10.422  0.2562  1.4630  1.1044
   20SAPC   H4S 2598   1.762   3.291  10.260  1.6868 -1.4841  0.4789
   20SAPC   C25 2599   1.751   3.474  10.364 -0.0956  0.1404 -0.0363
   20SAPC   H5R 2600   1.671   3.520  10.423  0.7252  0.7559  0.6198
   20SAPC   C26 2601   1.826   3.556  10.289 -0.1842 -0.1705  0.5051
   20SAPC   H6R 2602   1.804   3.663  10.293 -0.1664 -0.1770  0.8031
   20SAPC   C27 2603   1.932   3.511  10.190  0.3063 -0.2981 -0.7738
   20SAPC   H7R 2604   1.982   3.418  10.226 -2.0684 -2.1614 -1.9965
   20SAPC   H7S 2605   2.013   3.587  10.193  1.0510 -1.1163  0.6942
   20SAPC   C28 2606   1.876   3.487  10.052  0.1073  0.0486 -0.1520
   20SAPC   H8R 2607   1.829   3.582  10.021  1.0644  0.5651 -0.0343
   20SAPC   C29 2608   1.888   3.383   9.973  0.0314 -0.3694  0.5169
   20SAPC   H9R 2609   1.837   3.384   9.875  1.0521  0.4762 -0.0322
   20SAPC  C210 2610   1.955   3.255  10.018 -0.5330 -0.0336  0.1167
   20SAPC  H10R 2611   1.973   3.252  10.127  1.3241  1.2019 -0.1124
   20SAPC  H10S 2612   2.057   3.254   9.974  0.2790 -5.6511  1.3131
   20SAPC  C211 2613   1.882   3.134   9.976 -0.0966  0.3700 -0.4839
   20SAPC  H11R 2614   1.817   3.090  10.053 -1.1507  1.1958 -0.8808
   20SAPC  C212 2615   1.873   3.088   9.849  0.5714 -0.5034  0.2894
   20SAPC  H12R 2616   1.812   2.997   9.837  1.4012 -0.8521 -1.6089
   20SAPC  C213 2617   1.929   3.143   9.726 -0.2611  0.0985  0.1189
   20SAPC  H13R 2618   1.993   3.068   9.674 -0.1073  2.0219 -2.6435
   20SAPC  H13S 2619   1.998   3.223   9.762 -1.0664  2.0718 -2.4231
   20SAPC  C214 2620   1.823   3.203   9.642  0.3570  0.1690  0.2866
   20SAPC  H14R 2621   1.789   3.304   9.668  0.2344  0.4670 -0.9603
   20SAPC  C215 2622   1.757   3.138   9.539  0.8040 -0.5688 -0.0227
   20SAPC  H15R 2623   1.679   3.191   9.483  2.5743  2.5063  0.2309
   20SAPC  C216 2624   1.778   2.994   9.494  0.0497  0.3595  0.2436
   20SAPC  H16R 2625   1.686   2.961   9.440 -0.3686 -1.2469  1.8287
   20SAPC  H16S 2626   1.791   2.933   9.586  0.6880  0.9588  0.5545
   20SAPC  C217 2627   1.895   2.974   9.401  0.1702 -0.1243  0.1853
   20SAPC  H17R 2628   1.889   2.864   9.382 -2.5524  0.2853 -1.8358
   20SAPC  H17S 2629   1.994   2.988   9.449  0.5728 -1.8643 -0.0527
   20SAPC  C218 2630   1.875   3.045   9.263 -0.3268  0.1714  0.3403
   20SAPC  H18R 2631   1.880   3.156   9.265  2.3524  0.1524 -0.6790
   20SAPC  H18S 2632   1.781   3.004   9.220  0.4325 -0.4257 -0.8240
   20SAPC  C219 2633   1.986   3.019   9.156 -0.5227  0.0441 -0.5912
   20SAPC  H19R 2634   1.967   3.070   9.059 -0.7392  1.4244  0.1477
   20SAPC  H19S 2635   1.983   2.910   9.137 -0.4800 -0.6327  2.7260
   20SAPC  C220 2636   2.128   3.061   9.201  0.1582  0.2483 -0.5449
   20SAPC  H20R 2637   2.201   3.019   9.128  0.1958  1.4322 -1.2196
   20SAPC  H20S 2638   2.147   3.014   9.300  1.0979 -1.0166 -1.2962
   20SAPC  H20T 2639   2.142   3.171   9.203 -0.8426  0.3846 -0.5423
   20SAPC   C33 2640   2.083   2.799  10.256  0.0324  1.2898 -0.1672
   20SAPC   H3X 2641   1.974   2.777  10.267  0.4497 -1.8332 -1.3857
   20SAPC   H3Y 2642   2.137   2.703  10.267  1.5452  2.2493  1.3174
   20SAPC   C34 2643   2.090   2.847  10.115  0.9209 -0.0985  0.2727
   20SAPC   H4X 2644   2.196   2.850  10.082  1.0788  0.5035  0.8101
   20SAPC   H4Y 2645   2.050   2.950  10.115 -0.0132 -0.4514 -0.3511
   20SAPC   C35 2646   2.007   2.773  10.018 -0.0891  0.8580  0.7458
   20SAPC   H5X 2647   1.983   2.837   9.930 -0.6058  0.9159  0.9224
   20SAPC   H5Y 2648   1.911   2.758  10.071 -0.1765 -1.7902 -0.0004
   20SAPC   C36 2649   2.070   2.640   9.967  0.3897  0.4487  0.1257
   20SAPC   H6X 2650   2.095   2.580  10.057  0.7337  0.5473  0.0970
   20SAPC   H6Y 2651   2.170   2.652   9.919  0.2575 -0.9729 -0.5557
   20SAPC   C37 2652   1.976   2.546   9.883 -0.3755 -0.8080  0.2539
   20SAPC   H7X 2653   1.870   2.573   9.904 -0.2269 -0.5042  0.6284
   20SAPC   H7Y 2654   1.994   2.439   9.904  1.5569  0.1334  4.7038
   20SAPC   C38 2655   1.989   2.569   9.731 -0.3003 -0.3299  0.2034
   20SAPC   H8X 2656   2.093   2.547   9.697  0.1980  2.2433 -0.1388
   20SAPC   H8Y 2657   1.963   2.674   9.710  0.6445  0.1109  1.1511
   20SAPC   C39 2658   1.896   2.467   9.661  0.1267  0.1007 -0.2075
   20SAPC   H9X 2659   1.797   2.513   9.681  0.1104 -0.3234  0.7586
   20SAPC   H9Y 2660   1.904   2.371   9.717 -0.9521  0.4326  0.5462
   20SAPC  C310 2661   1.929   2.437   9.515 -0.1763 -0.2047  0.4166
   20SAPC  H10X 2662   1.866   2.356   9.472  1.2513 -0.5418 -1.1722
   20SAPC  H10Y 2663   2.030   2.389   9.517 -1.0215 -2.0513  1.7259
   20SAPC  C311 2664   1.937   2.558   9.420  0.4331 -0.3649 -0.4241
   20SAPC  H11X 2665   2.029   2.610   9.452  0.5600 -0.3698 -0.7757
   20SAPC  H11Y 2666   1.842   2.615   9.429  1.1752  1.0053 -0.9128
   20SAPC  C312 2667   1.940   2.507   9.270  0.3690  0.4570 -0.4698
   20SAPC  H12X 2668   1.902   2.403   9.257  1.9607 -0.1559 -0.5387
   20SAPC  H12Y 2669   2.043   2.502   9.227 -0.1072  2.1392 -1.9122
   20SAPC  C313 2670   1.853   2.595   9.182 -0.1401  0.1264 -0.0227
   20SAPC  H13X 2671   1.883   2.701   9.201 -1.6733  0.6213 -0.2164
   20SAPC  H13Y 2672   1.746   2.589   9.210 -0.3814  1.8697 -0.4350
   20SAPC  C314 2673   1.857   2.565   9.032  0.7619  0.1397 -0.2701
   20SAPC  H14X 2674   1.838   2.457   9.019 -3.3319  0.5969  0.6084
   20SAPC  H14Y 2675   1.954   2.603   8.992  1.5391  0.7943  2.0971
   20SAPC  C315 2676   1.740   2.642   8.965  0.2483 -0.0589  0.8469
   20SAPC  H15X 2677   1.751   2.749   8.991 -1.3967  0.6573 -1.1188
   20SAPC  H15Y 2678   1.638   2.624   9.006 -0.0003  1.2317  0.8290
   20SAPC  C316 2679   1.724   2.615   8.815 -0.8782 -0.2272  0.0744
   20SAPC  H16X 2680   1.822   2.624   8.764 -0.9481  1.2435  0.1467
   20SAPC  H16Y 2681   1.665   2.699   8.773 -0.9035  0.1377  0.8288
   20SAPC  C317 2682   1.650   2.487   8.783  0.4234  0.4179 -0.0015
   20SAPC  H17X 2683   1.546   2.497   8.819  0.2790  1.3463 -0.6426
   20SAPC  H17Y 2684   1.693   2.400   8.837 -0.9102 -0.5753 -0.4884
   20SAPC  C318 2685   1.636   2.453   8.634 -0.2572 -0.2676 -0.1448
   20SAPC  H18X 2686   1.726   2.480   8.576 -0.1382 -1.4046 -0.5121
   20SAPC  H18Y 2687   1.547   2.508   8.596 -1.3969 -2.6266 -1.0921
   20SAPC  H18Z 2688   1.612   2.348   8.607  2.3212 -0.5909 -1.4482
   21SAPC     N 2689   3.649   2.392  10.942  0.0754  0.0144 -0.4855
   21SAPC   C12 2690   3.766   2.432  10.862 -0.3259 -0.7744  0.2538
   21SAPC  H12A 2691   3.808   2.520  10.908 -0.2948  0.1331 -1.4372
   21SAPC  H12B 2692   3.730   2.457  10.763  0.6714  1.6511  0.4247
   21SAPC   C13 2693   3.691   2.320  11.062  0.2181  0.1930  0.1752
   21SAPC  H13A 2694   3.759   2.376  11.124 -0.0765  0.2023  0.4961
   21SAPC  H13B 2695   3.605   2.281  11.115 -0.5735 -1.8601 -2.4467
   21SAPC  H13C 2696   3.758   2.241  11.032  1.1589 -0.0064  2.5403
   21SAPC   C14 2697   3.563   2.513  10.976  0.5331  0.0105  0.0242
   21SAPC  H14A 2698   3.470   2.468  11.009 -0.5537  0.7443 -1.8391
   21SAPC  H14B 2699   3.612   2.582  11.043 -2.2640  3.4043 -1.1116
   21SAPC  H14C 2700   3.539   2.573  10.890 -0.0204 -0.5553 -0.2289
   21SAPC   C15 2701   3.570   2.291  10.861 -0.0672 -0.7087  0.4207
   21SAPC  H15A 2702   3.489   2.242  10.912 -0.7450 -3.4470 -2.9050
   21SAPC  H15B 2703   3.524   2.320  10.768 -2.1716 -3.6350  0.4320
   21SAPC  H15C 2704   3.636   2.210  10.834  0.5903  0.3279 -1.3490
   21SAPC   C11 2705   3.878   2.328  10.845 -0.2376 -0.4187 -0.2075
   21SAPC  H11A 2706   3.934   2.339  10.940 -0.6693  2.8785 -0.2212
   21SAPC  H11B 2707   3.944   2.364  10.763  0.5643 -3.4660 -1.0419
   21SAPC     P 2708   3.940   2.080  10.837 -0.4188  0.3273  0.3639
   21SAPC   O13 2709   4.054   2.132  10.913  0.3720 -0.6614 -0.4120
   21SAPC   O14 2710   3.874   1.952  10.882  0.2741 -0.1461 -0.3016
   21SAPC   O12 2711   3.832   2.193  10.819  0.6942 -0.0623 -0.6552
   21SAPC   O11 2712   3.994   2.045  10.692 -0.0502 -0.3104 -0.0688
   21SAPC    C1 2713   3.946   2.103  10.568 -0.0120  0.3519  0.5879
   21SAPC    HA 2714   3.939   2.214  10.573  0.5919  0.4608 -0.7226
   21SAPC    HB 2715   4.015   2.080  10.484 -1.8904  2.9785 -1.8436
   21SAPC    C2 2716   3.807   2.064  10.535 -0.0690  0.3996  0.7213
   21SAPC    HS 2717   3.732   2.084  10.614 -0.1375 -0.2708  0.8315
   21SAPC   O21 2718   3.813   1.919  10.528  0.0262 -0.8178  0.2553
   21SAPC   C21 2719   3.714   1.841  10.493 -0.3631 -0.7004  0.4373
   21SAPC   O22 2720   3.599   1.880  10.475 -0.2212 -0.1705 -0.1941
   21SAPC   C22 2721   3.768   1.704  10.462 -0.2587  0.7593  0.9556
   21SAPC   H2R 2722   3.836   1.680  10.547  1.2292  0.1295 -0.3707
   21SAPC   H2S 2723   3.687   1.627  10.460 -1.8919  2.4218 -1.4921
   21SAPC    C3 2724   3.745   2.127  10.402  0.3558 -0.0313  0.3071
   21SAPC    HX 2725   3.645   2.085  10.378  0.1599 -0.0665  1.1512
   21SAPC    HY 2726   3.813   2.096  10.320 -0.2644  2.0837 -1.1063
   21SAPC   O31 2727   3.749   2.270  10.394  0.0596  0.0187 -0.0950
   21SAPC   C31 2728   3.671   2.336  10.480  0.1554  0.6266 -0.4279
   21SAPC   O32 2729   3.596   2.289  10.562 -0.1846 -0.4099  0.2106
   21SAPC   C32 2730   3.688   2.490  10.453 -0.5778  0.1606 -0.5472
   21SAPC   H2X 2731   3.792   2.509  10.420 -0.6023  1.1539 -0.0885
   21SAPC   H2Y 2732   3.667   2.541  10.549  2.9510  1.5057 -0.3630
   21SAPC   C23 2733   3.841   1.693  10.324  0.2541 -0.3448 -0.3899
   21SAPC   H3R 2734   3.882   1.590  10.319  0.6307 -0.2011 -0.3030
   21SAPC   H3S 2735   3.921   1.770  10.314  1.5577 -1.6960 -0.6281
   21SAPC   C24 2736   3.745   1.702  10.211  0.4768 -0.8118 -0.3219
   21SAPC   H4R 2737   3.694   1.799  10.229  1.2238 -0.4370 -0.2036
   21SAPC   H4S 2738   3.670   1.621  10.228 -0.1481 -0.0527  0.6362
   21SAPC   C25 2739   3.802   1.695  10.073 -0.2395  0.4766 -0.1708
   21SAPC   H5R 2740   3.840   1.789  10.030  0.4651  0.4268  0.3232
   21SAPC   C26 2741   3.830   1.577  10.010  0.5588 -0.1343 -1.0468
   21SAPC   H6R 2742   3.892   1.584   9.920  1.4647  0.8943 -0.3701
   21SAPC   C27 2743   3.800   1.430  10.047  0.2526 -0.2610 -0.1002
   21SAPC   H7R 2744   3.698   1.397  10.019 -1.1875  2.0146  2.0769
   21SAPC   H7S 2745   3.790   1.420  10.157  1.7780  0.2231  0.1072
   21SAPC   C28 2746   3.894   1.331   9.981 -0.1241  0.8880  0.8196
   21SAPC   H8R 2747   3.973   1.293  10.048  0.5619 -1.9086 -1.3786
   21SAPC   C29 2748   3.891   1.277   9.854 -0.4802 -0.6882  0.3734
   21SAPC   H9R 2749   3.967   1.202   9.828 -0.4304 -0.3189 -0.5677
   21SAPC  C210 2750   3.791   1.315   9.747  0.5865 -0.3769 -0.4058
   21SAPC  H10R 2751   3.694   1.335   9.796  0.0399 -0.7348 -1.3120
   21SAPC  H10S 2752   3.769   1.235   9.673  0.6621 -0.4939 -0.3013
   21SAPC  C211 2753   3.825   1.437   9.677 -0.5510 -0.1438  0.2476
   21SAPC  H11R 2754   3.773   1.520   9.726 -2.1330 -0.8980 -0.0799
   21SAPC  C212 2755   3.879   1.454   9.553 -0.6726  0.9204 -1.1057
   21SAPC  H12R 2756   3.908   1.557   9.529 -0.0424  1.0263  0.0144
   21SAPC  C213 2757   3.934   1.350   9.461 -0.1194 -0.6632 -0.3959
   21SAPC  H13R 2758   3.854   1.345   9.384 -2.5073  1.4614  1.7406
   21SAPC  H13S 2759   3.950   1.255   9.516  0.5884  0.0303  0.6348
   21SAPC  C214 2760   4.060   1.414   9.403  0.0896 -0.7938 -0.9347
   21SAPC  H14R 2761   4.032   1.484   9.323  0.3070  2.9778  1.9826
   21SAPC  C215 2762   4.183   1.430   9.459  0.1242  0.3942 -0.2943
   21SAPC  H15R 2763   4.267   1.478   9.407  1.5160 -0.1455  1.3483
   21SAPC  C216 2764   4.214   1.358   9.586  0.0828  0.2197 -0.7541
   21SAPC  H16R 2765   4.133   1.342   9.661 -0.0680 -0.3576 -1.0330
   21SAPC  H16S 2766   4.285   1.417   9.648  1.0753  0.7187 -2.3275
   21SAPC  C217 2767   4.272   1.208   9.550  0.0314 -0.8981  0.9127
   21SAPC  H17R 2768   4.210   1.151   9.478  2.3105 -1.8715 -0.3797
   21SAPC  H17S 2769   4.260   1.151   9.645 -0.8686 -1.5034  0.4423
   21SAPC  C218 2770   4.412   1.214   9.515 -0.2192 -0.0278 -0.2529
   21SAPC  H18R 2771   4.450   1.314   9.485 -3.9048  1.0199 -2.0835
   21SAPC  H18S 2772   4.437   1.151   9.427 -1.5640  0.4853 -1.0294
   21SAPC  C219 2773   4.485   1.163   9.637  0.0943 -0.6201 -0.2039
   21SAPC  H19R 2774   4.466   1.056   9.660  0.1015 -0.6830 -0.4938
   21SAPC  H19S 2775   4.463   1.234   9.720 -1.3432 -1.3011  0.0430
   21SAPC  C220 2776   4.639   1.172   9.614  0.8966  0.0437  0.3528
   21SAPC  H20R 2777   4.697   1.167   9.709  2.4694  2.1487 -0.4064
   21SAPC  H20S 2778   4.664   1.265   9.559 -0.3066 -0.5312 -1.2267
   21SAPC  H20T 2779   4.666   1.086   9.549 -1.9463 -0.6122 -0.0950
   21SAPC   C33 2780   3.590   2.535  10.345 -0.2381  0.5531  0.5231
   21SAPC   H3X 2781   3.596   2.646  10.344  3.6094  0.4879  1.6647
   21SAPC   H3Y 2782   3.488   2.510  10.382  1.0117 -1.0271  3.2677
   21SAPC   C34 2783   3.620   2.467  10.207 -0.9781  0.3382  0.7765
   21SAPC   H4X 2784   3.623   2.356  10.212  1.2166  0.2427 -1.0601
   21SAPC   H4Y 2785   3.721   2.504  10.179 -0.3218 -1.1346  1.0861
   21SAPC   C35 2786   3.521   2.522  10.100 -0.2934  0.2811  0.0240
   21SAPC   H5X 2787   3.546   2.624  10.064 -0.1578  0.1156 -0.3669
   21SAPC   H5Y 2788   3.420   2.512  10.144  1.1225 -1.9874  3.1810
   21SAPC   C36 2789   3.519   2.430   9.966  1.0139 -0.7267  0.0063
   21SAPC   H6X 2790   3.465   2.335   9.984 -2.4574  0.9406 -0.8586
   21SAPC   H6Y 2791   3.625   2.409   9.938  1.1066 -0.9474  0.5183
   21SAPC   C37 2792   3.455   2.491   9.840  0.0145 -0.1927  0.6198
   21SAPC   H7X 2793   3.494   2.592   9.816 -1.0560  0.2056  0.5110
   21SAPC   H7Y 2794   3.345   2.505   9.853  0.1530  0.1611  1.4260
   21SAPC   C38 2795   3.478   2.402   9.717  0.4678 -0.2468 -0.1522
   21SAPC   H8X 2796   3.446   2.301   9.750 -2.1980  0.0527 -1.5432
   21SAPC   H8Y 2797   3.584   2.398   9.682  0.2018 -1.4466 -0.9001
   21SAPC   C39 2798   3.394   2.445   9.598  0.8756 -0.1090  0.8036
   21SAPC   H9X 2799   3.451   2.532   9.558 -0.0981  1.1442  2.0177
   21SAPC   H9Y 2800   3.292   2.481   9.624  1.5331  2.1730  0.5014
   21SAPC  C310 2801   3.396   2.335   9.495  0.5922  0.0087  0.3356
   21SAPC  H10X 2802   3.318   2.256   9.504 -1.7536  2.0949 -0.5597
   21SAPC  H10Y 2803   3.496   2.286   9.503 -0.3470 -2.0846  0.0880
   21SAPC  C311 2804   3.370   2.395   9.352 -0.0872 -0.0333 -0.1346
   21SAPC  H11X 2805   3.447   2.471   9.327 -0.9946  1.4972  1.5091
   21SAPC  H11Y 2806   3.277   2.454   9.339  1.1700  2.1980  0.3925
   21SAPC  C312 2807   3.375   2.276   9.248  0.2239  0.0874 -0.8988
   21SAPC  H12X 2808   3.285   2.213   9.265 -1.7220  2.5416 -1.3036
   21SAPC  H12Y 2809   3.467   2.219   9.271 -0.1589  0.0951  0.8083
   21SAPC  C313 2810   3.381   2.321   9.102 -0.3172  0.1201 -0.3624
   21SAPC  H13X 2811   3.484   2.362   9.090 -0.8505  1.4100 -0.6215
   21SAPC  H13Y 2812   3.300   2.392   9.077  0.0713  0.0635 -1.8996
   21SAPC  C314 2813   3.378   2.200   9.012  0.3629  0.0300 -0.0742
   21SAPC  H14X 2814   3.289   2.135   9.022  0.0552  0.3433 -0.7468
   21SAPC  H14Y 2815   3.459   2.126   9.026 -0.3663 -0.9532 -0.9420
   21SAPC  C315 2816   3.390   2.244   8.871 -0.0892 -0.0933  0.1835
   21SAPC  H15X 2817   3.489   2.293   8.856  1.0422 -2.4907 -0.7220
   21SAPC  H15Y 2818   3.311   2.316   8.844 -0.0529 -0.0534  0.1827
   21SAPC  C316 2819   3.373   2.122   8.772 -0.7603  0.0611  0.6515
   21SAPC  H16X 2820   3.265   2.098   8.759 -0.1119 -1.9510 -1.7672
   21SAPC  H16Y 2821   3.421   2.026   8.801 -1.1884 -0.9707 -1.8048
   21SAPC  C317 2822   3.421   2.155   8.624 -0.2216  0.6785 -0.7033
   21SAPC  H17X 2823   3.524   2.196   8.628  0.9360 -2.0419  2.8269
   21SAPC  H17Y 2824   3.348   2.233   8.595 -0.0379  1.1381  0.0577
   21SAPC  C318 2825   3.409   2.045   8.515 -0.1641  0.3739  0.1439
   21SAPC  H18X 2826   3.307   2.001   8.525 -0.3295  0.4466 -1.0415
   21SAPC  H18Y 2827   3.476   1.957   8.531 -0.4183 -0.2218 -1.8193
   21SAPC  H18Z 2828   3.428   2.084   8.413  2.4860  0.0907  0.4510
   22SAPC     N 2829   5.084   1.558  10.873  0.4850 -0.4379  0.5592
   22SAPC   C12 2830   5.002   1.646  10.967  0.7662  0.0652 -0.6012
   22SAPC  H12A 2831   4.974   1.736  10.915 -0.0014  0.1166 -0.1119
   22SAPC  H12B 2832   5.070   1.669  11.048 -1.2143 -0.9484  1.4764
   22SAPC   C13 2833   5.115   1.436  10.951 -0.0794 -0.1817 -0.7709
   22SAPC  H13A 2834   5.177   1.376  10.887  1.2023 -0.5014  0.7274
   22SAPC  H13B 2835   5.170   1.461  11.041  1.5422 -1.6734 -1.2979
   22SAPC  H13C 2836   5.031   1.374  10.980  0.1891  0.2247  1.0142
   22SAPC   C14 2837   5.005   1.512  10.755 -0.3671  0.0027 -0.9289
   22SAPC  H14A 2838   4.935   1.434  10.783  0.5098 -0.5876 -0.3261
   22SAPC  H14B 2839   4.951   1.594  10.710 -0.5380  0.2952 -0.1914
   22SAPC  H14C 2840   5.076   1.485  10.678  0.5036  1.8445 -0.8313
   22SAPC   C15 2841   5.201   1.638  10.842  0.1856 -0.5368  0.1650
   22SAPC  H15A 2842   5.183   1.717  10.771  3.0463  0.5828  0.5502
   22SAPC  H15B 2843   5.242   1.677  10.934  0.8771  1.4954 -0.9378
   22SAPC  H15C 2844   5.276   1.577  10.792  0.2152  2.2604 -3.6146
   22SAPC   C11 2845   4.865   1.586  11.014  0.3943 -0.3526  0.1938
   22SAPC  H11A 2846   4.826   1.646  11.098  0.2935  0.8983 -0.7205
   22SAPC  H11B 2847   4.871   1.484  11.058  0.5777  0.1416  1.3530
   22SAPC     P 2848   4.681   1.708  10.874  0.1391 -0.1922  0.1320
   22SAPC   O13 2849   4.556   1.701  10.952 -0.4322  0.1450 -0.5990
   22SAPC   O14 2850   4.763   1.835  10.880  0.5051 -0.4227 -0.9004
   22SAPC   O12 2851   4.774   1.581  10.900  0.0422 -0.7506 -0.8507
   22SAPC   O11 2852   4.634   1.688  10.727 -0.0135 -0.0696  0.1685
   22SAPC    C1 2853   4.608   1.561  10.673  0.3117  0.3583 -0.2723
   22SAPC    HA 2854   4.705   1.508  10.667  0.3462  0.4082 -0.1654
   22SAPC    HB 2855   4.546   1.503  10.745 -1.0171 -0.1129 -1.7509
   22SAPC    C2 2856   4.522   1.558  10.542 -0.2654 -0.1666 -0.9341
   22SAPC    HS 2857   4.484   1.455  10.527 -0.5284 -0.0955 -0.7779
   22SAPC   O21 2858   4.611   1.579  10.435 -0.4846 -0.2662  0.0143
   22SAPC   C21 2859   4.684   1.478  10.401  0.1037 -0.8744 -0.2027
   22SAPC   O22 2860   4.683   1.369  10.454  0.3531  0.2639 -0.5119
   22SAPC   C22 2861   4.777   1.517  10.286 -0.0236  0.6712  0.6592
   22SAPC   H2R 2862   4.798   1.626  10.291  0.4196  0.6091  0.2655
   22SAPC   H2S 2863   4.866   1.453  10.298 -0.3819 -0.1686 -0.8748
   22SAPC    C3 2864   4.407   1.669  10.541  0.4029  0.5529 -0.2030
   22SAPC    HX 2865   4.450   1.766  10.576  2.6328 -0.4793  0.0744
   22SAPC    HY 2866   4.325   1.636  10.608  1.2115  0.4033  0.7344
   22SAPC   O31 2867   4.355   1.692  10.412 -0.4938  0.4514  0.5261
   22SAPC   C31 2868   4.265   1.788  10.391 -0.2030 -0.8505 -0.4168
   22SAPC   O32 2869   4.228   1.871  10.471 -0.8281 -0.3495  0.6703
   22SAPC   C32 2870   4.221   1.786  10.244 -0.1277  0.1195 -0.3366
   22SAPC   H2X 2871   4.138   1.712  10.238  1.3916 -1.6375 -1.0136
   22SAPC   H2Y 2872   4.302   1.738  10.185  0.8101  0.2778  0.7880
   22SAPC   C23 2873   4.725   1.477  10.147 -0.9919 -0.3617  0.4564
   22SAPC   H3R 2874   4.665   1.384  10.157 -1.5150  0.1801  2.7254
   22SAPC   H3S 2875   4.807   1.440  10.082  1.4759  2.1928  1.9325
   22SAPC   C24 2876   4.646   1.581  10.076 -0.7182  0.7699 -0.2975
   22SAPC   H4R 2877   4.557   1.612  10.135 -0.6741 -0.2276  0.3238
   22SAPC   H4S 2878   4.599   1.534   9.987 -0.7287  1.1842 -0.5093
   22SAPC   C25 2879   4.713   1.708  10.040  0.0586  0.0718 -0.1858
   22SAPC   H5R 2880   4.748   1.769  10.124  1.6455 -0.6969 -0.2393
   22SAPC   C26 2881   4.719   1.761   9.919 -1.0863 -0.3334 -0.5578
   22SAPC   H6R 2882   4.780   1.852   9.906  0.3783 -1.3185 -0.7671
   22SAPC   C27 2883   4.674   1.687   9.792 -0.0254 -0.3090 -0.1657
   22SAPC   H7R 2884   4.577   1.640   9.815 -0.9416  1.7793  0.5017
   22SAPC   H7S 2885   4.745   1.607   9.762 -1.6432 -1.6865 -0.4402
   22SAPC   C28 2886   4.651   1.783   9.674 -0.2714  0.4680 -0.0449
   22SAPC   H8R 2887   4.680   1.887   9.693  0.1645 -0.1618  3.4174
   22SAPC   C29 2888   4.615   1.746   9.557  0.4350  0.0994  0.3587
   22SAPC   H9R 2889   4.602   1.822   9.479 -0.7763  0.1952  0.6382
   22SAPC  C210 2890   4.579   1.606   9.511 -0.1783  0.0600  0.1589
   22SAPC  H10R 2891   4.479   1.608   9.463 -0.1242  1.0709  0.0632
   22SAPC  H10S 2892   4.554   1.529   9.587 -2.2779 -1.2362 -1.7445
   22SAPC  C211 2893   4.693   1.551   9.429 -1.3531 -0.3012  0.2421
   22SAPC  H11R 2894   4.793   1.546   9.475 -1.2046  2.0703  0.3267
   22SAPC  C212 2895   4.678   1.512   9.305 -0.6894 -0.3159  0.4638
   22SAPC  H12R 2896   4.770   1.485   9.251 -0.5268 -1.1176  1.1203
   22SAPC  C213 2897   4.545   1.497   9.237 -0.5867 -0.4271  0.4762
   22SAPC  H13R 2898   4.481   1.586   9.254  0.7444  0.5900  0.2757
   22SAPC  H13S 2899   4.486   1.409   9.270  0.0006 -1.3046 -0.7512
   22SAPC  C214 2900   4.556   1.473   9.087 -0.0560 -0.0098 -1.1241
   22SAPC  H14R 2901   4.648   1.503   9.034 -0.8032  0.7876 -1.9919
   22SAPC  C215 2902   4.456   1.422   9.013  0.0730  0.2301  0.1865
   22SAPC  H15R 2903   4.466   1.415   8.904  1.7575 -0.5815  0.3623
   22SAPC  C216 2904   4.322   1.384   9.071 -0.1703 -0.0267  0.7268
   22SAPC  H16R 2905   4.240   1.422   9.006 -0.5923 -0.3814  1.0445
   22SAPC  H16S 2906   4.298   1.413   9.176 -1.3695 -0.2905  0.5425
   22SAPC  C217 2907   4.308   1.224   9.068  0.1997  0.1226 -0.0561
   22SAPC  H17R 2908   4.385   1.171   9.127 -1.1594  0.2730  1.9661
   22SAPC  H17S 2909   4.325   1.200   8.961  0.2000  1.1841 -0.3145
   22SAPC  C218 2910   4.178   1.183   9.129  0.7126  0.5090 -0.1180
   22SAPC  H18R 2911   4.097   1.239   9.077 -0.0312 -0.9238 -0.5551
   22SAPC  H18S 2912   4.162   1.206   9.237 -1.5970 -1.8272  0.1379
   22SAPC  C219 2913   4.137   1.037   9.100 -0.5610  0.3259 -0.1518
   22SAPC  H19R 2914   4.218   0.973   9.141  3.4018  2.4857 -3.7512
   22SAPC  H19S 2915   4.139   1.024   8.990  0.3553  1.0887 -0.2418
   22SAPC  C220 2916   3.992   1.010   9.137  0.0806 -0.0092  0.1622
   22SAPC  H20R 2917   3.962   0.911   9.097  2.0993 -0.4017 -0.5188
   22SAPC  H20S 2918   3.940   1.095   9.087 -2.5504 -1.6704 -0.0775
   22SAPC  H20T 2919   3.976   1.023   9.246  1.7608  1.9377  0.2580
   22SAPC   C33 2920   4.182   1.922  10.178 -0.1278  0.0769 -0.5124
   22SAPC   H3X 2921   4.274   1.983  10.173  0.0398 -0.1394 -0.0553
   22SAPC   H3Y 2922   4.106   1.975  10.240  0.7118  1.0758 -0.3066
   22SAPC   C34 2923   4.142   1.911  10.030  0.0458 -0.2660  0.1823
   22SAPC   H4X 2924   4.128   2.007   9.975 -0.9720 -2.1029 -3.0112
   22SAPC   H4Y 2925   4.044   1.859  10.038  0.9124 -2.0169 -0.3082
   22SAPC   C35 2926   4.229   1.820   9.939 -0.7042 -0.2537 -0.0179
   22SAPC   H5X 2927   4.307   1.759   9.990  1.3860  1.5861 -0.8715
   22SAPC   H5Y 2928   4.290   1.890   9.879  0.2393 -0.5390  0.5856
   22SAPC   C36 2929   4.140   1.720   9.856 -0.5328  0.2991 -0.7412
   22SAPC   H6X 2930   4.041   1.767   9.869  0.3741  1.7133  1.8624
   22SAPC   H6Y 2931   4.143   1.625   9.913 -1.3562  1.0387  0.5870
   22SAPC   C37 2932   4.187   1.705   9.710  0.7296  0.8499 -0.6409
   22SAPC   H7X 2933   4.118   1.637   9.656  2.9059 -3.0063  1.0515
   22SAPC   H7Y 2934   4.282   1.647   9.708 -0.5349 -1.3753  0.3296
   22SAPC   C38 2935   4.183   1.840   9.629 -0.2445  0.2550 -0.5516
   22SAPC   H8X 2936   4.262   1.908   9.667 -1.8618  1.7117  0.3318
   22SAPC   H8Y 2937   4.086   1.892   9.644 -0.0465  0.1260  1.4476
   22SAPC   C39 2938   4.205   1.801   9.482 -0.0754  0.0466 -0.1202
   22SAPC   H9X 2939   4.117   1.743   9.445 -1.6821  2.8270 -0.9700
   22SAPC   H9Y 2940   4.287   1.727   9.478  1.0671  1.2681 -0.0320
   22SAPC  C310 2941   4.239   1.924   9.397 -0.8296 -0.4508  1.4702
   22SAPC  H10X 2942   4.310   1.991   9.450 -0.3285  0.3157 -0.1130
   22SAPC  H10Y 2943   4.146   1.984   9.391 -0.0589  0.7065  0.7012
   22SAPC  C311 2944   4.305   1.907   9.262 -0.6511  0.9960 -0.1264
   22SAPC  H11X 2945   4.412   1.909   9.289 -0.6858  1.3046  0.0030
   22SAPC  H11Y 2946   4.291   1.998   9.198  1.2036  2.4856  1.4755
   22SAPC  C312 2947   4.262   1.783   9.186  0.2153 -0.3285 -0.2721
   22SAPC  H12X 2948   4.153   1.762   9.188  0.3428 -0.9411  1.0938
   22SAPC  H12Y 2949   4.302   1.694   9.239 -0.8038  0.0062  1.1224
   22SAPC  C313 2950   4.312   1.781   9.039 -0.3322  0.0634  0.4782
   22SAPC  H13X 2951   4.309   1.675   9.007 -2.1734  0.5603 -1.2192
   22SAPC  H13Y 2952   4.418   1.811   9.027 -0.6519  0.9154 -0.3819
   22SAPC  C314 2953   4.215   1.855   8.948  0.1632 -0.0315 -0.6481
   22SAPC  H14X 2954   4.200   1.954   8.995 -2.7343 -0.1123 -1.1878
   22SAPC  H14Y 2955   4.113   1.811   8.944 -0.3223  1.1394 -2.6500
   22SAPC  C315 2956   4.262   1.862   8.803 -0.3882  0.0494  0.1638
   22SAPC  H15X 2957   4.356   1.921   8.800  0.5452 -1.4392 -0.7755
   22SAPC  H15Y 2958   4.189   1.934   8.760  0.9397  1.3668  0.0206
   22SAPC  C316 2959   4.278   1.732   8.730  0.0437  0.1885 -0.0459
   22SAPC  H16X 2960   4.364   1.671   8.766 -3.0287 -2.3231  3.7848
   22SAPC  H16Y 2961   4.293   1.740   8.620 -1.3580 -0.3997 -0.2986
   22SAPC  C317 2962   4.163   1.628   8.744 -0.2306  0.7263 -0.7860
   22SAPC  H17X 2963   4.068   1.674   8.710 -2.2137 -1.3239  1.5251
   22SAPC  H17Y 2964   4.151   1.598   8.850  2.3198 -0.6197 -0.7989
   22SAPC  C318 2965   4.194   1.499   8.666  0.2592 -0.0063 -0.3917
   22SAPC  H18X 2966   4.096   1.448   8.663 -0.9366  2.1984 -1.5977
   22SAPC  H18Y 2967   4.263   1.433   8.722 -0.6283  0.4477  1.3151
   22SAPC  H18Z 2968   4.236   1.525   8.566  1.9668 -2.4692 -0.3897
   23SAPC     N 2969   1.342   0.550  11.096 -0.2833  0.7480 -0.3353
   23SAPC   C12 2970   1.362   0.670  11.005 -0.0929  0.1526  0.4135
   23SAPC  H12A 2971   1.431   0.740  11.050  1.5829 -1.2451  0.1354
   23SAPC  H12B 2972   1.270   0.725  10.992 -0.5326 -0.2645  1.6516
   23SAPC   C13 2973   1.307   0.593  11.235  0.0061  0.6172  0.0294
   23SAPC  H13A 2974   1.215   0.649  11.240  0.1954  0.9789 -0.5351
   23SAPC  H13B 2975   1.279   0.504  11.290 -0.3066  0.5406 -0.2485
   23SAPC  H13C 2976   1.398   0.629  11.282  0.0130  0.6530 -0.0120
   23SAPC   C14 2977   1.231   0.468  11.035 -0.2689 -0.1248 -0.3075
   23SAPC  H14A 2978   1.133   0.512  11.038 -1.3712 -2.0232 -3.4430
   23SAPC  H14B 2979   1.257   0.454  10.931  1.1585 -0.4152  0.0652
   23SAPC  H14C 2980   1.230   0.371  11.084 -2.7107 -0.4067 -0.7939
   23SAPC   C15 2981   1.460   0.462  11.099  0.0070 -0.0888  0.4522
   23SAPC  H15A 2982   1.488   0.421  11.003  0.3808 -1.6898  1.2153
   23SAPC  H15B 2983   1.551   0.509  11.130 -0.0101  0.7476 -0.6914
   23SAPC  H15C 2984   1.442   0.378  11.164 -0.1195 -1.9847 -1.8742
   23SAPC   C11 2985   1.422   0.659  10.862 -0.0808  0.1749  0.7913
   23SAPC  H11A 2986   1.520   0.606  10.859  0.2468  0.8020  0.0116
   23SAPC  H11B 2987   1.447   0.761  10.825 -1.0734  0.1179 -0.0846
   23SAPC     P 2988   1.387   0.478  10.680  0.3045 -0.5651  0.4171
   23SAPC   O13 2989   1.448   0.370  10.766  0.1327  0.2803 -1.0016
   23SAPC   O14 2990   1.275   0.446  10.587 -0.5589 -0.0847  0.2090
   23SAPC   O12 2991   1.332   0.596  10.776  0.3490 -0.1096  0.4114
   23SAPC   O11 2992   1.509   0.543  10.600  0.1459 -0.7260  0.1540
   23SAPC    C1 2993   1.497   0.672  10.538  0.9626  0.4918 -0.7373
   23SAPC    HA 2994   1.415   0.732  10.582 -1.1081 -1.6697 -1.4531
   23SAPC    HB 2995   1.589   0.725  10.571  1.4328 -0.9473  0.3750
   23SAPC    C2 2996   1.488   0.653  10.390 -0.0245  0.5412  0.0981
   23SAPC    HS 2997   1.390   0.603  10.375 -1.4343  1.3057  4.8720
   23SAPC   O21 2998   1.602   0.577  10.342  0.0593 -0.2985  0.4433
   23SAPC   C21 2999   1.562   0.483  10.250 -0.2201  0.5990 -0.2250
   23SAPC   O22 3000   1.445   0.454  10.221  0.0462 -0.1231 -0.3298
   23SAPC   C22 3001   1.690   0.422  10.196 -0.2661 -0.0425  0.1448
   23SAPC   H2R 3002   1.761   0.507  10.183 -1.3106  0.7182 -0.7964
   23SAPC   H2S 3003   1.731   0.365  10.282 -0.0724  0.5466  0.4510
   23SAPC    C3 3004   1.492   0.786  10.312  0.0007 -0.1927 -0.4842
   23SAPC    HX 3005   1.595   0.823  10.329 -0.6479  0.6992  1.9847
   23SAPC    HY 3006   1.420   0.855  10.361  0.5394 -1.0479  1.6585
   23SAPC   O31 3007   1.481   0.768  10.174 -0.5321 -0.3800 -0.2226
   23SAPC   C31 3008   1.360   0.791  10.126  0.3962 -0.6977 -1.0441
   23SAPC   O32 3009   1.259   0.813  10.194  0.3686 -0.0652  0.3458
   23SAPC   C32 3010   1.368   0.758   9.976 -0.0940  0.5242 -0.1595
   23SAPC   H2X 3011   1.447   0.681   9.964 -0.7273 -0.1309 -0.1907
   23SAPC   H2Y 3012   1.404   0.856   9.937 -0.8298  0.1292 -1.9747
   23SAPC   C23 3013   1.676   0.346  10.063 -0.0510  0.5336 -1.0637
   23SAPC   H3R 3014   1.583   0.285  10.053  0.0150  0.2828 -0.1780
   23SAPC   H3S 3015   1.755   0.268  10.070 -0.7205 -0.0685 -0.0036
   23SAPC   C24 3016   1.696   0.418   9.936 -0.2048  0.5119 -0.1402
   23SAPC   H4R 3017   1.621   0.498   9.916 -0.8444 -0.5665 -2.3496
   23SAPC   H4S 3018   1.681   0.340   9.859  0.0404  1.0890 -0.7891
   23SAPC   C25 3019   1.836   0.467   9.929 -0.2943  0.2464 -0.0660
   23SAPC   H5R 3020   1.914   0.395   9.957  0.4582  0.2181 -2.0936
   23SAPC   C26 3021   1.881   0.585   9.880 -0.5649  0.2470 -0.0893
   23SAPC   H6R 3022   1.988   0.608   9.894 -0.1594 -2.2179  1.6071
   23SAPC   C27 3023   1.790   0.694   9.833 -0.2548  0.1434  0.1512
   23SAPC   H7R 3024   1.850   0.781   9.799  0.4820  0.8532  3.0194
   23SAPC   H7S 3025   1.741   0.742   9.921 -0.7546  3.4037 -1.7451
   23SAPC   C28 3026   1.689   0.669   9.721 -0.7084 -0.4832  0.4379
   23SAPC   H8R 3027   1.584   0.684   9.752 -0.6497  0.7127  0.0900
   23SAPC   C29 3028   1.723   0.627   9.601  0.5726 -0.5374 -0.3216
   23SAPC   H9R 3029   1.635   0.622   9.536 -0.1153 -0.1985  0.5595
   23SAPC  C210 3030   1.858   0.591   9.548  0.4222  0.6530 -0.0277
   23SAPC  H10R 3031   1.929   0.574   9.631 -1.1094  1.2264  1.4534
   23SAPC  H10S 3032   1.901   0.658   9.471  1.0262  0.7586  0.3930
   23SAPC  C211 3033   1.848   0.453   9.494 -0.0644  0.8024 -0.4343
   23SAPC  H11R 3034   1.916   0.377   9.536 -0.3952 -0.6569 -2.4227
   23SAPC  C212 3035   1.780   0.415   9.385  0.1563  0.2905  0.7709
   23SAPC  H12R 3036   1.774   0.312   9.348  0.3541  0.4330  0.3382
   23SAPC  C213 3037   1.705   0.509   9.296 -0.2080 -0.1331 -0.1609
   23SAPC  H13R 3038   1.767   0.601   9.287  1.5886 -1.1554  1.2978
   23SAPC  H13S 3039   1.605   0.527   9.340 -0.1993 -2.2810  0.8589
   23SAPC  C214 3040   1.683   0.450   9.158  0.9424 -0.0045  0.7243
   23SAPC  H14R 3041   1.762   0.479   9.087  2.0970  0.5516  2.1593
   23SAPC  C215 3042   1.592   0.354   9.127  0.1037  0.0782 -0.7276
   23SAPC  H15R 3043   1.576   0.320   9.024 -0.7185  0.0706 -0.6007
   23SAPC  C216 3044   1.488   0.293   9.227 -0.1483 -0.4754  0.5570
   23SAPC  H16R 3045   1.431   0.378   9.272 -0.4111 -1.1297  1.4945
   23SAPC  H16S 3046   1.542   0.239   9.308  0.1659  0.4142  0.9534
   23SAPC  C217 3047   1.392   0.203   9.151  0.1550 -0.0472 -0.1458
   23SAPC  H17R 3048   1.373   0.248   9.052  0.8358  3.5188  1.1908
   23SAPC  H17S 3049   1.297   0.204   9.207 -0.7520 -1.3049 -1.5902
   23SAPC  C218 3050   1.438   0.059   9.143  0.3352 -0.2500 -0.2760
   23SAPC  H18R 3051   1.495   0.032   9.235 -1.2053  0.8239  1.0436
   23SAPC  H18S 3052   1.502   0.027   9.058  0.5394  0.1377 -0.2688
   23SAPC  C219 3053   1.320  -0.041   9.130  0.3780  0.3390 -0.1710
   23SAPC  H19R 3054   1.251  -0.019   9.213  0.8313 -1.0786  0.6273
   23SAPC  H19S 3055   1.349  -0.148   9.139 -0.8110 -0.0072 -0.3700
   23SAPC  C220 3056   1.244  -0.027   8.996  0.0107 -0.5371 -1.0066
   23SAPC  H20R 3057   1.316  -0.017   8.911 -0.2335 -1.2608 -1.3030
   23SAPC  H20S 3058   1.190   0.070   8.999 -0.0285 -0.4804 -2.5298
   23SAPC  H20T 3059   1.168  -0.104   8.972 -0.0600 -0.3087 -1.5393
   23SAPC   C33 3060   1.225   0.717   9.929  0.6592 -0.1795 -0.2951
   23SAPC   H3X 3061   1.151   0.800   9.940  0.4453 -0.2892 -0.8516
   23SAPC   H3Y 3062   1.183   0.638   9.995  1.6616  0.7523  1.5181
   23SAPC   C34 3063   1.207   0.680   9.786 -0.3399 -0.1363 -0.0652
   23SAPC   H4X 3064   1.242   0.575   9.781 -0.8942 -0.4107  1.2929
   23SAPC   H4Y 3065   1.261   0.746   9.715  0.3015 -0.1076  0.4339
   23SAPC   C35 3066   1.060   0.680   9.751  0.0705  0.1865  0.3729
   23SAPC   H5X 3067   1.026   0.785   9.763  1.7124  0.8544 -0.5459
   23SAPC   H5Y 3068   0.990   0.630   9.821  1.4517  0.6907  2.2017
   23SAPC   C36 3069   1.031   0.638   9.610  0.1107 -0.0811  1.2355
   23SAPC   H6X 3070   0.928   0.663   9.575  0.2008 -1.1019  0.1653
   23SAPC   H6Y 3071   1.059   0.530   9.608  3.0680  0.6288 -0.2952
   23SAPC   C37 3072   1.123   0.688   9.496 -0.4175  1.0619  0.0141
   23SAPC   H7X 3073   1.230   0.664   9.515 -0.0633  1.3188 -1.5240
   23SAPC   H7Y 3074   1.114   0.795   9.525 -0.0403  0.8591  0.9241
   23SAPC   C38 3075   1.086   0.654   9.349  0.8285  1.0746  0.4623
   23SAPC   H8X 3076   0.994   0.710   9.325  1.5555  3.0893  2.0643
   23SAPC   H8Y 3077   1.064   0.545   9.354  3.1567  0.5175 -0.2394
   23SAPC   C39 3078   1.203   0.642   9.256  0.5408  0.7495  0.0689
   23SAPC   H9X 3079   1.269   0.558   9.286  0.8015  0.7830 -0.4020
   23SAPC   H9Y 3080   1.270   0.731   9.254  0.5435  0.7733  0.9264
   23SAPC  C310 3081   1.161   0.630   9.111 -0.5638 -0.0355  0.1747
   23SAPC  H10X 3082   1.111   0.724   9.080  0.3449 -0.1961 -1.9095
   23SAPC  H10Y 3083   1.077   0.558   9.111 -0.6102 -0.0637 -2.2759
   23SAPC  C311 3084   1.275   0.601   9.013  0.4838  1.0079  0.1111
   23SAPC  H11X 3085   1.320   0.512   9.061 -1.5741  0.3736  1.0032
   23SAPC  H11Y 3086   1.350   0.682   9.005 -0.4605  2.1734  2.2738
   23SAPC  C312 3087   1.223   0.552   8.875  0.0820  0.0198 -0.2646
   23SAPC  H12X 3088   1.179   0.641   8.826  1.2272  2.0694  2.1989
   23SAPC  H12Y 3089   1.141   0.478   8.883 -1.5993  1.5741 -2.0301
   23SAPC  C313 3090   1.330   0.489   8.794  0.1055  1.0981  0.2044
   23SAPC  H13X 3091   1.357   0.390   8.837 -1.0335 -0.3071 -2.1201
   23SAPC  H13Y 3092   1.416   0.558   8.788 -0.1302  1.2992 -1.2698
   23SAPC  C314 3093   1.287   0.451   8.648  0.6790  0.2176 -0.2849
   23SAPC  H14X 3094   1.371   0.420   8.583 -0.6055 -1.3524 -1.2546
   23SAPC  H14Y 3095   1.245   0.545   8.606  0.5156  0.1508 -0.2739
   23SAPC  C315 3096   1.180   0.334   8.652  0.3990 -0.2510  0.0970
   23SAPC  H15X 3097   1.090   0.367   8.707  0.9150  2.0116 -0.3138
   23SAPC  H15Y 3098   1.228   0.245   8.698 -0.4442 -0.5019  0.5013
   23SAPC  C316 3099   1.138   0.294   8.512 -0.5690  0.1907  0.2675
   23SAPC  H16X 3100   1.218   0.241   8.454 -1.5842  0.5172 -1.5077
   23SAPC  H16Y 3101   1.120   0.387   8.455  0.1863  0.6455  0.7427
   23SAPC  C317 3102   1.014   0.215   8.516 -0.2835  0.2993  0.0041
   23SAPC  H17X 3103   0.974   0.202   8.413 -2.1454  0.7178  0.6366
   23SAPC  H17Y 3104   0.944   0.280   8.572 -0.1574 -1.4360  2.3298
   23SAPC  C318 3105   1.027   0.081   8.594  0.4062 -0.2132 -0.0772
   23SAPC  H18X 3106   0.949   0.013   8.554  1.0404  0.2691 -2.3131
   23SAPC  H18Y 3107   1.028   0.095   8.704  1.3069 -2.9572  0.3409
   23SAPC  H18Z 3108   1.120   0.030   8.559 -1.0452 -1.1225 -3.0103
   24SAPC     N 3109   4.357   5.028  10.751 -0.4328  0.9004 -0.5045
   24SAPC   C12 3110   4.424   4.934  10.853 -0.6780  0.4411 -0.3134
   24SAPC  H12A 3111   4.430   4.994  10.942 -0.9973  0.1069 -0.0611
   24SAPC  H12B 3112   4.527   4.908  10.834 -0.4988 -0.6463  1.8702
   24SAPC   C13 3113   4.236   5.085  10.800 -0.8014  0.0938 -0.7487
   24SAPC  H13A 3114   4.258   5.125  10.898  0.4071  0.0599 -1.0012
   24SAPC  H13B 3115   4.184   5.161  10.744  1.6412  2.8630  0.5010
   24SAPC  H13C 3116   4.164   5.011  10.835 -0.4942  0.1884  0.1054
   24SAPC   C14 3117   4.443   5.143  10.716 -0.3705 -0.4905  0.1453
   24SAPC  H14A 3118   4.550   5.133  10.725 -0.0044  3.4498  2.5984
   24SAPC  H14B 3119   4.431   5.172  10.612  1.7908 -1.8523 -0.5420
   24SAPC  H14C 3120   4.423   5.223  10.786 -1.1800 -0.0556 -0.5562
   24SAPC   C15 3121   4.318   4.950  10.629  0.3965  0.3046  0.0119
   24SAPC  H15A 3122   4.287   4.850  10.652 -0.9113  0.2710 -1.7293
   24SAPC  H15B 3123   4.232   5.000  10.586 -0.2376 -1.6567 -1.0895
   24SAPC  H15C 3124   4.396   4.946  10.554  0.9795  5.0733  0.0599
   24SAPC   C11 3125   4.347   4.795  10.891 -0.3383  0.3319  0.7207
   24SAPC  H11A 3126   4.396   4.746  10.978  1.8770  0.5095 -0.3479
   24SAPC  H11B 3127   4.362   4.729  10.803 -0.1445 -0.7655  1.5453
   24SAPC     P 3128   4.089   4.732  10.885 -0.1968  0.2097  0.1471
   24SAPC   O13 3129   4.142   4.612  10.827 -0.1978 -0.5258  0.6286
   24SAPC   O14 3130   4.000   4.714  11.001 -0.4781 -0.0706 -0.0944
   24SAPC   O12 3131   4.206   4.819  10.919 -0.4098 -0.2076  0.0603
   24SAPC   O11 3132   4.028   4.832  10.780 -0.2791  0.4456  0.7151
   24SAPC    C1 3133   3.891   4.885  10.769 -0.5949 -0.0202 -0.0199
   24SAPC    HA 3134   3.825   4.820  10.831  1.0260  1.5194  3.6726
   24SAPC    HB 3135   3.889   4.990  10.804  0.9448  0.4858 -1.3128
   24SAPC    C2 3136   3.835   4.878  10.619  0.2800  0.5288 -0.3917
   24SAPC    HS 3137   3.727   4.900  10.637  0.4394 -1.0422  3.0769
   24SAPC   O21 3138   3.862   4.751  10.568  0.4600 -0.0726 -0.1451
   24SAPC   C21 3139   3.796   4.656  10.619 -0.0639  0.3728 -0.7323
   24SAPC   O22 3140   3.699   4.657  10.697 -0.4614 -0.4202 -0.4389
   24SAPC   C22 3141   3.848   4.522  10.556 -0.2361 -0.0391 -0.2914
   24SAPC   H2R 3142   3.948   4.546  10.513  0.3160  2.4518  2.0875
   24SAPC   H2S 3143   3.856   4.449  10.639  0.2449 -0.6179 -0.8307
   24SAPC    C3 3144   3.892   4.998  10.541  0.2559  0.1573  0.0477
   24SAPC    HX 3145   4.001   5.003  10.561  0.7424 -2.6162 -1.4355
   24SAPC    HY 3146   3.855   5.100  10.566  1.3806  0.4576  0.5628
   24SAPC   O31 3147   3.873   4.976  10.399 -0.4561  0.3971 -0.3609
   24SAPC   C31 3148   3.974   4.920  10.334  0.4172  0.8622 -0.4040
   24SAPC   O32 3149   4.083   4.889  10.383  0.4396  0.1236 -0.4118
   24SAPC   C32 3150   3.940   4.917  10.182  0.4456 -0.1428 -0.2596
   24SAPC   H2X 3151   3.922   5.023  10.154 -2.9869 -0.4430  0.3742
   24SAPC   H2Y 3152   3.847   4.857  10.172 -0.6865  1.1287  1.9554
   24SAPC   C23 3153   3.769   4.466  10.437 -0.0971  0.5343 -0.4010
   24SAPC   H3R 3154   3.661   4.457  10.464  0.0145  0.0139 -0.1014
   24SAPC   H3S 3155   3.801   4.363  10.410 -0.7349  0.4157 -0.7304
   24SAPC   C24 3156   3.799   4.546  10.308  0.3728 -0.7817 -0.3182
   24SAPC   H4R 3157   3.908   4.556  10.292  0.2365  2.3797  0.0024
   24SAPC   H4S 3158   3.758   4.649  10.322  0.0739 -0.3951 -3.3564
   24SAPC   C25 3159   3.733   4.495  10.190  0.2005 -0.1399  1.2397
   24SAPC   H5R 3160   3.624   4.510  10.193  0.4820  2.1911  1.4691
   24SAPC   C26 3161   3.792   4.437  10.085 -0.5366 -0.5955  0.0666
   24SAPC   H6R 3162   3.728   4.406  10.001 -0.1882  2.1267 -1.2919
   24SAPC   C27 3163   3.940   4.394  10.062  0.0192  0.0022  0.1766
   24SAPC   H7R 3164   3.991   4.493  10.065 -0.7881  0.4482 -0.3302
   24SAPC   H7S 3165   3.948   4.346   9.963 -1.4070  0.0612  0.0029
   24SAPC   C28 3166   3.997   4.294  10.165 -0.2952  0.8435  0.1027
   24SAPC   H8R 3167   3.955   4.195  10.143 -0.8672  1.1062  0.0014
   24SAPC   C29 3168   4.099   4.310  10.257  0.3629  0.5057 -0.2362
   24SAPC   H9R 3169   4.124   4.225  10.322  0.6003 -0.0948 -1.0961
   24SAPC  C210 3170   4.181   4.437  10.288 -0.2931  0.5377  0.0760
   24SAPC  H10R 3171   4.142   4.458  10.390  0.0242 -1.9192  0.7799
   24SAPC  H10S 3172   4.154   4.533  10.240 -0.8887  1.3152  1.8952
   24SAPC  C211 3173   4.328   4.412  10.282 -0.6331 -0.0084 -0.5705
   24SAPC  H11R 3174   4.364   4.332  10.348 -0.5575  1.5063  1.3331
   24SAPC  C212 3175   4.409   4.496  10.214 -0.2196 -0.1214 -0.5965
   24SAPC  H12R 3176   4.515   4.465  10.221 -0.3732 -0.3613  1.3448
   24SAPC  C213 3177   4.375   4.613  10.121 -0.8316  0.1986  0.4451
   24SAPC  H13R 3178   4.281   4.663  10.151  0.2485  1.5875  1.6105
   24SAPC  H13S 3179   4.368   4.554  10.027  0.7300 -2.1706  1.6977
   24SAPC  C214 3180   4.493   4.704  10.124  0.1451  0.1734 -0.2372
   24SAPC  H14R 3181   4.512   4.741  10.225 -0.3595 -2.2828  0.8246
   24SAPC  C215 3182   4.568   4.744  10.018 -0.4427  0.3437 -0.0500
   24SAPC  H15R 3183   4.653   4.809  10.043  0.4801 -1.7852  2.8846
   24SAPC  C216 3184   4.544   4.693   9.874  0.1648 -0.1669  0.1763
   24SAPC  H16R 3185   4.437   4.708   9.850 -0.2528 -2.4573  0.3464
   24SAPC  H16S 3186   4.560   4.583   9.875  0.4705 -0.1283 -0.4067
   24SAPC  C217 3187   4.635   4.738   9.764  0.1317  0.6423  0.8383
   24SAPC  H17R 3188   4.743   4.713   9.780  0.4939 -1.1278 -3.2136
   24SAPC  H17S 3189   4.621   4.846   9.746  2.2512  1.1478  1.8719
   24SAPC  C218 3190   4.611   4.672   9.628 -0.3247  0.0321  0.0360
   24SAPC  H18R 3191   4.523   4.720   9.579  1.1284 -1.0268 -4.0092
   24SAPC  H18S 3192   4.601   4.562   9.638  2.1825 -0.2722 -0.2963
   24SAPC  C219 3193   4.730   4.677   9.540 -0.4035 -0.7573 -0.1294
   24SAPC  H19R 3194   4.817   4.620   9.577 -2.0204 -1.7340  2.4756
   24SAPC  H19S 3195   4.765   4.782   9.536  1.3879 -1.3274 -0.3885
   24SAPC  C220 3196   4.692   4.632   9.397 -0.5368  0.2280 -0.1207
   24SAPC  H20R 3197   4.673   4.523   9.402  1.4439 -0.1089  1.0110
   24SAPC  H20S 3198   4.767   4.674   9.326 -0.4092  1.9638  0.9892
   24SAPC  H20T 3199   4.593   4.665   9.358 -0.1848 -1.1868 -2.4304
   24SAPC   C33 3200   4.054   4.849  10.098  0.1360 -0.3284  0.1033
   24SAPC   H3X 3201   4.069   4.741  10.120 -0.3195 -0.1304  1.4775
   24SAPC   H3Y 3202   4.153   4.891  10.128  1.0415 -3.3517  1.8224
   24SAPC   C34 3203   4.057   4.861   9.944  0.0828 -0.1798  0.6546
   24SAPC   H4X 3204   4.161   4.836   9.913 -0.8792 -1.0766 -2.1940
   24SAPC   H4Y 3205   4.039   4.965   9.909  0.5833  0.0919  1.1866
   24SAPC   C35 3206   3.969   4.764   9.873 -0.9656  0.3754 -0.7170
   24SAPC   H5X 3207   3.862   4.795   9.882 -0.3810  2.2983  0.2992
   24SAPC   H5Y 3208   3.973   4.667   9.925  1.9654 -1.4323 -3.9198
   24SAPC   C36 3209   4.009   4.742   9.728  0.8602  0.3727  0.1825
   24SAPC   H6X 3210   4.034   4.843   9.689  0.0021  0.8579  0.8541
   24SAPC   H6Y 3211   3.914   4.716   9.676  1.3450  2.3947 -1.8586
   24SAPC   C37 3212   4.113   4.640   9.699  0.8855 -0.2695 -0.1854
   24SAPC   H7X 3213   4.084   4.537   9.729  0.4449  0.0494  0.5262
   24SAPC   H7Y 3214   4.206   4.667   9.754  1.0605 -2.2235  0.5610
   24SAPC   C38 3215   4.149   4.640   9.551  0.0372 -0.0828  0.6779
   24SAPC   H8X 3216   4.184   4.742   9.525  1.1405 -0.6819 -0.2520
   24SAPC   H8Y 3217   4.052   4.620   9.502  0.7178  1.1436 -1.2615
   24SAPC   C39 3218   4.256   4.535   9.520  0.4054 -0.1333 -0.4263
   24SAPC   H9X 3219   4.212   4.433   9.526  0.9462 -0.3030  0.9204
   24SAPC   H9Y 3220   4.340   4.555   9.590  1.2179 -1.3510 -1.0136
   24SAPC  C310 3221   4.299   4.564   9.380 -0.0830  0.3026 -0.6916
   24SAPC  H10X 3222   4.378   4.488   9.362  3.1141  3.1334  0.4096
   24SAPC  H10Y 3223   4.352   4.659   9.361  1.4359 -0.8243 -2.4275
   24SAPC  C311 3224   4.185   4.550   9.285  0.3377  1.1680 -0.0208
   24SAPC  H11X 3225   4.106   4.628   9.287  0.5836  1.4736 -1.4225
   24SAPC  H11Y 3226   4.126   4.456   9.295  1.6941  0.3228  0.1664
   24SAPC  C312 3227   4.238   4.533   9.141  0.1527  0.0822  0.6773
   24SAPC  H12X 3228   4.294   4.437   9.129 -1.3690 -0.5429 -2.5654
   24SAPC  H12Y 3229   4.308   4.619   9.134 -1.7552  1.8202  1.7844
   24SAPC  C313 3230   4.127   4.530   9.035 -0.0911  0.2406  0.7046
   24SAPC  H13X 3231   4.057   4.615   9.048  0.6855  1.2835 -1.5654
   24SAPC  H13Y 3232   4.068   4.438   9.057  0.7858 -0.9743 -1.6914
   24SAPC  C314 3233   4.179   4.538   8.893  0.1642 -0.0731  0.0114
   24SAPC  H14X 3234   4.244   4.449   8.878  0.6869  0.3592 -0.3255
   24SAPC  H14Y 3235   4.241   4.629   8.875  1.0956 -1.1146 -2.4590
   24SAPC  C315 3236   4.064   4.544   8.789  0.4863  0.5476 -0.8559
   24SAPC  H15X 3237   4.010   4.640   8.794 -0.8733 -0.1546 -1.6359
   24SAPC  H15Y 3238   3.983   4.469   8.797 -0.2996  1.4936  0.5230
   24SAPC  C316 3239   4.117   4.541   8.650  0.3615 -0.2365  0.2778
   24SAPC  H16X 3240   4.034   4.540   8.576 -0.6611 -1.8298  1.3886
   24SAPC  H16Y 3241   4.159   4.439   8.635 -1.3217 -1.2922  2.2652
   24SAPC  C317 3242   4.213   4.658   8.615 -0.4568  0.0205 -0.0931
   24SAPC  H17X 3243   4.306   4.658   8.676 -1.4676  1.2543  1.5120
   24SAPC  H17Y 3244   4.168   4.756   8.641 -0.8442 -0.2334  0.1906
   24SAPC  C318 3245   4.251   4.672   8.469  0.6503 -0.0730 -0.6895
   24SAPC  H18X 3246   4.341   4.612   8.443  2.1797  1.4699  0.7260
   24SAPC  H18Y 3247   4.292   4.774   8.451 -0.8100  0.9448  1.3353
   24SAPC  H18Z 3248   4.167   4.649   8.401 -0.0230 -0.9995  0.4258
   25SAPC     N 3249   6.003   6.024   6.326 -0.0063 -0.3310 -0.3773
   25SAPC   C12 3250   6.101   6.047   6.443 -0.2224  0.8493 -0.3003
   25SAPC  H12A 3251   6.204   6.065   6.418 -0.0370 -0.7630 -0.8001
   25SAPC  H12B 3252   6.090   5.951   6.491  1.4283  1.0062  0.4390
   25SAPC   C13 3253   6.021   5.891   6.266 -0.1438  0.0860  0.5280
   25SAPC  H13A 3254   6.004   5.892   6.159 -0.9601  3.1459  0.6070
   25SAPC  H13B 3255   6.126   5.865   6.271  0.0871  0.0678 -2.5071
   25SAPC  H13C 3256   5.972   5.808   6.314 -0.3767  1.2030  2.3229
   25SAPC   C14 3257   5.860   6.027   6.360  0.4017 -0.2684  0.4026
   25SAPC  H14A 3258   5.822   5.942   6.415 -2.9593  2.2074  2.3347
   25SAPC  H14B 3259   5.853   6.110   6.430  2.5795 -2.0011  2.8961
   25SAPC  H14C 3260   5.799   6.036   6.271  0.4089 -1.9244  0.2046
   25SAPC   C15 3261   6.023   6.133   6.225  0.1159  0.0335 -0.4005
   25SAPC  H15A 3262   6.112   6.115   6.165  0.9025 -0.6679  0.9261
   25SAPC  H15B 3263   5.940   6.119   6.158 -0.6388 -0.5381  0.6265
   25SAPC  H15C 3264   6.013   6.232   6.269  0.6748 -0.5091  1.0144
   25SAPC   C11 3265   6.063   6.154   6.540 -0.5652 -0.1987 -0.8450
   25SAPC  H11A 3266   6.142   6.145   6.618  0.0253  2.1077 -1.0937
   25SAPC  H11B 3267   5.965   6.134   6.588  0.3010  3.0515  2.8056
   25SAPC     P 3268   6.215   6.339   6.452  0.2945  0.0186  0.5062
   25SAPC   O13 3269   6.307   6.231   6.407 -0.4831  0.2795 -0.3517
   25SAPC   O14 3270   6.197   6.448   6.355 -0.4732 -0.0221 -0.4322
   25SAPC   O12 3271   6.071   6.285   6.481 -0.2800  0.4641  0.7570
   25SAPC   O11 3272   6.251   6.387   6.595 -0.3765 -0.1944  0.4903
   25SAPC    C1 3273   6.181   6.460   6.690 -0.1348 -0.6425  0.1464
   25SAPC    HA 3274   6.180   6.566   6.656  1.1434 -0.1836  1.4219
   25SAPC    HB 3275   6.079   6.419   6.707 -0.4107 -0.7673 -1.6175
   25SAPC    C2 3276   6.258   6.462   6.829 -0.8315 -0.7625 -0.5396
   25SAPC    HS 3277   6.349   6.522   6.806 -1.7830  0.6089 -0.8274
   25SAPC   O21 3278   6.296   6.331   6.862 -0.6516  0.4506 -0.7535
   25SAPC   C21 3279   6.207   6.245   6.914 -0.3764 -0.1379  0.2989
   25SAPC   O22 3280   6.088   6.263   6.928 -0.0301  0.5562  0.2801
   25SAPC   C22 3281   6.284   6.120   6.964 -0.7275 -0.0335 -0.5657
   25SAPC   H2R 3282   6.328   6.070   6.875 -1.2731  0.8558 -1.3501
   25SAPC   H2S 3283   6.367   6.155   7.029 -0.3470  2.5622 -2.2726
   25SAPC    C3 3284   6.173   6.534   6.950 -0.7266  0.8006 -0.2371
   25SAPC    HX 3285   6.073   6.487   6.954 -0.5096  0.4133  1.0154
   25SAPC    HY 3286   6.151   6.640   6.925 -2.0013  0.0931 -2.3576
   25SAPC   O31 3287   6.235   6.520   7.083 -0.3023 -0.2325 -0.2238
   25SAPC   C31 3288   6.139   6.546   7.179  0.3709  0.1264 -0.3530
   25SAPC   O32 3289   6.041   6.610   7.163 -0.2396  0.3275 -0.1323
   25SAPC   C32 3290   6.177   6.475   7.310 -0.1973  0.3644  0.0383
   25SAPC   H2X 3291   6.198   6.555   7.385 -0.9095 -0.9777  1.7478
   25SAPC   H2Y 3292   6.266   6.412   7.288 -2.0625 -1.8789 -1.5979
   25SAPC   C23 3293   6.204   6.025   7.051  0.1332  0.4223 -0.6251
   25SAPC   H3R 3294   6.105   5.997   7.009 -0.4157 -1.0698  1.5063
   25SAPC   H3S 3295   6.182   6.083   7.143  0.8716  2.2129 -1.5138
   25SAPC   C24 3296   6.280   5.892   7.091  0.2363 -0.0877 -0.1776
   25SAPC   H4R 3297   6.383   5.933   7.095 -0.1360  1.1472 -1.9863
   25SAPC   H4S 3298   6.277   5.833   6.996  0.5497  0.6227 -0.6365
   25SAPC   C25 3299   6.206   5.830   7.209  0.2431 -0.6988  0.4095
   25SAPC   H5R 3300   6.113   5.778   7.182 -0.3128  0.5876 -0.2385
   25SAPC   C26 3301   6.267   5.821   7.327 -0.0383 -0.2548  0.4221
   25SAPC   H6R 3302   6.212   5.780   7.413  0.1860 -1.0606  0.1890
   25SAPC   C27 3303   6.408   5.860   7.365  0.1300 -0.4265  0.3397
   25SAPC   H7R 3304   6.488   5.831   7.293 -0.5519  0.3883 -0.7911
   25SAPC   H7S 3305   6.445   5.793   7.445 -0.6666 -0.2056  0.9045
   25SAPC   C28 3306   6.410   6.008   7.385  0.1143  0.6261 -0.0568
   25SAPC   H8R 3307   6.412   6.069   7.293 -1.2155  3.8773  1.8887
   25SAPC   C29 3308   6.406   6.068   7.504  0.2650  0.1814 -0.0205
   25SAPC   H9R 3309   6.421   6.177   7.514 -2.4651  0.5372  1.1845
   25SAPC  C210 3310   6.396   5.999   7.634 -0.0410  0.1942  1.0618
   25SAPC  H10R 3311   6.488   5.943   7.660  0.7786  1.1278  0.2832
   25SAPC  H10S 3312   6.308   5.932   7.630 -1.0393  1.4526 -2.2276
   25SAPC  C211 3313   6.377   6.093   7.750 -0.2311  0.0705 -0.2863
   25SAPC  H11R 3314   6.459   6.106   7.824 -1.9213  1.3581  1.4701
   25SAPC  C212 3315   6.260   6.156   7.788  0.3857 -0.2204 -0.6330
   25SAPC  H12R 3316   6.261   6.220   7.878  3.2213  1.0365 -1.4600
   25SAPC  C213 3317   6.121   6.155   7.725 -0.7073 -0.1632  0.0123
   25SAPC  H13R 3318   6.139   6.094   7.634  1.3503  0.6137 -0.1625
   25SAPC  H13S 3319   6.098   6.262   7.707  0.8439  0.2223  0.1192
   25SAPC  C214 3320   6.032   6.072   7.808  0.1222 -0.4417 -0.1970
   25SAPC  H14R 3321   6.036   5.964   7.786 -0.4658 -0.2902 -1.1198
   25SAPC  C215 3322   5.947   6.123   7.890  0.7560  0.4132 -0.8753
   25SAPC  H15R 3323   5.877   6.052   7.937  0.8494 -1.3931 -3.2664
   25SAPC  C216 3324   5.919   6.263   7.924  0.1197  1.0315 -0.0855
   25SAPC  H16R 3325   5.809   6.267   7.941  0.0480 -0.5093  0.0275
   25SAPC  H16S 3326   5.958   6.332   7.847  0.6385  0.4080 -0.3889
   25SAPC  C217 3327   6.004   6.306   8.054 -0.7027  0.0454  0.5831
   25SAPC  H17R 3328   6.109   6.334   8.032 -1.2328  2.0952  0.5385
   25SAPC  H17S 3329   6.009   6.220   8.125  3.1135  0.2499  0.8079
   25SAPC  C218 3330   5.923   6.423   8.126  0.0953  0.6107  0.3908
   25SAPC  H18R 3331   5.824   6.381   8.153 -0.0162  1.2172  0.9651
   25SAPC  H18S 3332   5.914   6.510   8.057 -0.2058 -0.3810 -0.8380
   25SAPC  C219 3333   5.983   6.470   8.265  0.0557 -0.1589  0.1790
   25SAPC  H19R 3334   6.081   6.517   8.246 -0.2346  1.7120  2.8286
   25SAPC  H19S 3335   5.996   6.379   8.326  0.2062  1.6436  3.0048
   25SAPC  C220 3336   5.888   6.566   8.339 -0.1027 -0.4154 -0.1636
   25SAPC  H20R 3337   5.786   6.525   8.353  0.4928 -1.4753  1.3488
   25SAPC  H20S 3338   5.876   6.655   8.274  0.3727 -0.3482 -0.1644
   25SAPC  H20T 3339   5.936   6.600   8.434 -0.1662  0.2749 -0.3724
   25SAPC   C33 3340   6.064   6.378   7.363  0.1422  0.0349 -0.5649
   25SAPC   H3X 3341   6.111   6.319   7.444 -2.2467  0.2514  1.0759
   25SAPC   H3Y 3342   6.031   6.297   7.294  0.7134 -0.6274 -0.0685
   25SAPC   C34 3343   5.933   6.433   7.441 -0.2141  0.2322  0.4969
   25SAPC   H4X 3344   5.878   6.475   7.354  0.5954  0.3953  0.0491
   25SAPC   H4Y 3345   5.971   6.511   7.510  1.4331  0.7564 -0.9245
   25SAPC   C35 3346   5.847   6.326   7.512  0.3856 -0.3642  0.1660
   25SAPC   H5X 3347   5.911   6.253   7.565  0.3359 -1.7310 -1.5251
   25SAPC   H5Y 3348   5.796   6.279   7.424  0.5732  2.5919 -1.6571
   25SAPC   C36 3349   5.738   6.385   7.597  0.0905  0.2644  0.2484
   25SAPC   H6X 3350   5.667   6.450   7.542  0.1145  1.0635  1.1324
   25SAPC   H6Y 3351   5.802   6.438   7.671  1.7640 -1.2032 -0.0839
   25SAPC   C37 3352   5.663   6.281   7.672  0.0406 -0.1540 -0.3541
   25SAPC   H7X 3353   5.741   6.222   7.726 -0.0387  0.9117  0.9793
   25SAPC   H7Y 3354   5.607   6.210   7.608  0.3190 -0.7892  0.0875
   25SAPC   C38 3355   5.566   6.335   7.776 -0.0898  0.7823 -0.4839
   25SAPC   H8X 3356   5.504   6.415   7.730 -0.6262  1.8078  1.8552
   25SAPC   H8Y 3357   5.621   6.393   7.853 -3.9299  2.2000  1.4618
   25SAPC   C39 3358   5.465   6.230   7.832 -0.4027 -0.3126  0.3155
   25SAPC   H9X 3359   5.426   6.168   7.749 -0.1773  0.3821 -0.3136
   25SAPC   H9Y 3360   5.382   6.297   7.863 -1.2234 -0.7424 -0.8873
   25SAPC  C310 3361   5.514   6.150   7.950  0.2950  0.0895 -0.0398
   25SAPC  H10X 3362   5.559   6.220   8.024  1.1213 -0.0530 -0.3964
   25SAPC  H10Y 3363   5.601   6.098   7.906 -0.0568 -0.1914 -0.4139
   25SAPC  C311 3364   5.405   6.056   7.998  0.1974  0.6326 -0.0783
   25SAPC  H11X 3365   5.416   5.953   7.958  2.6164  0.9331 -0.3603
   25SAPC  H11Y 3366   5.300   6.084   7.975  0.2286 -0.3364 -1.5144
   25SAPC  C312 3367   5.415   6.041   8.150 -0.7602  0.5876 -0.5460
   25SAPC  H12X 3368   5.394   6.137   8.203 -1.7244  1.1377 -1.8446
   25SAPC  H12Y 3369   5.518   6.012   8.178 -0.8115 -1.6663 -2.4306
   25SAPC  C313 3370   5.308   5.939   8.211 -0.0082 -0.4723  0.1786
   25SAPC  H13X 3371   5.308   5.848   8.147  1.4953 -0.6178  0.3488
   25SAPC  H13Y 3372   5.213   5.994   8.200  0.2566 -0.1010 -0.2740
   25SAPC  C314 3373   5.313   5.915   8.361 -0.1765 -0.4613  0.1313
   25SAPC  H14X 3374   5.300   6.008   8.421  2.5298 -0.1450  0.3324
   25SAPC  H14Y 3375   5.399   5.851   8.388 -0.4393 -1.1471 -0.6173
   25SAPC  C315 3376   5.183   5.836   8.398  0.4256 -0.3258  0.3293
   25SAPC  H15X 3377   5.183   5.744   8.336 -1.7025  0.8034 -1.4986
   25SAPC  H15Y 3378   5.093   5.896   8.371 -0.2455 -0.5899  1.8719
   25SAPC  C316 3379   5.168   5.793   8.544  0.6212 -0.0781 -0.1979
   25SAPC  H16X 3380   5.156   5.880   8.613 -1.5112 -0.3290 -0.2043
   25SAPC  H16Y 3381   5.259   5.734   8.567 -0.3188 -1.8552 -0.9115
   25SAPC  C317 3382   5.049   5.702   8.578 -0.6452  0.1031 -0.5156
   25SAPC  H17X 3383   5.081   5.602   8.543 -0.6909 -0.1902  0.2741
   25SAPC  H17Y 3384   4.963   5.738   8.517 -1.4964 -1.9127 -0.5706
   25SAPC  C318 3385   5.015   5.680   8.730 -0.0950 -0.0471 -0.0265
   25SAPC  H18X 3386   5.110   5.678   8.788  2.0679 -1.3492 -3.2552
   25SAPC  H18Y 3387   4.968   5.580   8.738 -3.6647  1.5951  1.6771
   25SAPC  H18Z 3388   4.947   5.763   8.759  0.2299  0.6690 -1.2442
   26SAPC     N 3389   0.468   1.920   6.229 -0.1326 -0.5557  0.6187
   26SAPC   C12 3390   0.346   1.869   6.163  0.2239 -0.2863  0.3021
   26SAPC  H12A 3391   0.326   1.771   6.202 -1.2712  0.9965  3.0673
   26SAPC  H12B 3392   0.356   1.852   6.057 -1.6716 -1.4235  0.2623
   26SAPC   C13 3393   0.528   2.039   6.160  0.2068  0.6015  0.1874
   26SAPC  H13A 3394   0.615   2.077   6.212  0.1999  0.2401  0.4640
   26SAPC  H13B 3395   0.574   2.009   6.067  2.8045 -0.0274  1.5747
   26SAPC  H13C 3396   0.449   2.109   6.138  0.0339  0.4494  0.3167
   26SAPC   C14 3397   0.442   1.966   6.370  0.8820 -0.1031  0.1532
   26SAPC  H14A 3398   0.368   1.900   6.413  0.5778 -1.4570 -2.2299
   26SAPC  H14B 3399   0.532   1.970   6.430 -1.3320  1.3431  3.7186
   26SAPC  H14C 3400   0.393   2.062   6.369 -1.3256 -1.1456  1.2837
   26SAPC   C15 3401   0.577   1.820   6.229  0.4058 -0.1679  0.9612
   26SAPC  H15A 3402   0.549   1.744   6.300 -1.2537 -0.3351  0.1734
   26SAPC  H15B 3403   0.583   1.777   6.130 -0.7804 -1.5997  1.4705
   26SAPC  H15C 3404   0.668   1.873   6.253  0.5898 -0.1448  0.2272
   26SAPC   C11 3405   0.217   1.955   6.184  0.3521 -0.1993  0.3371
   26SAPC  H11A 3406   0.200   1.969   6.293 -0.1078 -0.2599  0.2725
   26SAPC  H11B 3407   0.127   1.908   6.141  0.1585  0.9365 -0.5509
   26SAPC     P 3408   0.126   2.205   6.148  0.3384 -0.6001 -0.0528
   26SAPC   O13 3409   0.177   2.333   6.091 -0.2527  0.1723 -0.1316
   26SAPC   O14 3410  -0.010   2.160   6.111  0.1512 -0.6073  0.0029
   26SAPC   O12 3411   0.226   2.088   6.115 -0.1049 -0.0487  0.2944
   26SAPC   O11 3412   0.134   2.209   6.300 -0.2815  0.1210 -0.6526
   26SAPC    C1 3413   0.049   2.301   6.374  0.7936  0.0305  0.2287
   26SAPC    HA 3414   0.096   2.401   6.374 -0.7654  0.8272 -1.6032
   26SAPC    HB 3415  -0.054   2.302   6.332  0.8197  3.8826 -0.0434
   26SAPC    C2 3416   0.030   2.252   6.518  0.4457 -0.4069  0.2126
   26SAPC    HS 3417  -0.044   2.322   6.563  0.8384  0.0605  0.1521
   26SAPC   O21 3418   0.151   2.248   6.591  0.0526  0.3235  0.2184
   26SAPC   C21 3419   0.166   2.345   6.680 -0.3188  0.1094  0.1077
   26SAPC   O22 3420   0.105   2.449   6.694 -0.5544 -0.5918 -0.0310
   26SAPC   C22 3421   0.288   2.314   6.766 -0.3959  0.5574  0.1265
   26SAPC   H2R 3422   0.353   2.236   6.721 -0.6591 -0.2819  1.1530
   26SAPC   H2S 3423   0.344   2.409   6.777  0.3834 -0.0055  1.2739
   26SAPC    C3 3424  -0.033   2.109   6.518  0.7770  0.0863  0.7442
   26SAPC    HX 3425   0.044   2.039   6.479 -0.7966 -0.2174 -2.0152
   26SAPC    HY 3426  -0.120   2.106   6.450  0.8008  0.3981  0.6968
   26SAPC   O31 3427  -0.095   2.067   6.641  0.4687 -0.3385  0.0190
   26SAPC   C31 3428  -0.018   1.998   6.726 -0.1833  0.2808  0.0802
   26SAPC   O32 3429   0.095   1.954   6.701 -0.0602 -0.2835 -0.1118
   26SAPC   C32 3430  -0.094   2.014   6.861 -0.2042  1.0901 -0.1027
   26SAPC   H2X 3431  -0.189   1.959   6.845  0.0044  0.4229  0.8858
   26SAPC   H2Y 3432  -0.119   2.122   6.865 -1.4627  0.9078 -1.7108
   26SAPC   C23 3433   0.239   2.268   6.903  0.2880 -0.9445 -1.6158
   26SAPC   H3R 3434   0.304   2.183   6.933  0.7219  0.1083  0.7006
   26SAPC   H3S 3435   0.138   2.222   6.901 -1.2689  2.2230 -2.1753
   26SAPC   C24 3436   0.232   2.380   7.005  0.4174  0.5524 -0.5197
   26SAPC   H4R 3437   0.165   2.462   6.971 -1.7551 -0.4776  0.9965
   26SAPC   H4S 3438   0.334   2.423   7.004  0.2868  1.0649  1.6186
   26SAPC   C25 3439   0.188   2.330   7.146 -0.3968 -0.1399  0.4138
   26SAPC   H5R 3440   0.093   2.274   7.149 -0.4719 -0.0159  0.3973
   26SAPC   C26 3441   0.264   2.342   7.257 -0.2093 -0.6132  0.0674
   26SAPC   H6R 3442   0.237   2.288   7.349 -3.4870 -0.1127 -0.4869
   26SAPC   C27 3443   0.400   2.408   7.267 -0.1739  0.5296  0.5758
   26SAPC   H7R 3444   0.473   2.349   7.208 -0.3419  2.2756 -1.4771
   26SAPC   H7S 3445   0.440   2.398   7.370  0.4510  0.8088  0.3648
   26SAPC   C28 3446   0.403   2.548   7.241  0.2509  0.5196  0.2110
   26SAPC   H8R 3447   0.425   2.559   7.134 -1.6981 -2.9842 -0.7237
   26SAPC   C29 3448   0.390   2.655   7.330  0.1579  0.9668  0.3894
   26SAPC   H9R 3449   0.383   2.757   7.290 -0.6999  1.2026  1.1203
   26SAPC  C210 3450   0.336   2.638   7.469  0.5038 -0.0946 -0.5962
   26SAPC  H10R 3451   0.313   2.534   7.499  4.7184 -0.2273  3.3207
   26SAPC  H10S 3452   0.248   2.700   7.495  1.3534  0.4518  1.1766
   26SAPC  C211 3453   0.443   2.684   7.573 -0.0252  0.5075  0.0038
   26SAPC  H11R 3454   0.480   2.787   7.562 -0.1972  0.9073  2.6324
   26SAPC  C212 3455   0.482   2.624   7.688  0.2134  1.1526 -0.3271
   26SAPC  H12R 3456   0.549   2.681   7.754  1.5900  0.0446 -0.6997
   26SAPC  C213 3457   0.440   2.493   7.740  0.1858 -0.4691 -0.1836
   26SAPC  H13R 3458   0.415   2.417   7.663  1.1889 -0.6881 -0.3058
   26SAPC  H13S 3459   0.339   2.513   7.782 -0.1832  0.9424 -1.6210
   26SAPC  C214 3460   0.532   2.426   7.842 -0.0291 -0.1520  0.0010
   26SAPC  H14R 3461   0.599   2.359   7.786  1.2141  1.0116  0.0404
   26SAPC  C215 3462   0.540   2.435   7.977  0.5216  0.7958  0.0886
   26SAPC  H15R 3463   0.618   2.390   8.041 -1.2234 -0.6704  1.3053
   26SAPC  C216 3464   0.454   2.518   8.072  0.6398 -0.7612 -0.5951
   26SAPC  H16R 3465   0.502   2.499   8.170 -2.4758 -0.0642  1.1685
   26SAPC  H16S 3466   0.347   2.491   8.084  0.6934 -0.5576  0.3744
   26SAPC  C217 3467   0.461   2.670   8.052 -0.4148  0.4630 -0.0697
   26SAPC  H17R 3468   0.388   2.697   7.972 -0.9299 -0.3363  0.1163
   26SAPC  H17S 3469   0.566   2.691   8.022  0.8412 -2.9242  1.4843
   26SAPC  C218 3470   0.419   2.736   8.186  1.0851  0.7994 -0.0893
   26SAPC  H18R 3471   0.488   2.725   8.273 -1.3201 -0.8340  1.7758
   26SAPC  H18S 3472   0.330   2.682   8.225  1.6774 -0.0965  0.0711
   26SAPC  C219 3473   0.385   2.886   8.166 -0.8189  0.5819 -0.4331
   26SAPC  H19R 3474   0.318   2.896   8.079  0.4908 -0.0810 -1.5647
   26SAPC  H19S 3475   0.483   2.933   8.143 -0.0764 -0.1521  1.0595
   26SAPC  C220 3476   0.324   2.950   8.284  0.3845  0.2057  0.0302
   26SAPC  H20R 3477   0.286   3.052   8.261 -3.8094 -0.8105  1.5478
   26SAPC  H20S 3478   0.394   2.951   8.370  0.4633  0.1064 -0.0316
   26SAPC  H20T 3479   0.242   2.883   8.316 -0.2626  0.2167 -1.5219
   26SAPC   C33 3480  -0.017   1.958   6.987 -0.8522 -0.0140  0.1246
   26SAPC   H3X 3481   0.053   2.036   7.023 -0.3672 -1.0443  1.4887
   26SAPC   H3Y 3482   0.045   1.870   6.960  0.5949  0.3283  2.1549
   26SAPC   C34 3483  -0.111   1.934   7.109 -0.2512  0.1824  0.7196
   26SAPC   H4X 3484  -0.188   1.855   7.095 -2.0901  2.2050 -1.4592
   26SAPC   H4Y 3485  -0.170   2.027   7.127 -0.9175  0.1409 -1.0549
   26SAPC   C35 3486  -0.020   1.904   7.228 -0.1478  0.0388 -0.0059
   26SAPC   H5X 3487   0.037   1.999   7.239  1.7736 -0.9180 -1.1669
   26SAPC   H5Y 3488   0.054   1.822   7.213  1.1436  1.1962 -0.1171
   26SAPC   C36 3489  -0.097   1.873   7.353  1.0331 -0.2892 -0.1870
   26SAPC   H6X 3490  -0.161   1.784   7.336  0.5114  0.2031 -0.7891
   26SAPC   H6Y 3491  -0.159   1.964   7.358  0.2181 -0.8055 -0.6626
   26SAPC   C37 3492  -0.016   1.859   7.484  0.3318 -0.3962  0.1803
   26SAPC   H7X 3493   0.030   1.954   7.519  0.2031 -0.9189  1.8371
   26SAPC   H7Y 3494   0.058   1.780   7.460 -1.4477 -2.1753  0.2864
   26SAPC   C38 3495  -0.103   1.810   7.606  0.6617  0.4500 -0.4714
   26SAPC   H8X 3496  -0.176   1.728   7.589  1.4629 -0.1681 -1.0311
   26SAPC   H8Y 3497  -0.159   1.896   7.649  1.0483  0.7510 -0.5572
   26SAPC   C39 3498  -0.010   1.761   7.717  0.0178 -0.1752  0.1980
   26SAPC   H9X 3499   0.061   1.841   7.745 -0.7208  0.6442 -0.2466
   26SAPC   H9Y 3500   0.056   1.678   7.682 -2.1580 -1.2645 -1.5497
   26SAPC  C310 3501  -0.079   1.719   7.842  1.1166  0.6373 -0.3097
   26SAPC  H10X 3502  -0.009   1.694   7.924  0.2447  3.7221  1.5687
   26SAPC  H10Y 3503  -0.142   1.630   7.822  1.2895 -0.1376  2.1924
   26SAPC  C311 3504  -0.157   1.837   7.911  0.1775 -0.4016 -0.4565
   26SAPC  H11X 3505  -0.244   1.874   7.852  0.6492  2.1889  0.3407
   26SAPC  H11Y 3506  -0.095   1.929   7.920 -1.7696  0.9976 -0.7178
   26SAPC  C312 3507  -0.209   1.800   8.055  0.0364  0.4292 -0.2217
   26SAPC  H12X 3508  -0.118   1.784   8.117  0.6460  0.7847 -1.0031
   26SAPC  H12Y 3509  -0.272   1.709   8.058  1.2553 -0.4315  3.1264
   26SAPC  C313 3510  -0.290   1.909   8.129  0.2167 -0.0950  0.2644
   26SAPC  H13X 3511  -0.387   1.917   8.074 -0.4161 -2.8371  0.8300
   26SAPC  H13Y 3512  -0.233   2.004   8.131 -1.3894  1.1542 -3.6673
   26SAPC  C314 3513  -0.343   1.873   8.265  0.0711 -0.6345  0.3393
   26SAPC  H14X 3514  -0.385   1.770   8.262  1.8193 -1.3563 -1.8027
   26SAPC  H14Y 3515  -0.427   1.935   8.302  1.6907  0.0181  3.2345
   26SAPC  C315 3516  -0.240   1.890   8.370 -0.1713  0.4173 -0.0823
   26SAPC  H15X 3517  -0.237   2.001   8.380  1.1993  0.3646  0.4269
   26SAPC  H15Y 3518  -0.147   1.848   8.326  0.2523 -0.3329  1.4294
   26SAPC  C316 3519  -0.255   1.810   8.502  0.3581  0.1582  0.4532
   26SAPC  H16X 3520  -0.257   1.701   8.482 -1.3016  0.1788  0.3604
   26SAPC  H16Y 3521  -0.350   1.833   8.554 -0.6552 -0.6853 -0.9539
   26SAPC  C317 3522  -0.135   1.829   8.596  1.0062  0.4178  0.1461
   26SAPC  H17X 3523  -0.129   1.939   8.614 -0.7617  0.5079  0.4571
   26SAPC  H17Y 3524  -0.046   1.801   8.537  0.1628  0.1748 -1.0537
   26SAPC  C318 3525  -0.144   1.752   8.728  0.1302 -0.3006  0.1115
   26SAPC  H18X 3526  -0.068   1.792   8.798 -2.5839  1.3215  2.3735
   26SAPC  H18Y 3527  -0.133   1.645   8.703  0.4898 -0.2865  0.2172
   26SAPC  H18Z 3528  -0.247   1.771   8.767 -0.1998 -1.9828  0.1407
   27SAPC     N 3529   5.559   1.251   6.089  0.0604  0.0393  0.4161
   27SAPC   C12 3530   5.486   1.213   6.220  0.1384  0.3907 -0.5438
   27SAPC  H12A 3531   5.442   1.114   6.212 -0.9216  0.5965  1.8231
   27SAPC  H12B 3532   5.410   1.288   6.231 -1.0105 -0.2889 -3.0918
   27SAPC   C13 3533   5.628   1.382   6.095  0.9711  0.2303  0.1965
   27SAPC  H13A 3534   5.698   1.390   6.178  0.4023 -2.3763  1.0183
   27SAPC  H13B 3535   5.686   1.408   6.008  0.1534 -0.5071 -0.5843
   27SAPC  H13C 3536   5.556   1.461   6.108  0.3899  0.0452 -1.7019
   27SAPC   C14 3537   5.664   1.149   6.044 -0.8651  0.3183 -0.1076
   27SAPC  H14A 3538   5.623   1.053   6.018  1.8508 -0.9142 -0.2100
   27SAPC  H14B 3539   5.714   1.189   5.957 -0.4109 -2.3593 -1.1858
   27SAPC  H14C 3540   5.746   1.135   6.113 -1.7317 -1.4416  0.6380
   27SAPC   C15 3541   5.449   1.257   5.981  0.2845 -0.1895  0.3404
   27SAPC  H15A 3542   5.497   1.294   5.891  0.3219  0.8108  0.7583
   27SAPC  H15B 3543   5.399   1.167   5.949  1.8283 -0.6843 -0.7908
   27SAPC  H15C 3544   5.375   1.330   6.007  0.8647  1.3185 -1.9151
   27SAPC   C11 3545   5.562   1.211   6.353 -0.5794  0.1462 -0.1339
   27SAPC  H11A 3546   5.633   1.127   6.336 -0.0761  0.5208  0.0995
   27SAPC  H11B 3547   5.487   1.179   6.428 -1.8267 -1.5752 -2.0150
   27SAPC     P 3548   5.542   1.445   6.448  0.1179 -0.1375  0.0439
   27SAPC   O13 3549   5.630   1.562   6.460 -0.3251 -0.0862  0.0367
   27SAPC   O14 3550   5.406   1.464   6.385 -0.9145 -0.0833 -0.3530
   27SAPC   O12 3551   5.624   1.338   6.367 -0.3894  0.2116 -0.2238
   27SAPC   O11 3552   5.522   1.381   6.588  0.0552  0.3016 -0.3817
   27SAPC    C1 3553   5.633   1.375   6.683 -0.1475 -0.1944 -0.2858
   27SAPC    HA 3554   5.722   1.330   6.634  0.1566 -0.1947  0.2513
   27SAPC    HB 3555   5.661   1.481   6.701 -1.5192  0.0658  0.4182
   27SAPC    C2 3556   5.580   1.312   6.813 -0.1051 -0.0427 -0.2775
   27SAPC    HS 3557   5.527   1.217   6.789 -1.1902  0.4774 -0.0125
   27SAPC   O21 3558   5.508   1.415   6.885 -0.1618 -0.5347  0.2282
   27SAPC   C21 3559   5.394   1.378   6.945 -0.9516  0.0574 -0.4656
   27SAPC   O22 3560   5.341   1.271   6.928 -0.0733  0.2082 -0.3460
   27SAPC   C22 3561   5.351   1.496   7.044 -0.1138  0.0148  0.4813
   27SAPC   H2R 3562   5.451   1.543   7.061 -1.1075  2.3078  0.3262
   27SAPC   H2S 3563   5.273   1.548   6.985 -0.1524 -1.8538 -1.2092
   27SAPC    C3 3564   5.703   1.278   6.901 -0.1839  0.8414  0.6052
   27SAPC    HX 3565   5.765   1.368   6.920  0.7158  0.0689  1.4553
   27SAPC    HY 3566   5.772   1.212   6.844  0.1318  0.0057  1.9325
   27SAPC   O31 3567   5.666   1.205   7.022  0.2458  0.2299 -0.5401
   27SAPC   C31 3568   5.630   1.075   7.003  0.1759  0.1854 -0.2852
   27SAPC   O32 3569   5.623   1.028   6.893 -0.4996  0.2967  0.6400
   27SAPC   C32 3570   5.600   1.013   7.144 -0.3700  0.2360 -0.0392
   27SAPC   H2X 3571   5.539   0.921   7.131  0.2905  0.0293 -2.0836
   27SAPC   H2Y 3572   5.531   1.090   7.185 -0.0164  1.3514 -1.4621
   27SAPC   C23 3573   5.281   1.442   7.176 -0.0530  0.6349  0.2541
   27SAPC   H3R 3574   5.249   1.336   7.164  0.5885  0.1445  2.5288
   27SAPC   H3S 3575   5.190   1.501   7.201 -0.1320  0.8262 -0.4604
   27SAPC   C24 3576   5.378   1.452   7.297 -0.5176  0.4975  0.4046
   27SAPC   H4R 3577   5.319   1.398   7.374 -2.8455  0.1110 -1.5344
   27SAPC   H4S 3578   5.385   1.556   7.336  2.7760  0.5056  0.0565
   27SAPC   C25 3579   5.516   1.382   7.279 -0.3743  1.1537 -0.1317
   27SAPC   H5R 3580   5.514   1.280   7.238  3.9396  0.2771  1.3053
   27SAPC   C26 3581   5.635   1.444   7.302  0.1477 -0.3222  0.8175
   27SAPC   H6R 3582   5.728   1.395   7.270  0.2370 -0.5483  1.4008
   27SAPC   C27 3583   5.668   1.584   7.353 -0.2086 -0.1909 -0.1290
   27SAPC   H7R 3584   5.629   1.663   7.286 -2.2597 -1.5584 -0.6355
   27SAPC   H7S 3585   5.778   1.590   7.340 -0.4861  0.5370 -2.7888
   27SAPC   C28 3586   5.609   1.615   7.490  0.6417 -0.0484 -0.0170
   27SAPC   H8R 3587   5.502   1.642   7.485  0.4536 -0.5588  1.0165
   27SAPC   C29 3588   5.669   1.603   7.610  0.2337  0.3908 -0.5594
   27SAPC   H9R 3589   5.616   1.632   7.703  1.8779  1.2173  0.1602
   27SAPC  C210 3590   5.805   1.559   7.640 -0.0958  0.4365  0.2588
   27SAPC  H10R 3591   5.843   1.595   7.739  1.1237 -0.7171  0.2332
   27SAPC  H10S 3592   5.869   1.597   7.558 -2.0530  1.1332 -1.0026
   27SAPC  C211 3593   5.827   1.409   7.636  0.3052 -0.2258  0.3700
   27SAPC  H11R 3594   5.737   1.355   7.603  1.3418 -1.1544 -1.0509
   27SAPC  C212 3595   5.935   1.347   7.682  0.7436  0.2762  0.0628
   27SAPC  H12R 3596   5.932   1.237   7.680 -2.2302  0.2500  0.8309
   27SAPC  C213 3597   6.051   1.402   7.756 -0.1784  0.1579 -0.5294
   27SAPC  H13R 3598   6.074   1.508   7.731 -2.6482  0.3825 -2.1469
   27SAPC  H13S 3599   6.144   1.343   7.740  0.3347  0.6954  0.3743
   27SAPC  C214 3600   6.027   1.394   7.908  0.0094  0.4002  0.0808
   27SAPC  H14R 3601   5.922   1.400   7.939  0.0331  2.7932 -0.0928
   27SAPC  C215 3602   6.123   1.397   8.005 -0.0557  0.4629 -0.1951
   27SAPC  H15R 3603   6.098   1.408   8.112  0.1107  2.0503 -0.3021
   27SAPC  C216 3604   6.268   1.395   7.966 -0.3246  0.1533 -0.4764
   27SAPC  H16R 3605   6.280   1.448   7.869  3.6775 -0.5225 -0.5119
   27SAPC  H16S 3606   6.315   1.296   7.951  1.5742  1.2172 -2.1214
   27SAPC  C217 3607   6.365   1.459   8.069 -0.4733 -0.2345 -0.1519
   27SAPC  H17R 3608   6.348   1.567   8.087  1.0884 -0.0868  0.4913
   27SAPC  H17S 3609   6.463   1.462   8.017 -0.9942 -4.0246 -1.7173
   27SAPC  C218 3610   6.371   1.376   8.202  0.1834 -0.0052 -0.2084
   27SAPC  H18R 3611   6.282   1.410   8.260  1.2276  3.9673 -0.6262
   27SAPC  H18S 3612   6.460   1.401   8.264  0.4673  0.1536 -0.6752
   27SAPC  C219 3613   6.378   1.224   8.186 -0.0688  0.0829  0.2580
   27SAPC  H19R 3614   6.446   1.202   8.101  1.3190  2.2710  0.7258
   27SAPC  H19S 3615   6.276   1.185   8.164  0.4647 -0.6841 -0.9709
   27SAPC  C220 3616   6.421   1.163   8.319  0.2536  0.0317  0.1375
   27SAPC  H20R 3617   6.417   1.052   8.319 -0.3054  0.0498 -0.1333
   27SAPC  H20S 3618   6.355   1.204   8.400 -1.1897  0.0068 -0.9809
   27SAPC  H20T 3619   6.516   1.201   8.362 -0.4421  1.7150  0.2473
   27SAPC   C33 3620   5.726   1.000   7.231  0.4994  0.6274  0.3917
   27SAPC   H3X 3621   5.775   1.099   7.241  3.0631 -0.2718 -2.1875
   27SAPC   H3Y 3622   5.798   0.942   7.170 -1.4854  0.0939 -1.5497
   27SAPC   C34 3623   5.703   0.950   7.370 -0.6764 -0.0692  0.2460
   27SAPC   H4X 3624   5.679   0.844   7.348  0.2215 -0.2042 -0.1308
   27SAPC   H4Y 3625   5.611   1.002   7.405 -0.6175  0.3738 -0.2363
   27SAPC   C35 3626   5.826   0.973   7.446 -0.1403  0.2122 -0.6158
   27SAPC   H5X 3627   5.850   1.081   7.456  1.8658 -0.3150  0.9039
   27SAPC   H5Y 3628   5.906   0.928   7.384 -1.0329 -1.3784 -0.6770
   27SAPC   C36 3629   5.823   0.919   7.593  0.4220  0.0267 -0.2126
   27SAPC   H6X 3630   5.912   0.953   7.649  0.8912 -1.1112 -0.2535
   27SAPC   H6Y 3631   5.820   0.808   7.593 -2.7143  0.0082 -1.1611
   27SAPC   C37 3632   5.697   0.965   7.670  0.8222 -0.7538 -0.4924
   27SAPC   H7X 3633   5.608   0.932   7.612  0.9726 -0.3735 -0.9409
   27SAPC   H7Y 3634   5.694   1.076   7.677 -0.5859 -0.8193  0.6255
   27SAPC   C38 3635   5.700   0.925   7.816  0.2392 -0.2559 -0.5871
   27SAPC   H8X 3636   5.733   0.819   7.822 -1.5380 -0.8014  0.0063
   27SAPC   H8Y 3637   5.595   0.930   7.851 -0.0553  0.8527 -1.5320
   27SAPC   C39 3638   5.792   1.011   7.910 -0.0507  0.1738  0.0514
   27SAPC   H9X 3639   5.745   1.111   7.910 -0.6455 -0.0959  0.9626
   27SAPC   H9Y 3640   5.891   1.008   7.859 -0.2149  0.5652 -0.2992
   27SAPC  C310 3641   5.801   0.954   8.053  0.5549 -0.4160  0.5990
   27SAPC  H10X 3642   5.868   1.026   8.105  0.3788  0.8945 -0.9204
   27SAPC  H10Y 3643   5.856   0.858   8.051  0.3014 -0.5445 -0.7954
   27SAPC  C311 3644   5.663   0.928   8.118 -0.1310  0.6754  0.8942
   27SAPC  H11X 3645   5.611   0.854   8.053  0.2890  0.1935  1.0987
   27SAPC  H11Y 3646   5.611   1.025   8.102  0.9970  0.8582 -2.6023
   27SAPC  C312 3647   5.658   0.903   8.271 -0.1298 -0.0011  0.2069
   27SAPC  H12X 3648   5.702   0.801   8.285  0.4899  0.5016  2.2822
   27SAPC  H12Y 3649   5.553   0.894   8.306  0.4380  1.0457  2.3472
   27SAPC  C313 3650   5.727   1.019   8.345 -0.2869  0.9167  0.0960
   27SAPC  H13X 3651   5.690   1.116   8.303  0.0035  0.5965 -0.9490
   27SAPC  H13Y 3652   5.836   1.017   8.324 -0.6061  0.3034 -1.6861
   27SAPC  C314 3653   5.716   1.014   8.495 -0.4417 -0.0145 -1.1806
   27SAPC  H14X 3654   5.747   0.918   8.541 -0.6549  0.7008  0.5392
   27SAPC  H14Y 3655   5.608   1.025   8.517 -0.4947 -1.9082 -0.2546
   27SAPC  C315 3656   5.792   1.129   8.571  0.4767 -0.2742  0.4788
   27SAPC  H15X 3657   5.900   1.122   8.549  0.2522  1.6781 -1.6163
   27SAPC  H15Y 3658   5.771   1.122   8.680 -1.3686 -0.2261  0.1606
   27SAPC  C316 3659   5.740   1.272   8.528  0.0515 -0.4741  0.2569
   27SAPC  H16X 3660   5.629   1.282   8.537  0.0279 -1.7142  1.6323
   27SAPC  H16Y 3661   5.751   1.288   8.418  1.5798  0.1259  0.4716
   27SAPC  C317 3662   5.776   1.390   8.622 -1.0238  0.3787  0.7439
   27SAPC  H17X 3663   5.885   1.403   8.606 -1.1012  1.7123  1.2427
   27SAPC  H17Y 3664   5.765   1.347   8.724 -0.1635 -0.4957  0.4858
   27SAPC  C318 3665   5.726   1.527   8.587 -0.0275  0.4041 -0.0594
   27SAPC  H18X 3666   5.615   1.522   8.587 -0.1141  1.3384  1.7131
   27SAPC  H18Y 3667   5.765   1.567   8.491  1.2087  0.0805  0.2941
   27SAPC  H18Z 3668   5.750   1.593   8.673  1.5981 -1.9784  1.4418
   28SAPC     N 3669   5.240   5.855   6.159  0.1557 -0.0800 -0.1246
   28SAPC   C12 3670   5.224   5.915   6.295  0.7612  0.4835  0.3566
   28SAPC  H12A 3671   5.245   6.020   6.282 -1.9203  1.1237  0.7178
   28SAPC  H12B 3672   5.301   5.878   6.362 -0.0562 -3.9313 -0.7872
   28SAPC   C13 3673   5.367   5.904   6.095 -0.5572  0.0134 -0.1575
   28SAPC  H13A 3674   5.389   6.007   6.118 -0.9354  0.3204 -1.1224
   28SAPC  H13B 3675   5.453   5.850   6.132  1.1588  1.6293 -1.5563
   28SAPC  H13C 3676   5.368   5.891   5.988  1.7451 -0.4812 -0.1436
   28SAPC   C14 3677   5.236   5.705   6.154  0.3128  0.1945 -0.7034
   28SAPC  H14A 3678   5.321   5.667   6.208  0.1669  1.3862  0.4064
   28SAPC  H14B 3679   5.153   5.667   6.212  1.6902 -0.4398  0.9226
   28SAPC  H14C 3680   5.227   5.665   6.054  3.2429  2.2159 -1.8903
   28SAPC   C15 3681   5.134   5.890   6.062  0.0494  0.2395  0.4502
   28SAPC  H15A 3682   5.115   5.812   5.990  1.0439  0.0893  0.3304
   28SAPC  H15B 3683   5.048   5.904   6.125  0.7644 -1.2680  1.8407
   28SAPC  H15C 3684   5.159   5.980   6.007 -1.4586  0.7500  0.5613
   28SAPC   C11 3685   5.089   5.918   6.369 -0.3435 -0.2292 -0.0791
   28SAPC  H11A 3686   5.112   5.953   6.472  3.0220 -3.1778  0.3512
   28SAPC  H11B 3687   5.046   5.816   6.376 -2.4074  0.3811 -2.4975
   28SAPC     P 3688   4.992   6.154   6.320 -0.3335 -0.0353  0.0198
   28SAPC   O13 3689   5.134   6.206   6.320 -0.0757  0.1003 -0.1182
   28SAPC   O14 3690   4.899   6.209   6.225  0.2678 -0.4827 -0.2590
   28SAPC   O12 3691   4.992   5.999   6.303 -0.1905 -0.3375  0.2818
   28SAPC   O11 3692   4.921   6.166   6.471 -0.5949 -0.3113 -0.3015
   28SAPC    C1 3693   4.903   6.298   6.519  0.5512  0.3064  0.9208
   28SAPC    HA 3694   4.900   6.373   6.437  0.2188 -0.2508  0.4144
   28SAPC    HB 3695   4.802   6.294   6.564 -1.2169 -0.3745 -2.7838
   28SAPC    C2 3696   5.022   6.353   6.601  0.2246 -0.2021 -0.1460
   28SAPC    HS 3697   5.103   6.384   6.531 -0.3592 -0.3810 -0.9180
   28SAPC   O21 3698   5.073   6.249   6.685  0.0577 -0.0413  0.4106
   28SAPC   C21 3699   5.190   6.267   6.740  0.1506  0.5568  0.1237
   28SAPC   O22 3700   5.269   6.361   6.716 -1.0095  0.1001  0.0265
   28SAPC   C22 3701   5.214   6.146   6.832  0.4683 -0.0090 -0.1460
   28SAPC   H2R 3702   5.303   6.158   6.897  1.4724 -1.5063 -1.1733
   28SAPC   H2S 3703   5.130   6.156   6.904 -0.0435 -0.4621 -0.6725
   28SAPC    C3 3704   4.985   6.479   6.678  1.0345  0.4267 -0.4614
   28SAPC    HX 3705   4.892   6.518   6.631  0.1135 -0.0347  0.8999
   28SAPC    HY 3706   5.063   6.558   6.674 -0.5557  2.3558  2.6949
   28SAPC   O31 3707   4.959   6.446   6.816  0.1552  0.2757 -0.3214
   28SAPC   C31 3708   4.917   6.543   6.894 -0.2109 -0.4785 -0.5440
   28SAPC   O32 3709   4.898   6.660   6.865 -0.2661 -0.2480 -0.5151
   28SAPC   C32 3710   4.895   6.480   7.037 -0.7454 -0.2686 -0.0929
   28SAPC   H2X 3711   4.936   6.377   7.039  0.3756  0.1677  0.9993
   28SAPC   H2Y 3712   4.785   6.484   7.050 -0.8785  0.1773 -1.2064
   28SAPC   C23 3713   5.222   6.006   6.771  0.0370  0.4143  0.7080
   28SAPC   H3R 3714   5.304   6.006   6.695 -0.5657 -0.5881  0.0312
   28SAPC   H3S 3715   5.127   5.980   6.720 -0.9548  2.1562  1.6072
   28SAPC   C24 3716   5.258   5.902   6.879  0.3563 -0.5788  0.0787
   28SAPC   H4R 3717   5.177   5.894   6.955 -0.5742  1.4877 -0.6306
   28SAPC   H4S 3718   5.270   5.805   6.826  0.6686 -0.3283 -0.3147
   28SAPC   C25 3719   5.388   5.943   6.953 -0.5257 -0.0963 -0.2518
   28SAPC   H5R 3720   5.465   5.959   6.875 -0.0157  1.7692  0.5863
   28SAPC   C26 3721   5.415   5.977   7.082 -0.0100  0.3383  0.3315
   28SAPC   H6R 3722   5.508   6.026   7.114 -1.2902  3.3141 -0.1460
   28SAPC   C27 3723   5.305   5.967   7.189  0.0668 -0.0457  0.5796
   28SAPC   H7R 3724   5.207   5.972   7.138  0.4480 -1.5674 -0.3744
   28SAPC   H7S 3725   5.303   6.055   7.257 -1.0999  0.7022 -0.3891
   28SAPC   C28 3726   5.321   5.853   7.284  0.0951  0.6577  0.1788
   28SAPC   H8R 3727   5.415   5.857   7.340  0.1205  1.7341  0.0884
   28SAPC   C29 3728   5.251   5.739   7.299  0.1243 -0.6368  0.4807
   28SAPC   H9R 3729   5.263   5.681   7.392 -0.9429 -0.5495  0.6831
   28SAPC  C210 3730   5.134   5.708   7.208 -0.5769 -0.5306 -0.3940
   28SAPC  H10R 3731   5.149   5.767   7.115 -1.2147 -1.8971 -1.4181
   28SAPC  H10S 3732   5.036   5.742   7.249 -0.9798 -1.6172 -0.4198
   28SAPC  C211 3733   5.114   5.565   7.176  0.3472  0.2405 -0.0918
   28SAPC  H11R 3734   5.094   5.542   7.070  0.4179 -1.9574  0.3392
   28SAPC  C212 3735   5.107   5.459   7.259  0.1450 -0.2592 -0.3519
   28SAPC  H12R 3736   5.102   5.360   7.212 -1.3554 -0.3566 -0.0193
   28SAPC  C213 3737   5.114   5.457   7.410 -0.1698  0.1571 -0.3589
   28SAPC  H13R 3738   5.064   5.540   7.465  0.6563  0.8120 -0.5663
   28SAPC  H13S 3739   5.220   5.467   7.442 -0.6996  1.1808  1.2290
   28SAPC  C214 3740   5.071   5.321   7.468 -0.2758 -0.8329 -0.3544
   28SAPC  H14R 3741   4.989   5.280   7.408 -0.3787 -0.1234 -0.7091
   28SAPC  C215 3742   5.134   5.250   7.568 -0.2586 -0.0724  0.5212
   28SAPC  H15R 3743   5.099   5.149   7.592 -0.8873 -0.4167 -1.5724
   28SAPC  C216 3744   5.260   5.292   7.651 -0.2166  0.6732  0.3681
   28SAPC  H16R 3745   5.279   5.401   7.643  2.2293  0.3464  0.9518
   28SAPC  H16S 3746   5.347   5.245   7.601 -0.9569  1.2088 -1.5141
   28SAPC  C217 3747   5.259   5.238   7.798  0.5167 -0.6183 -0.4207
   28SAPC  H17R 3748   5.261   5.127   7.809 -0.8396 -0.7011 -0.7303
   28SAPC  H17S 3749   5.165   5.267   7.851  1.8367  0.6531  1.3345
   28SAPC  C218 3750   5.381   5.293   7.874  0.5030  0.0419 -0.4255
   28SAPC  H18R 3751   5.379   5.403   7.857 -0.1882  0.4724  2.1187
   28SAPC  H18S 3752   5.479   5.255   7.838 -0.1677 -1.0542 -1.1426
   28SAPC  C219 3753   5.373   5.278   8.022  0.5740  0.2107 -0.4281
   28SAPC  H19R 3754   5.381   5.168   8.042  1.6659  0.2578 -0.5500
   28SAPC  H19S 3755   5.276   5.322   8.054 -0.4793 -1.9798 -0.3837
   28SAPC  C220 3756   5.488   5.343   8.100  0.4249 -0.3863 -0.2155
   28SAPC  H20R 3757   5.489   5.451   8.076 -2.5900 -0.5421 -1.4658
   28SAPC  H20S 3758   5.586   5.298   8.077  0.9323 -0.5594  2.0644
   28SAPC  H20T 3759   5.474   5.343   8.211 -0.6065 -0.7565 -0.3340
   28SAPC   C33 3760   4.979   6.566   7.130  0.1108 -0.8968 -0.4496
   28SAPC   H3X 3761   5.075   6.602   7.087  0.1941 -1.7923 -1.0167
   28SAPC   H3Y 3762   5.021   6.503   7.211 -0.6268 -0.9133 -0.0684
   28SAPC   C34 3763   4.904   6.685   7.192 -0.3286  0.0994  0.2916
   28SAPC   H4X 3764   4.812   6.665   7.250 -0.7122  0.1613 -0.2885
   28SAPC   H4Y 3765   4.861   6.752   7.115 -2.3253 -1.4209 -0.0108
   28SAPC   C35 3766   4.991   6.770   7.285  0.4694 -0.4298  0.2112
   28SAPC   H5X 3767   5.075   6.820   7.233  0.0863 -1.6746 -1.6747
   28SAPC   H5Y 3768   5.043   6.699   7.353  0.1251  0.3591  1.3330
   28SAPC   C36 3769   4.907   6.861   7.373  0.0062  0.2178  0.6465
   28SAPC   H6X 3770   4.839   6.804   7.440 -0.0488  0.7113  1.0124
   28SAPC   H6Y 3771   4.857   6.936   7.307  0.6362  1.3303  1.4021
   28SAPC   C37 3772   4.990   6.962   7.458  0.2761  0.2212 -0.8998
   28SAPC   H7X 3773   5.031   7.037   7.387 -0.1481  0.9013 -0.4324
   28SAPC   H7Y 3774   5.075   6.903   7.499  1.3346  2.4018  0.1990
   28SAPC   C38 3775   4.907   7.016   7.573  0.2203 -0.1201  0.0806
   28SAPC   H8X 3776   4.846   6.939   7.624 -1.9358  1.7040  0.4458
   28SAPC   H8Y 3777   4.833   7.077   7.516 -0.7398 -0.7001  0.6815
   28SAPC   C39 3778   4.985   7.096   7.677 -0.2031 -0.5356  0.1076
   28SAPC   H9X 3779   5.017   7.194   7.636 -2.8182 -0.6423 -2.5525
   28SAPC   H9Y 3780   5.076   7.039   7.704 -0.3965  0.1219  2.3319
   28SAPC  C310 3781   4.888   7.113   7.787  0.0412 -0.2139 -0.0446
   28SAPC  H10X 3782   4.830   7.022   7.813 -2.7192  0.1682 -3.9633
   28SAPC  H10Y 3783   4.813   7.179   7.738  0.4672  0.1556 -0.2071
   28SAPC  C311 3784   4.961   7.179   7.909  0.2376 -0.5815  0.6188
   28SAPC  H11X 3785   4.895   7.221   7.988  2.8001 -0.0372  2.6019
   28SAPC  H11Y 3786   5.017   7.268   7.874  0.7035 -0.6644  1.1440
   28SAPC  C312 3787   5.041   7.087   7.993  0.0035  0.5670  0.7898
   28SAPC  H12X 3788   5.114   7.046   7.920 -0.2935  1.3643  0.0278
   28SAPC  H12Y 3789   4.985   7.002   8.037  0.1810 -0.7126 -1.3007
   28SAPC  C313 3790   5.126   7.167   8.100 -0.4807 -0.0474 -0.4378
   28SAPC  H13X 3791   5.180   7.098   8.168 -0.2629  0.4486 -0.0962
   28SAPC  H13Y 3792   5.070   7.240   8.163 -0.0107  0.8787 -1.0688
   28SAPC  C314 3793   5.245   7.248   8.041 -0.5706 -0.4443 -0.2716
   28SAPC  H14X 3794   5.198   7.325   7.977  0.8239  0.2809 -0.4586
   28SAPC  H14Y 3795   5.310   7.190   7.972 -0.2370  1.3903 -1.5687
   28SAPC  C315 3796   5.341   7.314   8.153 -1.1342 -1.1969  1.1964
   28SAPC  H15X 3797   5.391   7.235   8.213  1.1941 -1.0394 -0.3953
   28SAPC  H15Y 3798   5.282   7.372   8.227  1.9701  0.0515  2.8981
   28SAPC  C316 3799   5.447   7.411   8.081 -0.2405  0.7779  0.3536
   28SAPC  H16X 3800   5.497   7.475   8.156  0.3354  0.4795  0.2252
   28SAPC  H16Y 3801   5.385   7.470   8.009 -0.0283  4.4881  2.9718
   28SAPC  C317 3802   5.563   7.338   7.996 -0.5824 -0.7586 -0.1148
   28SAPC  H17X 3803   5.625   7.418   7.951 -2.7363  0.3013 -1.3341
   28SAPC  H17Y 3804   5.516   7.293   7.906  2.6482 -1.6431 -1.4981
   28SAPC  C318 3805   5.631   7.223   8.070 -0.1005  0.1356 -0.5540
   28SAPC  H18X 3806   5.669   7.261   8.168 -0.9086  0.1765 -0.2508
   28SAPC  H18Y 3807   5.718   7.180   8.016  0.9654  0.4269  0.8558
   28SAPC  H18Z 3808   5.560   7.146   8.106  0.5447  0.4565  1.5400
   29SAPC     N 3809   6.472   3.249   6.325 -0.5986  0.3992  0.3686
   29SAPC   C12 3810   6.598   3.179   6.374  0.0106  0.3360  0.3670
   29SAPC  H12A 3811   6.575   3.109   6.453  0.7320  1.1433  1.3140
   29SAPC  H12B 3812   6.663   3.254   6.415 -0.6015  1.5616 -0.7906
   29SAPC   C13 3813   6.380   3.157   6.255  0.1682  0.3645 -0.3990
   29SAPC  H13A 3814   6.418   3.118   6.161 -0.1210  0.6825 -0.6500
   29SAPC  H13B 3815   6.365   3.067   6.314  2.4167  0.3735  0.2909
   29SAPC  H13C 3816   6.286   3.206   6.239  0.9442  1.8155 -0.6335
   29SAPC   C14 3817   6.404   3.325   6.437  0.6381  0.3226 -0.3142
   29SAPC  H14A 3818   6.335   3.401   6.404 -0.2902  0.4857  1.8249
   29SAPC  H14B 3819   6.361   3.262   6.514  2.9605 -1.9095 -0.7081
   29SAPC  H14C 3820   6.476   3.387   6.488  2.1252 -0.2732 -1.6023
   29SAPC   C15 3821   6.516   3.349   6.222 -0.1634  1.0918 -0.1755
   29SAPC  H15A 3822   6.444   3.423   6.191 -1.4988  0.3011  0.8893
   29SAPC  H15B 3823   6.588   3.411   6.273  1.5612 -1.5830  0.8687
   29SAPC  H15C 3824   6.561   3.298   6.138  0.3224 -0.7249  1.1202
   29SAPC   C11 3825   6.684   3.106   6.263 -0.4524 -0.4768 -0.0811
   29SAPC  H11A 3826   6.616   3.051   6.194 -0.8590 -0.6353  0.4404
   29SAPC  H11B 3827   6.758   3.034   6.304 -0.0228 -0.1431 -0.2638
   29SAPC     P 3828   6.906   3.250   6.250  0.0138 -0.0397 -0.1640
   29SAPC   O13 3829   6.996   3.129   6.236  0.0470 -0.3401  0.1090
   29SAPC   O14 3830   6.936   3.383   6.189 -0.2794  0.6042 -0.0340
   29SAPC   O12 3831   6.761   3.212   6.201 -0.5044  0.2608 -0.0672
   29SAPC   O11 3832   6.890   3.280   6.408  0.0703  0.2098  0.0391
   29SAPC    C1 3833   6.856   3.410   6.451 -0.5342  0.4904 -0.0573
   29SAPC    HA 3834   6.930   3.491   6.431 -1.9945  1.0986 -3.7839
   29SAPC    HB 3835   6.765   3.451   6.403  0.3982  1.1064 -1.3628
   29SAPC    C2 3836   6.833   3.422   6.603 -0.7490  0.5375  0.8064
   29SAPC    HS 3837   6.929   3.411   6.657 -0.9908  2.4994  1.7217
   29SAPC   O21 3838   6.730   3.328   6.645 -0.2851  0.4397 -0.1679
   29SAPC   C21 3839   6.738   3.268   6.762 -0.2552  0.0868 -0.7676
   29SAPC   O22 3840   6.829   3.290   6.841  0.7637 -0.4094 -0.3044
   29SAPC   C22 3841   6.612   3.192   6.800 -0.0027 -0.0002  0.5892
   29SAPC   H2R 3842   6.529   3.264   6.786  0.0823  0.1791  0.9912
   29SAPC   H2S 3843   6.590   3.107   6.732  4.2733 -0.6304 -0.3245
   29SAPC    C3 3844   6.791   3.567   6.641  0.3785  0.1285 -0.0186
   29SAPC    HX 3845   6.723   3.616   6.569 -1.2759 -0.5181  1.0405
   29SAPC    HY 3846   6.891   3.615   6.646  0.6504 -0.4666  0.4803
   29SAPC   O31 3847   6.723   3.566   6.767 -0.9369 -0.3398  0.0451
   29SAPC   C31 3848   6.802   3.588   6.869  0.2383 -0.0774  0.8752
   29SAPC   O32 3849   6.921   3.613   6.866 -0.1925  0.8046  0.0084
   29SAPC   C32 3850   6.715   3.588   7.002  0.6214  0.1525 -0.0889
   29SAPC   H2X 3851   6.657   3.494   7.007  2.0301 -0.7969 -0.7265
   29SAPC   H2Y 3852   6.642   3.670   6.990 -0.2184 -0.8380 -2.3994
   29SAPC   C23 3853   6.610   3.123   6.942 -0.0609  0.8957 -0.2386
   29SAPC   H3R 3854   6.625   3.201   7.020  1.8937 -1.1727  1.6085
   29SAPC   H3S 3855   6.703   3.063   6.935 -0.6550 -0.2643  1.1870
   29SAPC   C24 3856   6.487   3.028   6.954 -0.2544 -0.3383 -0.9242
   29SAPC   H4R 3857   6.402   3.077   6.901 -1.7811 -2.2658 -0.3769
   29SAPC   H4S 3858   6.453   3.021   7.059 -0.5475 -0.9921 -1.0554
   29SAPC   C25 3859   6.526   2.890   6.904 -0.3435 -0.0061 -0.9571
   29SAPC   H5R 3860   6.495   2.874   6.800  0.0669 -0.0501 -1.0743
   29SAPC   C26 3861   6.605   2.803   6.975 -0.1228  0.7555  0.5084
   29SAPC   H6R 3862   6.629   2.705   6.929  0.9970  0.6805  1.2107
   29SAPC   C27 3863   6.668   2.826   7.114  0.0879  0.5447  0.2665
   29SAPC   H7R 3864   6.608   2.789   7.200 -2.3601  0.0533 -1.5800
   29SAPC   H7S 3865   6.692   2.934   7.131  0.6596  0.3164  1.0056
   29SAPC   C28 3866   6.797   2.762   7.125 -0.2976 -0.5974 -0.8701
   29SAPC   H8R 3867   6.848   2.730   7.033  1.5696 -3.2222  0.9511
   29SAPC   C29 3868   6.872   2.750   7.236  0.5216 -0.8473 -0.5016
   29SAPC   H9R 3869   6.967   2.695   7.225  1.6480  1.1429 -1.2690
   29SAPC  C210 3870   6.841   2.803   7.370 -0.6531 -0.2350 -0.6113
   29SAPC  H10R 3871   6.759   2.876   7.365  0.4718  1.0218 -1.3267
   29SAPC  H10S 3872   6.934   2.853   7.406 -1.7493  1.1778  0.3368
   29SAPC  C211 3873   6.772   2.705   7.459  0.1943  0.0610  0.3990
   29SAPC  H11R 3874   6.716   2.634   7.395  1.6281 -0.1687 -0.6487
   29SAPC  C212 3875   6.747   2.715   7.593 -0.1415  0.3375 -0.4263
   29SAPC  H12R 3876   6.708   2.627   7.646  1.0835  0.4142  0.6641
   29SAPC  C213 3877   6.796   2.834   7.668  0.4636 -0.0582  0.3449
   29SAPC  H13R 3878   6.711   2.865   7.734 -1.4557 -3.1486 -0.4670
   29SAPC  H13S 3879   6.807   2.921   7.600 -1.3134  0.6225  0.8480
   29SAPC  C214 3880   6.925   2.806   7.738 -0.4749  0.6316 -1.6539
   29SAPC  H14R 3881   7.017   2.806   7.678  0.3220  1.5287 -0.4610
   29SAPC  C215 3882   6.932   2.780   7.877  0.4841 -0.5503  0.1950
   29SAPC  H15R 3883   7.028   2.759   7.928  0.3035 -0.9471  0.3721
   29SAPC  C216 3884   6.807   2.775   7.975  0.1788 -0.4938  0.8062
   29SAPC  H16R 3885   6.718   2.737   7.920 -2.0961  4.3373  0.6498
   29SAPC  H16S 3886   6.772   2.870   8.021 -0.7269 -0.1399 -0.5475
   29SAPC  C217 3887   6.832   2.665   8.082  0.4378  0.3337 -0.8552
   29SAPC  H17R 3888   6.913   2.692   8.153 -1.4674 -2.0104  2.4952
   29SAPC  H17S 3889   6.870   2.577   8.026  0.5424  1.3832 -2.5192
   29SAPC  C218 3890   6.707   2.634   8.162  0.1700 -0.9186  0.1465
   29SAPC  H18R 3891   6.627   2.595   8.095  1.0509 -1.3367 -0.6761
   29SAPC  H18S 3892   6.683   2.736   8.200  0.6364  0.3998 -2.8348
   29SAPC  C219 3893   6.731   2.535   8.288 -0.8070  0.3581 -0.0331
   29SAPC  H19R 3894   6.642   2.551   8.352  1.2768 -0.4557  3.3257
   29SAPC  H19S 3895   6.813   2.582   8.346  1.3976 -2.7011 -0.3812
   29SAPC  C220 3896   6.776   2.399   8.249 -0.5672  0.0653  0.2883
   29SAPC  H20R 3897   6.715   2.352   8.169 -0.8458 -0.1756  0.6439
   29SAPC  H20S 3898   6.785   2.323   8.329 -0.2703 -0.6822 -0.4330
   29SAPC  H20T 3899   6.883   2.412   8.219 -0.9692  2.1269 -0.4151
   29SAPC   C33 3900   6.800   3.597   7.129 -0.8902 -0.6963  0.8812
   29SAPC   H3X 3901   6.856   3.693   7.135  0.8042 -1.6005  0.2052
   29SAPC   H3Y 3902   6.875   3.516   7.136 -0.4954 -0.2217  2.7226
   29SAPC   C34 3903   6.724   3.588   7.260  0.1266 -0.1010  0.1864
   29SAPC   H4X 3904   6.687   3.484   7.269  1.4755 -0.7116 -0.9021
   29SAPC   H4Y 3905   6.642   3.662   7.249 -0.2838 -0.3246  1.5819
   29SAPC   C35 3906   6.810   3.613   7.389  0.0001 -0.2589  0.4314
   29SAPC   H5X 3907   6.861   3.708   7.365 -2.4590  1.2841  0.9599
   29SAPC   H5Y 3908   6.880   3.527   7.394  3.5540  2.3928 -0.1657
   29SAPC   C36 3909   6.724   3.608   7.518 -0.9519 -0.1248  0.3865
   29SAPC   H6X 3910   6.655   3.522   7.514 -0.1025 -0.9709  2.5956
   29SAPC   H6Y 3911   6.680   3.710   7.514 -0.4695  0.0655 -0.7177
   29SAPC   C37 3912   6.822   3.587   7.642 -0.0464 -0.0984  0.0419
   29SAPC   H7X 3913   6.921   3.636   7.635  1.4505 -2.8628  0.7380
   29SAPC   H7Y 3914   6.837   3.478   7.658 -1.7414 -0.5416 -1.0403
   29SAPC   C38 3915   6.760   3.653   7.769 -0.1766 -0.6073  0.6222
   29SAPC   H8X 3916   6.660   3.607   7.783 -0.6873  0.4287  0.4473
   29SAPC   H8Y 3917   6.754   3.762   7.749 -2.1755 -0.4656  1.7795
   29SAPC   C39 3918   6.830   3.623   7.895  0.0291 -0.6897  0.1243
   29SAPC   H9X 3919   6.934   3.662   7.895  0.8822 -2.8017  0.2935
   29SAPC   H9Y 3920   6.843   3.513   7.905  0.5300 -0.6815 -0.3626
   29SAPC  C310 3921   6.741   3.681   8.008  0.1603  0.0729 -0.4351
   29SAPC  H10X 3922   6.658   3.608   8.025  1.3141 -0.8523  1.5046
   29SAPC  H10Y 3923   6.694   3.779   7.987 -1.1222 -0.4853 -0.2785
   29SAPC  C311 3924   6.806   3.681   8.149 -0.4348 -0.0243 -0.3814
   29SAPC  H11X 3925   6.903   3.737   8.147 -0.3764 -0.1352 -0.6826
   29SAPC  H11Y 3926   6.833   3.577   8.176  1.0112  0.6764  1.1052
   29SAPC  C312 3927   6.719   3.720   8.272  0.2804  0.1033  0.0768
   29SAPC  H12X 3928   6.714   3.831   8.272  1.6823  0.1960  0.9940
   29SAPC  H12Y 3929   6.774   3.692   8.365 -0.2316  1.1851  0.7231
   29SAPC  C313 3930   6.577   3.651   8.272 -0.2030  0.4278  0.2003
   29SAPC  H13X 3931   6.588   3.560   8.209  0.1030  0.7841 -0.2738
   29SAPC  H13Y 3932   6.502   3.723   8.233 -0.6713  1.1094  2.2844
   29SAPC  C314 3933   6.525   3.613   8.408  0.3203 -0.1778 -0.4016
   29SAPC  H14X 3934   6.598   3.547   8.458  2.9805  1.4382 -1.8928
   29SAPC  H14Y 3935   6.431   3.554   8.400 -0.6925  1.4981 -1.5870
   29SAPC  C315 3936   6.496   3.735   8.509  0.1327  0.1606  0.3650
   29SAPC  H15X 3937   6.404   3.792   8.482 -1.6939 -1.5579  2.5728
   29SAPC  H15Y 3938   6.584   3.801   8.493 -0.2323  0.8317  1.0882
   29SAPC  C316 3939   6.496   3.679   8.655  0.5631  0.3306  0.1853
   29SAPC  H16X 3940   6.481   3.752   8.737  1.2948 -0.8549  1.4276
   29SAPC  H16Y 3941   6.588   3.616   8.660  0.2983 -0.1085 -0.4575
   29SAPC  C317 3942   6.375   3.579   8.669  0.1234 -0.3486  0.4425
   29SAPC  H17X 3943   6.395   3.496   8.597  0.4567 -2.2166  2.5766
   29SAPC  H17Y 3944   6.284   3.630   8.632  1.0722 -0.9156 -3.0741
   29SAPC  C318 3945   6.357   3.511   8.806  0.4340  0.3185 -0.8003
   29SAPC  H18X 3946   6.364   3.577   8.895 -0.3696 -1.3829  0.6017
   29SAPC  H18Y 3947   6.436   3.432   8.806 -1.3972 -1.7113  2.2791
   29SAPC  H18Z 3948   6.267   3.446   8.804  2.0745 -2.1473  0.1897
   30SAPC     N 3949   1.241   3.434   6.097 -0.4584  0.1466 -0.7745
   30SAPC   C12 3950   1.375   3.447   6.157 -0.8113 -0.0650 -0.3820
   30SAPC  H12A 3951   1.429   3.526   6.107 -1.0060 -0.2101 -0.8266
   30SAPC  H12B 3952   1.428   3.354   6.149 -2.0143 -0.8446  0.3545
   30SAPC   C13 3953   1.162   3.557   6.113 -0.4268 -1.0397 -0.2859
   30SAPC  H13A 3954   1.206   3.646   6.071  0.1084 -1.1722 -0.0068
   30SAPC  H13B 3955   1.069   3.554   6.057 -0.2743  2.1417 -0.8864
   30SAPC  H13C 3956   1.136   3.575   6.216  1.5870 -0.8100  0.2260
   30SAPC   C14 3957   1.249   3.405   5.950 -0.6856 -0.4291  0.1316
   30SAPC  H14A 3958   1.300   3.310   5.938 -0.4243 -0.1102 -1.6692
   30SAPC  H14B 3959   1.151   3.391   5.905 -1.5475  4.7608 -0.1460
   30SAPC  H14C 3960   1.298   3.476   5.885  1.3105 -1.5942  0.2709
   30SAPC   C15 3961   1.161   3.322   6.161 -0.0332  0.0341  0.6372
   30SAPC  H15A 3962   1.060   3.320   6.122  0.1719  0.5898  0.0547
   30SAPC  H15B 3963   1.224   3.235   6.150  1.3120  1.1340 -0.8421
   30SAPC  H15C 3964   1.159   3.321   6.269 -0.6795  1.2405  0.6511
   30SAPC   C11 3965   1.382   3.471   6.311 -0.2054 -0.1661  0.0588
   30SAPC  H11A 3966   1.486   3.465   6.351  0.4010 -0.6338 -1.5351
   30SAPC  H11B 3967   1.321   3.390   6.357 -2.8717  0.8570 -1.4856
   30SAPC     P 3968   1.412   3.732   6.326 -0.1741  0.5937 -0.0887
   30SAPC   O13 3969   1.476   3.719   6.197  0.0564 -0.6093 -0.3777
   30SAPC   O14 3970   1.329   3.853   6.348  0.4739 -0.3659  0.8783
   30SAPC   O12 3971   1.323   3.603   6.347  0.1166  0.0311  0.1415
   30SAPC   O11 3972   1.524   3.722   6.436  0.4134  0.1117  0.1633
   30SAPC    C1 3973   1.508   3.769   6.570 -0.8234 -0.0989 -0.3326
   30SAPC    HA 3974   1.603   3.806   6.614  0.0085 -2.6119  0.1379
   30SAPC    HB 3975   1.434   3.852   6.574 -0.0900  0.5769 -0.5280
   30SAPC    C2 3976   1.450   3.665   6.671  0.4467 -0.1352  0.1139
   30SAPC    HS 3977   1.345   3.654   6.638 -0.2953 -0.1164  2.3217
   30SAPC   O21 3978   1.483   3.718   6.805  0.1096 -0.2410 -0.2336
   30SAPC   C21 3979   1.379   3.708   6.883  0.2930  0.7387  0.3119
   30SAPC   O22 3980   1.276   3.651   6.850 -0.3108  0.5741  0.0002
   30SAPC   C22 3981   1.409   3.747   7.030 -0.5000 -0.7594  0.1054
   30SAPC   H2R 3982   1.518   3.759   7.046 -0.6392 -0.0235  0.5842
   30SAPC   H2S 3983   1.380   3.853   7.049  2.3443  0.3766 -1.2150
   30SAPC    C3 3984   1.510   3.524   6.654 -0.2604 -0.2264 -0.1193
   30SAPC    HX 3985   1.613   3.529   6.614 -0.7958 -0.3215 -1.5679
   30SAPC    HY 3986   1.458   3.480   6.566  0.6591  1.8457 -1.7879
   30SAPC   O31 3987   1.504   3.440   6.768  0.5475  0.3895 -0.6009
   30SAPC   C31 3988   1.385   3.373   6.783 -0.6352  0.1241 -0.1390
   30SAPC   O32 3989   1.289   3.389   6.708 -0.4322  0.0091 -0.4079
   30SAPC   C32 3990   1.376   3.279   6.906  0.1702 -0.6693  0.3812
   30SAPC   H2X 3991   1.462   3.290   6.975  1.4913  0.7075 -1.3733
   30SAPC   H2Y 3992   1.384   3.175   6.866  4.7549 -0.6986  0.8128
   30SAPC   C23 3993   1.341   3.662   7.132 -0.0610 -0.1099 -0.2358
   30SAPC   H3R 3994   1.392   3.674   7.230 -1.0593 -1.8730  0.5443
   30SAPC   H3S 3995   1.368   3.555   7.120  3.1913  0.4884  0.9014
   30SAPC   C24 3996   1.187   3.680   7.156  0.0637 -0.1384 -0.5956
   30SAPC   H4R 3997   1.134   3.669   7.059 -0.3951  0.1782 -0.3849
   30SAPC   H4S 3998   1.157   3.782   7.190 -2.7671 -0.8114 -0.8080
   30SAPC   C25 3999   1.123   3.589   7.253 -0.2591  0.2978 -0.2116
   30SAPC   H5R 4000   1.068   3.502   7.213 -1.5043  0.5265  0.9461
   30SAPC   C26 4001   1.118   3.603   7.385 -0.7390 -0.7599 -1.2359
   30SAPC   H6R 4002   1.095   3.511   7.442 -0.7231  0.3684  0.6807
   30SAPC   C27 4003   1.170   3.711   7.478  0.3651 -0.3884  0.0265
   30SAPC   H7R 4004   1.099   3.730   7.562  0.5289  1.4326 -0.1888
   30SAPC   H7S 4005   1.164   3.806   7.421 -2.8730 -0.5907 -0.1562
   30SAPC   C28 4006   1.306   3.673   7.539 -0.0413 -0.6486  0.2775
   30SAPC   H8R 4007   1.374   3.634   7.462 -0.1932  0.9951 -0.7423
   30SAPC   C29 4008   1.365   3.691   7.661 -0.0229 -0.4170 -0.3485
   30SAPC   H9R 4009   1.467   3.653   7.678 -0.1916 -2.0941 -2.5972
   30SAPC  C210 4010   1.296   3.760   7.777  0.0869  0.4895  0.2377
   30SAPC  H10R 4011   1.199   3.707   7.786  1.4825 -2.1838  0.5338
   30SAPC  H10S 4012   1.276   3.864   7.743 -0.3308  0.8086  1.4142
   30SAPC  C211 4013   1.359   3.758   7.918  0.9401  0.0010  0.1738
   30SAPC  H11R 4014   1.421   3.670   7.942  2.7577  0.8836 -1.0450
   30SAPC  C212 4015   1.345   3.863   8.002  0.0425 -0.1959 -0.1065
   30SAPC  H12R 4016   1.391   3.862   8.102  2.1974  4.3535 -0.8322
   30SAPC  C213 4017   1.268   3.986   7.975 -0.4780 -0.1510 -0.4804
   30SAPC  H13R 4018   1.225   4.007   7.874  0.4941  0.0199 -0.8666
   30SAPC  H13S 4019   1.345   4.064   7.989  0.0205 -0.8236  0.5829
   30SAPC  C214 4020   1.153   3.993   8.066  0.7323 -0.6715 -0.0386
   30SAPC  H14R 4021   1.063   3.939   8.034 -1.9608  2.6234  1.3740
   30SAPC  C215 4022   1.143   4.059   8.177 -0.4323  0.0228 -0.7149
   30SAPC  H15R 4023   1.044   4.081   8.219 -0.4278  1.3991 -1.3427
   30SAPC  C216 4024   1.251   4.151   8.242  0.2793  0.6287 -0.3551
   30SAPC  H16R 4025   1.349   4.127   8.196  0.1311 -1.4887  0.3489
   30SAPC  H16S 4026   1.260   4.120   8.349  0.4898 -2.8565 -1.2635
   30SAPC  C217 4027   1.235   4.308   8.226  0.1432  0.1581 -0.5387
   30SAPC  H17R 4028   1.142   4.354   8.266  0.8830  0.9605  0.2905
   30SAPC  H17S 4029   1.253   4.330   8.118 -0.6051 -1.7360 -1.0937
   30SAPC  C218 4030   1.348   4.387   8.295  0.1947 -0.2007  0.1326
   30SAPC  H18R 4031   1.343   4.493   8.261  0.7562  0.1733  1.1727
   30SAPC  H18S 4032   1.442   4.341   8.259 -0.4617 -1.0970 -0.4815
   30SAPC  C219 4033   1.363   4.384   8.451 -0.3733  0.0779  0.7582
   30SAPC  H19R 4034   1.363   4.277   8.479  1.8909  0.0457  0.8595
   30SAPC  H19S 4035   1.279   4.450   8.481 -0.3666  1.4557 -1.9859
   30SAPC  C220 4036   1.500   4.447   8.481 -0.4614 -0.1721 -0.0181
   30SAPC  H20R 4037   1.512   4.547   8.433 -0.6308 -0.5495 -0.8668
   30SAPC  H20S 4038   1.590   4.390   8.449 -0.1968 -0.1846  0.7315
   30SAPC  H20T 4039   1.511   4.464   8.590 -1.1005  1.8750 -0.2276
   30SAPC   C33 4040   1.239   3.290   6.978 -0.1845 -0.0498  0.5699
   30SAPC   H3X 4041   1.157   3.251   6.914 -2.1901  0.4817  2.6508
   30SAPC   H3Y 4042   1.220   3.396   7.003 -1.3960 -0.6253  2.3741
   30SAPC   C34 4043   1.241   3.205   7.117  0.5547 -0.3518  0.1531
   30SAPC   H4X 4044   1.283   3.107   7.086  0.9589  0.0843 -0.7042
   30SAPC   H4Y 4045   1.134   3.201   7.147 -0.0925  0.7679 -1.8167
   30SAPC   C35 4046   1.335   3.268   7.227 -0.6496  0.3298 -0.8190
   30SAPC   H5X 4047   1.300   3.372   7.242  0.5914  0.9097 -1.7377
   30SAPC   H5Y 4048   1.443   3.278   7.201 -0.7125 -1.5202 -1.9753
   30SAPC   C36 4049   1.326   3.187   7.369  0.1966 -0.1589  0.4868
   30SAPC   H6X 4050   1.378   3.089   7.361  0.5321 -0.0251  1.0282
   30SAPC   H6Y 4051   1.218   3.164   7.381 -0.4306  2.3702  0.2557
   30SAPC   C37 4052   1.362   3.278   7.492  0.5531 -0.9904  0.9771
   30SAPC   H7X 4053   1.288   3.360   7.492  2.0166  0.5776 -3.1005
   30SAPC   H7Y 4054   1.465   3.315   7.477 -0.0543  0.2080 -0.5180
   30SAPC   C38 4055   1.348   3.208   7.626  0.4228 -0.6635  0.6567
   30SAPC   H8X 4056   1.410   3.115   7.621 -0.0482 -0.9055 -1.1554
   30SAPC   H8Y 4057   1.247   3.176   7.660  0.1023 -0.2097  0.1364
   30SAPC   C39 4058   1.397   3.297   7.733 -0.3612  0.1231 -0.4487
   30SAPC   H9X 4059   1.335   3.389   7.739  0.4746  0.6902 -0.2102
   30SAPC   H9Y 4060   1.497   3.335   7.703  0.0143  0.0676  0.6779
   30SAPC  C310 4061   1.407   3.228   7.868 -0.4612  1.1318  0.4013
   30SAPC  H10X 4062   1.475   3.140   7.858 -1.6086  0.1024  1.4748
   30SAPC  H10Y 4063   1.309   3.183   7.892 -0.0907 -1.0298 -1.7340
   30SAPC  C311 4064   1.449   3.314   7.986 -0.5207 -0.6536  0.9109
   30SAPC  H11X 4065   1.364   3.386   7.980 -0.6741 -0.8739  0.3850
   30SAPC  H11Y 4066   1.546   3.363   7.962  0.2058 -2.0583  0.8746
   30SAPC  C312 4067   1.465   3.245   8.112  0.1023  0.2569 -0.0404
   30SAPC  H12X 4068   1.529   3.156   8.089 -0.1584 -0.0931  0.5684
   30SAPC  H12Y 4069   1.368   3.206   8.150 -0.5813  1.5367 -0.4244
   30SAPC  C313 4070   1.537   3.324   8.226  0.4058 -0.5894 -0.0434
   30SAPC  H13X 4071   1.469   3.401   8.268 -0.5838 -2.7851  2.7943
   30SAPC  H13Y 4072   1.629   3.371   8.186 -0.5508  1.3253 -0.0841
   30SAPC  C314 4073   1.563   3.234   8.343 -0.2807  0.4658 -0.0979
   30SAPC  H14X 4074   1.656   3.173   8.329 -1.1944 -0.8721 -0.5235
   30SAPC  H14Y 4075   1.487   3.153   8.341 -2.6262  2.5528 -2.2502
   30SAPC  C315 4076   1.580   3.299   8.478  0.6782 -0.1661 -0.5160
   30SAPC  H15X 4077   1.478   3.338   8.496  0.0973 -2.5803  2.0002
   30SAPC  H15Y 4078   1.644   3.390   8.466 -0.6904  1.6059  3.8506
   30SAPC  C316 4079   1.618   3.211   8.588 -0.1199  0.8663 -0.1127
   30SAPC  H16X 4080   1.570   3.114   8.560  2.0985 -0.0115 -1.1600
   30SAPC  H16Y 4081   1.580   3.249   8.685  0.0465  1.7751 -0.3987
   30SAPC  C317 4082   1.768   3.191   8.583 -0.2111 -0.1925 -0.5577
   30SAPC  H17X 4083   1.811   3.287   8.619 -1.2740 -0.8980  2.9852
   30SAPC  H17Y 4084   1.804   3.177   8.478  0.0751  1.5469 -0.7265
   30SAPC  C318 4085   1.821   3.078   8.673 -0.6236  0.5613  0.7282
   30SAPC  H18X 4086   1.923   3.043   8.645 -0.7979  0.1246  0.6240
   30SAPC  H18Y 4087   1.753   2.991   8.662  1.1633 -0.7777 -0.4344
   30SAPC  H18Z 4088   1.830   3.103   8.781 -1.2288  1.3535  0.6051
   31SAPC     N 4089   4.160   3.304   5.972 -0.6411  0.4517 -0.0311
   31SAPC   C12 4090   4.264   3.405   6.029  0.3468 -0.2218  0.1998
   31SAPC  H12A 4091   4.364   3.374   6.003  0.9511  1.9537 -0.2902
   31SAPC  H12B 4092   4.262   3.410   6.137 -2.1666  1.4264  0.1804
   31SAPC   C13 4093   4.172   3.277   5.831  0.2731  0.6041  0.0111
   31SAPC  H13A 4094   4.275   3.267   5.800  1.0111 -0.2631  2.5002
   31SAPC  H13B 4095   4.130   3.180   5.811  1.8956 -0.5383  1.8452
   31SAPC  H13C 4096   4.120   3.346   5.766  0.3532  0.6906  0.0378
   31SAPC   C14 4097   4.196   3.175   6.050 -0.0967 -0.4354 -0.5226
   31SAPC  H14A 4098   4.290   3.139   6.012 -0.0067  0.5969 -1.3074
   31SAPC  H14B 4099   4.208   3.201   6.154 -1.3119 -0.2476 -0.4161
   31SAPC  H14C 4100   4.126   3.094   6.037 -0.1209 -0.8841  1.9428
   31SAPC   C15 4101   4.019   3.335   6.009 -1.1240 -0.0169 -0.3540
   31SAPC  H15A 4102   4.012   3.370   6.110  1.3260  0.2940 -0.2203
   31SAPC  H15B 4103   3.988   3.421   5.951  1.4587  0.3947 -1.2533
   31SAPC  H15C 4104   3.956   3.251   5.984 -0.5506 -0.6442  0.2758
   31SAPC   C11 4105   4.244   3.551   5.991  0.9971 -0.1399 -0.0561
   31SAPC  H11A 4106   4.211   3.549   5.885  0.5724 -1.5679  0.0754
   31SAPC  H11B 4107   4.337   3.609   6.008  0.6103 -0.2267  2.9896
   31SAPC     P 4108   4.173   3.646   6.227  0.0534 -0.2152 -0.0390
   31SAPC   O13 4109   4.198   3.525   6.309  0.0805 -0.7707  0.3606
   31SAPC   O14 4110   4.275   3.750   6.232  0.1768  0.1298 -0.3433
   31SAPC   O12 4111   4.141   3.602   6.080 -0.7460  0.2514 -0.5505
   31SAPC   O11 4112   4.035   3.718   6.270  0.3797 -0.2691 -0.1581
   31SAPC    C1 4113   4.031   3.799   6.380 -0.1754 -0.0563  0.3184
   31SAPC    HA 4114   4.110   3.878   6.381  2.2448 -2.1526  4.6009
   31SAPC    HB 4115   3.929   3.843   6.376 -1.3348 -2.6395 -0.0662
   31SAPC    C2 4116   4.017   3.727   6.514 -0.2312  0.1206 -0.7706
   31SAPC    HS 4117   3.978   3.806   6.583 -0.6991 -0.7356 -0.0354
   31SAPC   O21 4118   4.150   3.673   6.549  0.7557  0.0029  0.4139
   31SAPC   C21 4119   4.169   3.658   6.679 -0.0793 -0.0048  0.4515
   31SAPC   O22 4120   4.101   3.696   6.770  0.8309  0.4753 -0.0076
   31SAPC   C22 4121   4.290   3.570   6.696 -0.1426  1.0167  0.4234
   31SAPC   H2R 4122   4.255   3.466   6.676  0.6336  1.1350 -1.9251
   31SAPC   H2S 4123   4.350   3.596   6.605 -1.5949  1.6599 -0.3868
   31SAPC    C3 4124   3.900   3.621   6.508 -0.1663  0.5506  0.2067
   31SAPC    HX 4125   3.939   3.532   6.453  0.7143 -0.2821  2.0455
   31SAPC    HY 4126   3.812   3.663   6.456  1.0966  0.4370 -2.1855
   31SAPC   O31 4127   3.859   3.574   6.642 -0.0410  0.1060 -0.1904
   31SAPC   C31 4128   3.783   3.668   6.703 -0.1257  0.3174 -0.5610
   31SAPC   O32 4129   3.757   3.775   6.658  0.2079  0.3197  0.2246
   31SAPC   C32 4130   3.730   3.615   6.833  0.0415 -0.4313  0.7355
   31SAPC   H2X 4131   3.708   3.508   6.815  3.3968 -1.3887  1.5280
   31SAPC   H2Y 4132   3.654   3.690   6.862  0.4301  0.1046  0.3843
   31SAPC   C23 4133   4.341   3.593   6.836 -0.3168  0.3560 -0.3441
   31SAPC   H3R 4134   4.405   3.505   6.860  1.3363  1.3863 -0.7961
   31SAPC   H3S 4135   4.262   3.599   6.914  0.1590  1.9136  0.0428
   31SAPC   C24 4136   4.422   3.720   6.868  0.0442  0.6413 -0.0264
   31SAPC   H4R 4137   4.350   3.803   6.883  0.1456  0.3326  2.6782
   31SAPC   H4S 4138   4.475   3.742   6.773  2.1188  1.9565  1.3679
   31SAPC   C25 4139   4.523   3.701   6.981 -0.2612 -0.4078  0.8013
   31SAPC   H5R 4140   4.625   3.686   6.943 -0.4044  0.0481  0.2197
   31SAPC   C26 4141   4.500   3.692   7.109  0.4120 -0.1050 -0.2213
   31SAPC   H6R 4142   4.587   3.700   7.177  1.5179  0.7118 -1.6594
   31SAPC   C27 4143   4.370   3.706   7.177  0.0668  0.6030 -0.0761
   31SAPC   H7R 4144   4.284   3.716   7.107 -0.9005  1.0853  1.1259
   31SAPC   H7S 4145   4.359   3.800   7.236 -0.0320  0.7876 -0.3844
   31SAPC   C28 4146   4.336   3.589   7.268  0.3246  0.0846  0.2899
   31SAPC   H8R 4147   4.304   3.497   7.217  1.2079  0.3125 -0.7017
   31SAPC   C29 4148   4.335   3.588   7.406  0.2843 -0.0156 -0.4916
   31SAPC   H9R 4149   4.319   3.488   7.448  0.9897 -0.0290 -0.2532
   31SAPC  C210 4150   4.365   3.705   7.495  0.0868  0.2980  0.0844
   31SAPC  H10R 4151   4.303   3.694   7.586 -2.0004 -0.5417 -1.3607
   31SAPC  H10S 4152   4.320   3.799   7.456  1.0825  0.6587 -0.2277
   31SAPC  C211 4153   4.514   3.737   7.522 -0.0402 -0.4853  0.1290
   31SAPC  H11R 4154   4.576   3.737   7.431 -1.6528 -0.9118 -1.0300
   31SAPC  C212 4155   4.565   3.797   7.631  0.2926 -0.0696 -0.4257
   31SAPC  H12R 4156   4.671   3.823   7.620 -0.1453  2.2737  0.3805
   31SAPC  C213 4157   4.494   3.831   7.749 -0.5535  0.7547 -0.7779
   31SAPC  H13R 4158   4.401   3.769   7.752 -0.0984  0.0646  2.9308
   31SAPC  H13S 4159   4.468   3.938   7.761 -0.5944  0.5064  1.8792
   31SAPC  C214 4160   4.580   3.782   7.866  0.1912 -0.0706  0.1009
   31SAPC  H14R 4161   4.660   3.853   7.891  1.1840 -0.6369 -1.3519
   31SAPC  C215 4162   4.584   3.660   7.924 -0.0606  0.1906  0.0910
   31SAPC  H15R 4163   4.638   3.648   8.019 -0.5073 -1.7199  0.1512
   31SAPC  C216 4164   4.502   3.539   7.881  0.2262 -0.3742 -0.2448
   31SAPC  H16R 4165   4.564   3.447   7.887 -1.8762 -1.8340  0.2758
   31SAPC  H16S 4166   4.457   3.538   7.779 -1.1961 -1.4720  0.3549
   31SAPC  C217 4167   4.391   3.528   7.988 -0.0988  0.9304  0.8369
   31SAPC  H17R 4168   4.305   3.464   7.959 -0.9287  1.9842  0.9021
   31SAPC  H17S 4169   4.337   3.624   8.006 -3.0933 -0.1638 -1.4064
   31SAPC  C218 4170   4.443   3.483   8.124 -0.8379  0.0565  0.5331
   31SAPC  H18R 4171   4.511   3.561   8.165  0.3262 -0.0234 -1.1506
   31SAPC  H18S 4172   4.498   3.390   8.102 -1.1214  0.3810 -1.7551
   31SAPC  C219 4173   4.334   3.443   8.218 -0.1309  0.3944 -0.3086
   31SAPC  H19R 4174   4.250   3.389   8.168 -0.2008  1.2262 -1.1147
   31SAPC  H19S 4175   4.282   3.533   8.255 -1.0690  0.5018 -1.7951
   31SAPC  C220 4176   4.401   3.381   8.341 -0.1654 -0.5610 -0.8404
   31SAPC  H20R 4177   4.435   3.276   8.324  0.5839 -0.4781  0.0850
   31SAPC  H20S 4178   4.344   3.384   8.436 -0.2076  0.5597 -0.8943
   31SAPC  H20T 4179   4.493   3.439   8.360 -0.4024  0.3187 -2.2307
   31SAPC   C33 4180   3.831   3.621   6.949  0.5323  0.3689 -0.4572
   31SAPC   H3X 4181   3.929   3.572   6.931  1.0882  1.6647 -1.1110
   31SAPC   H3Y 4182   3.788   3.558   7.029  2.0077 -1.3461 -0.9602
   31SAPC   C34 4183   3.858   3.765   7.006  0.1842  0.0058 -0.4912
   31SAPC   H4X 4184   3.760   3.811   7.028 -0.3311 -1.3209  0.0576
   31SAPC   H4Y 4185   3.909   3.828   6.929  1.2607 -0.3822 -0.1233
   31SAPC   C35 4186   3.950   3.761   7.128  0.0425  0.4173  0.5712
   31SAPC   H5X 4187   3.986   3.862   7.154  2.3344  0.2488 -1.5795
   31SAPC   H5Y 4188   4.038   3.696   7.106 -0.8353 -0.4169 -0.6813
   31SAPC   C36 4189   3.875   3.705   7.246 -0.1895 -0.3342 -0.8680
   31SAPC   H6X 4190   3.861   3.597   7.228 -1.8176 -0.6319  1.6741
   31SAPC   H6Y 4191   3.772   3.744   7.261 -0.1630 -0.4304 -0.3993
   31SAPC   C37 4192   3.957   3.712   7.374  0.6995 -0.2310  0.4711
   31SAPC   H7X 4193   3.983   3.817   7.401 -0.4782  0.1639  0.1420
   31SAPC   H7Y 4194   4.051   3.654   7.367  0.4896 -0.5550  0.2849
   31SAPC   C38 4195   3.892   3.662   7.499  0.1981  0.6091 -0.2017
   31SAPC   H8X 4196   3.846   3.561   7.493  0.6204  0.3015  1.2927
   31SAPC   H8Y 4197   3.800   3.722   7.512 -0.6138 -0.7209  0.3224
   31SAPC   C39 4198   3.962   3.692   7.630 -0.1197 -0.3624  0.5721
   31SAPC   H9X 4199   3.975   3.802   7.634 -1.2223 -0.1773 -0.2724
   31SAPC   H9Y 4200   4.061   3.643   7.638  0.5834  0.5463 -1.6002
   31SAPC  C310 4201   3.882   3.673   7.760  0.4617  0.4214 -0.6757
   31SAPC  H10X 4202   3.893   3.568   7.794 -0.2330  0.9317  1.2541
   31SAPC  H10Y 4203   3.776   3.698   7.738 -0.7222 -1.6594  2.1076
   31SAPC  C311 4204   3.917   3.768   7.877  0.1609  0.5672 -0.2578
   31SAPC  H11X 4205   3.856   3.732   7.963  0.9232  3.9709  1.9042
   31SAPC  H11Y 4206   3.881   3.866   7.839  3.3998  1.3147 -1.7099
   31SAPC  C312 4207   4.062   3.781   7.922  0.2407 -0.4727  0.4918
   31SAPC  H12X 4208   4.118   3.830   7.840  3.6057 -0.1134  2.7774
   31SAPC  H12Y 4209   4.114   3.689   7.957  0.4077 -0.8852 -0.8023
   31SAPC  C313 4210   4.068   3.895   8.032  0.1518  0.4410  0.2125
   31SAPC  H13X 4211   4.014   3.855   8.120  1.8042  2.6241  2.3582
   31SAPC  H13Y 4212   4.016   3.984   7.989  1.6438  0.8442 -0.8437
   31SAPC  C314 4213   4.207   3.939   8.081 -0.0044  0.0592  0.3682
   31SAPC  H14X 4214   4.270   3.955   7.991  1.2357  0.7117  1.3301
   31SAPC  H14Y 4215   4.260   3.852   8.125 -0.1425  0.0962  0.6147
   31SAPC  C315 4216   4.194   4.058   8.177 -0.5817 -0.5646 -0.1543
   31SAPC  H15X 4217   4.109   4.047   8.248 -2.1582  0.0321 -1.8614
   31SAPC  H15Y 4218   4.169   4.144   8.111  0.8968 -0.9313 -1.2383
   31SAPC  C316 4219   4.329   4.100   8.239 -0.1316 -0.0635  0.3628
   31SAPC  H16X 4220   4.404   4.108   8.157  1.6905 -1.8501  1.7697
   31SAPC  H16Y 4221   4.365   4.034   8.320 -0.0194 -0.2573  0.1561
   31SAPC  C317 4222   4.322   4.241   8.316  0.2145  0.1978  0.4388
   31SAPC  H17X 4223   4.266   4.227   8.411 -0.6659 -0.8763 -0.2147
   31SAPC  H17Y 4224   4.262   4.316   8.260  0.8905  0.5901  0.2287
   31SAPC  C318 4225   4.454   4.304   8.345  0.0640 -0.7484 -0.0740
   31SAPC  H18X 4226   4.506   4.322   8.249 -1.5538  1.1115 -0.6689
   31SAPC  H18Y 4227   4.513   4.241   8.415  0.1950 -0.2787  0.2392
   31SAPC  H18Z 4228   4.450   4.410   8.377 -1.2152  0.2104 -3.0521
   32SAPC     N 4229   4.713   0.994   6.048  0.3307 -0.4529 -0.2948
   32SAPC   C12 4230   4.849   1.047   6.090  0.2810  0.0120 -0.0572
   32SAPC  H12A 4231   4.842   1.128   6.161 -0.2355 -1.1014  1.2064
   32SAPC  H12B 4232   4.904   1.079   6.003  0.8784 -0.3641  0.1750
   32SAPC   C13 4233   4.634   1.113   6.000  0.0267  0.5394 -0.8178
   32SAPC  H13A 4234   4.537   1.095   5.956 -0.0769 -0.4193 -0.2203
   32SAPC  H13B 4235   4.620   1.184   6.080  0.5763 -1.5432  1.2273
   32SAPC  H13C 4236   4.692   1.161   5.923  1.1552  1.8187  0.7545
   32SAPC   C14 4237   4.725   0.889   5.943 -0.3316 -0.8379 -0.1401
   32SAPC  H14A 4238   4.636   0.829   5.926 -1.2924  0.3128  0.7023
   32SAPC  H14B 4239   4.756   0.928   5.847 -0.6623 -1.8363 -0.6835
   32SAPC  H14C 4240   4.800   0.822   5.982  1.6661  1.6879  0.5344
   32SAPC   C15 4241   4.640   0.936   6.171 -0.4306 -0.6002  0.2809
   32SAPC  H15A 4242   4.603   1.018   6.231  1.4073 -0.9750  2.0366
   32SAPC  H15B 4243   4.557   0.880   6.131  0.4239 -1.9509  0.3358
   32SAPC  H15C 4244   4.704   0.873   6.231  0.4137  0.7459  0.8577
   32SAPC   C11 4245   4.946   0.946   6.163 -0.3249 -0.0353  1.2296
   32SAPC  H11A 4246   4.893   0.941   6.260  0.1888  2.6101  1.7403
   32SAPC  H11B 4247   5.043   0.997   6.183 -1.0851  1.8032  0.5237
   32SAPC     P 4248   4.936   0.686   6.164  0.2231  0.4759 -0.0542
   32SAPC   O13 4249   4.793   0.634   6.146 -0.0533  0.2135  0.2771
   32SAPC   O14 4250   5.043   0.595   6.111 -0.1421  0.5257  0.4327
   32SAPC   O12 4251   4.967   0.828   6.089 -0.2400  0.5460 -0.1287
   32SAPC   O11 4252   4.962   0.709   6.317  0.3415 -0.5447  0.2898
   32SAPC    C1 4253   4.926   0.615   6.427 -0.3907  0.1827  0.3882
   32SAPC    HA 4254   4.922   0.509   6.392  2.3661  0.5038 -1.1941
   32SAPC    HB 4255   5.007   0.599   6.501 -0.2625  1.0097  0.4299
   32SAPC    C2 4256   4.800   0.667   6.503 -0.0325  0.1728  0.5526
   32SAPC    HS 4257   4.711   0.648   6.438 -0.0299  0.7576  0.3727
   32SAPC   O21 4258   4.817   0.803   6.532  0.2482 -0.4488 -0.2407
   32SAPC   C21 4259   4.719   0.860   6.595 -1.3778 -0.4978  0.1782
   32SAPC   O22 4260   4.606   0.820   6.604  0.0900  0.2607  0.2687
   32SAPC   C22 4261   4.773   0.962   6.691 -0.4909  0.0383  0.9586
   32SAPC   H2R 4262   4.874   1.000   6.666 -0.9950  2.5036  2.2912
   32SAPC   H2S 4263   4.708   1.051   6.674  0.0747  0.2036 -0.4922
   32SAPC    C3 4264   4.772   0.587   6.631  0.6600  0.5989 -0.4951
   32SAPC    HX 4265   4.806   0.483   6.614  1.2010  0.6507  0.2357
   32SAPC    HY 4266   4.661   0.588   6.633  0.6682  0.5661  0.4781
   32SAPC   O31 4267   4.832   0.645   6.753  0.0755  0.3998  0.0077
   32SAPC   C31 4268   4.805   0.564   6.853  0.0485 -0.2038 -0.5229
   32SAPC   O32 4269   4.715   0.481   6.855  0.2260  0.4797  0.7271
   32SAPC   C32 4270   4.912   0.588   6.958 -0.0733  0.2754  0.2840
   32SAPC   H2X 4271   4.878   0.660   7.035 -1.1523  2.2173 -1.8661
   32SAPC   H2Y 4272   4.998   0.638   6.908  2.0451 -2.0288  1.3613
   32SAPC   C23 4273   4.768   0.915   6.840  0.6737 -0.6600 -0.4269
   32SAPC   H3R 4274   4.872   0.886   6.866 -0.1252 -1.7806  1.6671
   32SAPC   H3S 4275   4.699   0.828   6.837 -1.7197  1.1345 -0.1288
   32SAPC   C24 4276   4.718   1.030   6.925 -0.1577 -0.6866 -0.1186
   32SAPC   H4R 4277   4.628   1.080   6.883  0.5592 -0.3854 -1.3518
   32SAPC   H4S 4278   4.801   1.105   6.926  0.3691 -1.2434  1.8391
   32SAPC   C25 4279   4.681   0.983   7.064 -0.1057 -0.2031 -0.9985
   32SAPC   H5R 4280   4.579   0.944   7.080  0.0904  0.5217  2.9178
   32SAPC   C26 4281   4.763   0.985   7.173 -0.0085  0.0119 -0.4759
   32SAPC   H6R 4282   4.735   0.923   7.259 -1.2510 -0.7848 -1.4036
   32SAPC   C27 4283   4.903   1.042   7.179  0.0959 -0.2353  0.2966
   32SAPC   H7R 4284   4.926   1.077   7.281 -0.8192  0.2377  0.3542
   32SAPC   H7S 4285   4.904   1.130   7.111 -0.0284 -0.9844 -0.7046
   32SAPC   C28 4286   5.004   0.938   7.134 -0.0330  0.2907  0.2154
   32SAPC   H8R 4287   5.004   0.892   7.034  2.0717 -4.1003  1.9635
   32SAPC   C29 4288   5.111   0.906   7.207  0.1120 -0.0939 -0.1974
   32SAPC   H9R 4289   5.184   0.842   7.155 -1.2726 -0.0376 -2.3498
   32SAPC  C210 4290   5.149   0.950   7.348 -0.2702 -0.5176 -0.5872
   32SAPC  H10R 4291   5.169   0.857   7.406 -0.6930 -0.2578 -0.0176
   32SAPC  H10S 4292   5.071   0.991   7.415  1.3255 -0.4134  1.3043
   32SAPC  C211 4293   5.270   1.038   7.342  0.2377 -0.3332 -0.0111
   32SAPC  H11R 4294   5.301   1.057   7.238  0.5953  2.5924  0.5332
   32SAPC  C212 4295   5.329   1.100   7.446 -0.0470 -0.5906  0.6898
   32SAPC  H12R 4296   5.413   1.168   7.426 -0.4002  0.0308  1.2954
   32SAPC  C213 4297   5.281   1.083   7.585  0.2667 -0.2185  0.1453
   32SAPC  H13R 4298   5.368   1.092   7.654  1.9184 -0.3072 -1.8270
   32SAPC  H13S 4299   5.237   0.983   7.603  0.6213 -0.6475 -1.2439
   32SAPC  C214 4300   5.174   1.192   7.618  0.0072 -0.1663  0.0899
   32SAPC  H14R 4301   5.076   1.178   7.571  0.4181 -0.3688 -0.7212
   32SAPC  C215 4302   5.203   1.312   7.667 -0.6443  0.4126 -0.2518
   32SAPC  H15R 4303   5.122   1.385   7.677 -0.2545  0.7980  0.1174
   32SAPC  C216 4304   5.342   1.353   7.716  0.1632  0.3245  0.3604
   32SAPC  H16R 4305   5.355   1.463   7.717  0.6074  0.3000 -1.0603
   32SAPC  H16S 4306   5.424   1.304   7.660  0.3629  0.0883  0.8514
   32SAPC  C217 4307   5.351   1.311   7.861 -0.4265  0.9190  0.1786
   32SAPC  H17R 4308   5.335   1.202   7.870  0.3563  0.9722  3.4379
   32SAPC  H17S 4309   5.279   1.359   7.931 -1.0182 -1.5192  1.3392
   32SAPC  C218 4310   5.497   1.326   7.916  0.2065 -0.0116  0.0018
   32SAPC  H18R 4311   5.572   1.301   7.838  0.3355 -0.1691  0.1761
   32SAPC  H18S 4312   5.516   1.255   8.000 -2.6292 -0.7214  0.1401
   32SAPC  C219 4313   5.529   1.468   7.975  0.5604 -0.2997  1.4139
   32SAPC  H19R 4314   5.457   1.499   8.054 -0.0952 -0.5555  0.9268
   32SAPC  H19S 4315   5.506   1.546   7.900 -0.5747  0.4623  2.5001
   32SAPC  C220 4316   5.673   1.461   8.015  0.2557  0.1540 -0.3928
   32SAPC  H20R 4317   5.737   1.459   7.925  1.0239 -2.7532  0.1330
   32SAPC  H20S 4318   5.698   1.370   8.073  0.4416  0.9527  0.8323
   32SAPC  H20T 4319   5.695   1.545   8.085  0.3746  0.2252 -0.5152
   32SAPC   C33 4320   4.951   0.451   7.020  0.1802 -0.3721 -0.6967
   32SAPC   H3X 4321   4.994   0.393   6.936 -1.7495 -1.7172 -0.8208
   32SAPC   H3Y 4322   4.867   0.392   7.062  0.2315  0.0210 -0.0182
   32SAPC   C34 4323   5.058   0.472   7.130 -0.1022 -0.0613 -0.4483
   32SAPC   H4X 4324   5.143   0.533   7.094  0.5582 -1.0718 -0.6638
   32SAPC   H4Y 4325   5.093   0.368   7.151 -1.6478 -0.9370 -1.8629
   32SAPC   C35 4326   4.998   0.527   7.260  0.3931  0.7196 -0.3793
   32SAPC   H5X 4327   4.916   0.458   7.288  1.7957 -1.2305 -0.8681
   32SAPC   H5Y 4328   4.957   0.630   7.247 -1.0390  0.3677  0.9764
   32SAPC   C36 4329   5.103   0.532   7.366 -0.2640  0.3253 -0.7953
   32SAPC   H6X 4330   5.187   0.596   7.334 -0.5505  0.6912 -0.8204
   32SAPC   H6Y 4331   5.136   0.431   7.399  1.1493  1.2123  0.6841
   32SAPC   C37 4332   5.038   0.597   7.489  0.2748 -0.1443  0.3980
   32SAPC   H7X 4333   4.967   0.530   7.543 -0.1579 -1.4175 -1.6224
   32SAPC   H7Y 4334   4.990   0.689   7.450 -0.3010 -1.9754 -3.8487
   32SAPC   C38 4335   5.143   0.633   7.596 -0.1550 -0.0447 -0.1188
   32SAPC   H8X 4336   5.215   0.700   7.545 -1.2912 -0.4727 -2.4078
   32SAPC   H8Y 4337   5.199   0.543   7.630  0.4147  1.3213  2.9290
   32SAPC   C39 4338   5.084   0.715   7.711  0.7904 -0.2541 -0.0597
   32SAPC   H9X 4339   5.005   0.652   7.756  1.2949 -0.3441  0.7303
   32SAPC   H9Y 4340   5.037   0.807   7.669 -0.1759 -1.0743 -0.7884
   32SAPC  C310 4341   5.191   0.748   7.814 -0.0389  0.7728  1.0167
   32SAPC  H10X 4342   5.282   0.799   7.776  0.0965 -0.6460 -0.7518
   32SAPC  H10Y 4343   5.230   0.649   7.845  0.0048  0.2228 -0.6932
   32SAPC  C311 4344   5.136   0.818   7.942  0.6266  0.2676 -0.3628
   32SAPC  H11X 4345   5.131   0.926   7.920  1.0695  0.4934  0.6006
   32SAPC  H11Y 4346   5.218   0.810   8.016  3.3853 -1.6297 -3.3357
   32SAPC  C312 4347   5.011   0.764   8.008 -0.3817  0.7785 -0.2506
   32SAPC  H12X 4348   5.030   0.656   8.028 -2.5852  0.2737 -0.5768
   32SAPC  H12Y 4349   4.932   0.768   7.930  1.4995 -0.1249 -2.3258
   32SAPC  C313 4350   4.969   0.829   8.139  0.4507 -0.9565  0.4948
   32SAPC  H13X 4351   4.866   0.804   8.173  0.5341 -0.7757  0.8907
   32SAPC  H13Y 4352   4.959   0.939   8.130 -1.4875 -1.1692 -0.4165
   32SAPC  C314 4353   5.064   0.790   8.246 -0.3949 -0.4201 -0.0683
   32SAPC  H14X 4354   5.159   0.756   8.200 -0.8648 -0.2215 -1.2262
   32SAPC  H14Y 4355   5.026   0.714   8.317  0.0214  0.4264  1.1014
   32SAPC  C315 4356   5.118   0.903   8.340  0.2837  0.3704  0.2570
   32SAPC  H15X 4357   5.145   0.860   8.439 -3.1614 -0.6668  0.8774
   32SAPC  H15Y 4358   5.037   0.975   8.362  0.3984  0.4229  0.5131
   32SAPC  C316 4359   5.247   0.979   8.293 -0.0440  0.1552 -0.5487
   32SAPC  H16X 4360   5.255   0.974   8.182 -0.9629 -1.3444 -0.5849
   32SAPC  H16Y 4361   5.336   0.926   8.334  0.0039 -0.0995 -0.9709
   32SAPC  C317 4362   5.255   1.124   8.324  0.2377 -0.1274 -0.1641
   32SAPC  H17X 4363   5.262   1.136   8.434 -0.1514 -1.0284 -0.0333
   32SAPC  H17Y 4364   5.163   1.181   8.299  0.0546 -0.6013 -0.5850
   32SAPC  C318 4365   5.369   1.196   8.256 -0.2940  0.4011 -0.3441
   32SAPC  H18X 4366   5.384   1.286   8.319 -0.8752 -0.3361  0.8851
   32SAPC  H18Y 4367   5.354   1.227   8.150  1.1806 -0.2672 -0.7745
   32SAPC  H18Z 4368   5.462   1.135   8.261  0.0900  0.9202 -0.9297
   33POPC     N 4369   2.183   4.708  10.898 -0.4798  0.3139 -0.3646
   33POPC   C12 4370   2.186   4.853  10.839  0.5001  1.0664  0.1920
   33POPC  H12A 4371   2.288   4.874  10.811  0.7138  0.3840  0.4396
   33POPC  H12B 4372   2.147   4.914  10.920 -0.4429 -0.6866  1.1281
   33POPC   C13 4373   2.043   4.680  10.941 -0.6890 -0.3784 -0.1389
   33POPC  H13A 4374   2.008   4.753  11.013  1.8383  1.6323 -0.7789
   33POPC  H13B 4375   1.976   4.680  10.856  1.4021  0.9254 -1.9052
   33POPC  H13C 4376   2.030   4.581  10.982 -1.8011 -0.3644 -0.4206
   33POPC   C14 4377   2.219   4.607  10.789  0.7399 -0.0314 -0.1136
   33POPC  H14A 4378   2.185   4.509  10.821  2.8957 -0.0255  2.5481
   33POPC  H14B 4379   2.187   4.635  10.690 -2.3377 -1.5971  0.2970
   33POPC  H14C 4380   2.326   4.598  10.796  0.9751 -1.9085 -3.9244
   33POPC   C15 4381   2.264   4.692  11.023 -0.8492  0.3464 -0.1602
   33POPC  H15A 4382   2.229   4.759  11.100 -0.3154  1.4997 -0.8839
   33POPC  H15B 4383   2.370   4.707  11.010 -0.1875 -0.4223  3.3670
   33POPC  H15C 4384   2.280   4.591  11.057  1.7938  0.9378  0.5783
   33POPC   C11 4385   2.092   4.887  10.719  0.1501 -0.3274 -0.1027
   33POPC  H11A 4386   2.113   4.993  10.695  0.6654  0.1216  2.1644
   33POPC  H11B 4387   1.987   4.858  10.740 -0.0160  0.6655  0.4958
   33POPC     P 4388   2.238   4.833  10.505  0.1882  0.1871  0.1746
   33POPC   O13 4389   2.317   4.709  10.479  0.3277  0.2126  0.0206
   33POPC   O14 4390   2.318   4.944  10.565  0.3492 -0.4802  0.3491
   33POPC   O12 4391   2.124   4.806  10.606  0.0761 -0.0709 -0.3141
   33POPC   O11 4392   2.159   4.882  10.372  0.0999 -0.4848 -0.8337
   33POPC    C1 4393   2.019   4.871  10.372  0.0667  0.2019  0.2489
   33POPC    HA 4394   1.988   4.765  10.383 -0.0460  0.0576 -1.2285
   33POPC    HB 4395   1.974   4.929  10.456 -0.4190  2.3334 -1.4006
   33POPC    C2 4396   1.958   4.938  10.243  0.3466  0.3463 -0.4498
   33POPC    HS 4397   1.847   4.941  10.255  0.2074 -1.9428 -0.6955
   33POPC   O21 4398   1.996   4.866  10.124 -0.3205 -0.2695 -0.4696
   33POPC   C21 4399   1.944   4.754  10.107 -0.6074  0.3459  0.3571
   33POPC   O22 4400   1.856   4.701  10.166  0.4442 -0.4601  0.6064
   33POPC   C22 4401   2.028   4.681   9.994  0.1112  0.5568  0.5070
   33POPC   H2R 4402   2.124   4.662  10.046 -0.6779 -0.1655  1.7457
   33POPC   H2S 4403   2.046   4.760   9.918 -0.8971 -0.1133 -0.4578
   33POPC    C3 4404   2.001   5.083  10.227 -0.4408 -0.5204 -0.1237
   33POPC    HX 4405   2.108   5.062  10.207 -0.5379 -1.1747  0.0294
   33POPC    HY 4406   1.981   5.127  10.327 -1.4474 -0.4676 -0.3336
   33POPC   O31 4407   1.922   5.157  10.127  0.2226  0.1257  0.1183
   33POPC   C31 4408   1.997   5.248  10.071 -0.8263 -0.6976  0.0229
   33POPC   O32 4409   2.112   5.278  10.097 -0.4603 -0.4200 -0.4682
   33POPC   C32 4410   1.913   5.322   9.968 -0.1855  0.2481  0.3635
   33POPC   H2X 4411   1.828   5.378  10.013 -0.8791  0.8075 -1.5679
   33POPC   H2Y 4412   1.874   5.238   9.908  0.3498 -0.4762  1.0102
   33POPC   C23 4413   1.968   4.544   9.948 -0.6831  0.2180 -0.2684
   33POPC   H3R 4414   1.866   4.556   9.905 -1.9331 -1.1839  2.0927
   33POPC   H3S 4415   1.973   4.484  10.042  0.1242 -0.4329 -0.7065
   33POPC   C24 4416   2.067   4.505   9.838 -0.3658 -0.7059  0.4687
   33POPC   H4R 4417   2.168   4.510   9.884 -0.5149  0.9603  0.6681
   33POPC   H4S 4418   2.068   4.570   9.748  0.3975  0.5714  1.3638
   33POPC   C25 4419   2.063   4.367   9.775  0.1690  0.1519  0.2440
   33POPC   H5R 4420   1.958   4.333   9.759  0.2807  0.3707 -1.1188
   33POPC   H5S 4421   2.098   4.306   9.861  0.6131  0.8451  0.5545
   33POPC   C26 4422   2.139   4.349   9.641 -0.1416 -0.0379  0.2846
   33POPC   H6R 4423   2.246   4.368   9.666  0.1203 -0.7070 -0.3149
   33POPC   H6S 4424   2.107   4.411   9.555 -0.5113  0.4680  0.7801
   33POPC   C27 4425   2.140   4.210   9.582  0.6350 -0.5193  0.1519
   33POPC   H7R 4426   2.145   4.139   9.667 -0.6817 -0.7082  0.0882
   33POPC   H7S 4427   2.227   4.192   9.516 -0.4998 -0.5956 -1.3670
   33POPC   C28 4428   2.009   4.167   9.514  0.0685 -0.4616  0.1764
   33POPC   H8R 4429   1.919   4.161   9.579 -1.4968  0.9189 -1.7498
   33POPC   H8S 4430   2.010   4.058   9.493  1.0622 -0.4900  0.3362
   33POPC   C29 4431   1.963   4.247   9.395 -0.1289 -0.5420  0.3845
   33POPC   H91 4432   1.908   4.340   9.414  1.2860  0.2875  0.5067
   33POPC  C210 4433   1.984   4.200   9.271  0.7517 -0.3001  0.1638
   33POPC  H101 4434   1.945   4.268   9.193  1.5392 -0.7969 -0.6850
   33POPC  C211 4435   2.053   4.071   9.233  0.1118  0.2433 -0.6228
   33POPC  H11R 4436   2.053   3.989   9.308  0.3321  0.6271 -0.1949
   33POPC  H11S 4437   2.158   4.103   9.211  0.5031 -1.1472 -0.8901
   33POPC  C212 4438   1.999   4.016   9.106  0.5242 -0.3027 -0.0571
   33POPC  H12R 4439   1.985   4.099   9.034  0.2457 -2.4544 -2.6472
   33POPC  H12S 4440   1.902   3.963   9.122 -0.3228  1.0773 -0.4599
   33POPC  C213 4441   2.097   3.914   9.047 -0.2485 -0.5119 -0.3770
   33POPC  H13R 4442   2.097   3.829   9.118 -2.7315  0.9344  1.5222
   33POPC  H13S 4443   2.196   3.964   9.044 -0.2711 -0.2942  1.3618
   33POPC  C214 4444   2.062   3.846   8.917  1.2492  0.1944  0.6231
   33POPC  H14R 4445   1.974   3.781   8.938  0.6967  0.5186 -0.6070
   33POPC  H14S 4446   2.142   3.773   8.889  0.6670 -0.4178  0.5317
   33POPC  C215 4447   2.034   3.956   8.814  0.0978  0.4120  0.2691
   33POPC  H15R 4448   2.119   4.027   8.811 -0.4748  1.1447 -3.3413
   33POPC  H15S 4449   1.949   4.016   8.853 -0.3706 -0.0581 -0.0157
   33POPC  C216 4450   1.993   3.901   8.681  0.0025 -0.2781 -0.0830
   33POPC  H16R 4451   1.954   3.986   8.621 -0.1943 -0.8451 -0.7712
   33POPC  H16S 4452   1.910   3.833   8.706 -0.1562 -0.0396  0.0409
   33POPC  C217 4453   2.114   3.843   8.606 -0.2987 -0.2246  1.2660
   33POPC  H17R 4454   2.137   3.743   8.647  0.0456 -1.2872 -1.3198
   33POPC  H17S 4455   2.196   3.914   8.630  1.1171 -1.1849 -0.5256
   33POPC  C218 4456   2.101   3.815   8.447 -0.1974  0.4666 -0.1648
   33POPC  H18R 4457   2.011   3.751   8.431  0.1841 -0.1889  0.2548
   33POPC  H18S 4458   2.189   3.757   8.413  0.2953  1.2263 -0.1752
   33POPC  H18T 4459   2.097   3.908   8.387  1.2839  2.1868  2.2484
   33POPC   C33 4460   1.997   5.417   9.875  0.2150 -0.2741  0.5842
   33POPC   H3X 4461   2.051   5.488   9.942 -0.4156 -1.4673  2.4284
   33POPC   H3Y 4462   1.926   5.480   9.817 -1.6862 -1.7955  1.1335
   33POPC   C34 4463   2.093   5.346   9.783  0.0163 -0.0758 -0.1170
   33POPC   H4X 4464   2.144   5.266   9.839 -1.4322 -1.2017 -0.3448
   33POPC   H4Y 4465   2.174   5.418   9.756  1.4317 -1.8244 -0.7001
   33POPC   C35 4466   2.046   5.303   9.648  0.2314  0.1737 -0.4919
   33POPC   H5X 4467   2.008   5.391   9.593 -1.7867 -0.2529  0.1234
   33POPC   H5Y 4468   1.971   5.220   9.649 -1.1228  1.3530  1.0040
   33POPC   C36 4469   2.165   5.251   9.565 -0.4139  0.2538  0.3796
   33POPC   H6X 4470   2.220   5.177   9.627 -1.1559  0.3974  1.2252
   33POPC   H6Y 4471   2.241   5.330   9.546 -0.3456  0.3314  0.9578
   33POPC   C37 4472   2.123   5.183   9.434  0.1514  0.3478 -0.1985
   33POPC   H7X 4473   2.058   5.245   9.369  1.4436  2.1288  0.1396
   33POPC   H7Y 4474   2.070   5.089   9.461 -0.8589  0.9237 -0.1300
   33POPC   C38 4475   2.238   5.150   9.336 -0.4627  0.0473 -0.1953
   33POPC   H8X 4476   2.319   5.103   9.395  0.2934 -2.9124 -3.2675
   33POPC   H8Y 4477   2.292   5.240   9.299  3.3701 -1.4430  1.3181
   33POPC   C39 4478   2.201   5.057   9.226  0.3418 -0.2008  0.2367
   33POPC   H9X 4479   2.117   5.110   9.176  0.2574 -1.5865 -1.1383
   33POPC   H9Y 4480   2.162   4.958   9.258 -0.4241  0.1654  0.4585
   33POPC  C310 4481   2.319   5.043   9.141 -0.2337 -0.1240  0.6068
   33POPC  H10X 4482   2.402   4.986   9.188  0.0613  0.3210  0.6327
   33POPC  H10Y 4483   2.346   5.139   9.091 -2.7963  0.2579 -0.1613
   33POPC  C311 4484   2.281   4.974   9.008  0.1359  0.1055  0.5696
   33POPC  H11X 4485   2.202   5.029   8.952 -0.7804 -2.5824 -0.9108
   33POPC  H11Y 4486   2.227   4.881   9.036  1.4803 -0.4131  1.5645
   33POPC  C312 4487   2.397   4.930   8.917 -0.2067 -0.0957 -0.4289
   33POPC  H12X 4488   2.474   4.892   8.987  0.3618  0.7252 -0.5931
   33POPC  H12Y 4489   2.451   5.022   8.884  2.1085 -0.4784  1.9893
   33POPC  C313 4490   2.367   4.843   8.790 -0.1295  0.3999 -1.0950
   33POPC  H13X 4491   2.335   4.747   8.834  2.2348  0.1052  0.1261
   33POPC  H13Y 4492   2.470   4.815   8.761  0.8451  1.1613  1.4136
   33POPC  C314 4493   2.280   4.895   8.682  0.3471 -0.5469 -0.3285
   33POPC  H14X 4494   2.310   5.001   8.668  1.8105 -0.8705  0.2293
   33POPC  H14Y 4495   2.177   4.909   8.723 -0.7943 -0.3978 -3.0028
   33POPC  C315 4496   2.289   4.826   8.545  0.6475  0.3237 -0.2570
   33POPC  H15X 4497   2.262   4.719   8.557  1.1774 -0.1462 -2.6687
   33POPC  H15Y 4498   2.393   4.830   8.506  0.6582 -1.7807 -0.5518
   33POPC  C316 4499   2.191   4.896   8.446  0.0587  0.3574 -0.0576
   33POPC  H16X 4500   2.206   5.006   8.436 -3.6486  0.8491 -2.3931
   33POPC  H16Y 4501   2.087   4.880   8.480  0.4095 -1.7970  0.1202
   33POPC  H16Z 4502   2.205   4.843   8.349  2.0485 -2.8152  1.7734
   34POPC     N 4503   0.666   5.953  10.786  0.3620  0.3856 -0.3766
   34POPC   C12 4504   0.760   6.044  10.870  0.1371 -0.9908  0.3385
   34POPC  H12A 4505   0.755   6.020  10.975 -0.9200  0.1251  0.5711
   34POPC  H12B 4506   0.724   6.146  10.860  2.0424 -0.4250 -1.3191
   34POPC   C13 4507   0.675   5.996  10.643 -0.7776  0.1486  0.2501
   34POPC  H13A 4508   0.634   5.922  10.576  0.7723 -3.0639  2.5933
   34POPC  H13B 4509   0.619   6.087  10.629 -3.0975 -1.0412  1.2657
   34POPC  H13C 4510   0.782   6.006  10.629 -0.3611 -1.5117  1.8822
   34POPC   C14 4511   0.704   5.810  10.805  0.2304 -0.6767  0.4280
   34POPC  H14A 4512   0.642   5.748  10.742  0.0456 -0.2143  0.1568
   34POPC  H14B 4513   0.807   5.799  10.773 -0.1968  0.7272 -1.6207
   34POPC  H14C 4514   0.707   5.777  10.908  0.3659 -0.7644  0.3968
   34POPC   C15 4515   0.524   5.960  10.837  0.2351 -0.4206  0.3928
   34POPC  H15A 4516   0.474   6.056  10.828 -0.0885 -0.5432  0.8302
   34POPC  H15B 4517   0.511   5.927  10.939  1.6758 -1.0655  0.3861
   34POPC  H15C 4518   0.470   5.892  10.773  0.0844  0.9199 -0.9705
   34POPC   C11 4519   0.908   6.057  10.822 -0.0306  0.0665  0.1355
   34POPC  H11A 4520   0.954   5.958  10.803  0.6527  0.4396 -0.2402
   34POPC  H11B 4521   0.956   6.109  10.908 -1.3323 -1.4094  1.8064
   34POPC     P 4522   1.059   6.187  10.643 -0.0256 -0.2360 -0.0075
   34POPC   O13 4523   1.160   6.188  10.750  0.0392  0.3551 -0.0522
   34POPC   O14 4524   1.038   6.319  10.577 -0.8603  0.1956 -0.0828
   34POPC   O12 4525   0.917   6.134  10.707 -0.1790  0.3854  0.5358
   34POPC   O11 4526   1.106   6.082  10.536 -0.1392 -0.0646  0.1695
   34POPC    C1 4527   1.027   5.982  10.469  0.0296 -0.1442 -0.0505
   34POPC    HA 4528   0.917   5.998  10.480  0.3747  1.6640  1.1503
   34POPC    HB 4529   1.056   5.884  10.513 -1.3768 -0.0011  1.3089
   34POPC    C2 4530   1.061   5.975  10.318  0.0717  0.2098  0.2068
   34POPC    HS 4531   1.162   5.930  10.305 -0.2140 -0.1988 -0.6906
   34POPC   O21 4532   1.043   6.115  10.282  0.5132  0.6949  0.1780
   34POPC   C21 4533   1.154   6.179  10.251  0.3310  0.9272  0.2955
   34POPC   O22 4534   1.260   6.120  10.251  0.1772  0.3827  0.4869
   34POPC   C22 4535   1.122   6.333  10.227  0.6023 -0.4735 -0.4456
   34POPC   H2R 4536   1.077   6.379  10.318 -1.2140  0.1863 -1.6349
   34POPC   H2S 4537   1.042   6.343  10.150  1.8018  1.1049 -1.5460
   34POPC    C3 4538   0.968   5.889  10.237 -0.3557 -0.2512  0.6617
   34POPC    HX 4539   0.865   5.930  10.237 -0.7500 -1.0067 -2.4436
   34POPC    HY 4540   0.964   5.794  10.294  0.2376 -0.9670 -0.4496
   34POPC   O31 4541   1.023   5.870  10.103  0.4418 -0.1106 -0.0295
   34POPC   C31 4542   0.962   5.931  10.009 -1.0840  0.5757 -0.2024
   34POPC   O32 4543   0.857   5.994  10.022 -0.4377 -0.2363  0.4406
   34POPC   C32 4544   1.024   5.908   9.878  0.0361 -0.0159 -0.0419
   34POPC   H2X 4545   1.122   5.861   9.897 -0.2920 -0.4039  0.7371
   34POPC   H2Y 4546   1.038   6.007   9.830 -2.1567 -0.4288 -1.7463
   34POPC   C23 4547   1.247   6.416  10.189 -0.5063 -0.4060  0.1723
   34POPC   H3R 4548   1.301   6.344  10.125 -0.9376 -0.4868 -0.1061
   34POPC   H3S 4549   1.314   6.437  10.275 -1.4148  1.3353  0.4904
   34POPC   C24 4550   1.210   6.553  10.118  0.4089 -0.1225 -0.1272
   34POPC   H4R 4551   1.311   6.593  10.094  0.2399  0.4394  0.0827
   34POPC   H4S 4552   1.172   6.625  10.193  0.6027  1.0873 -1.1385
   34POPC   C25 4553   1.121   6.554   9.986 -0.0474  0.1162 -0.3304
   34POPC   H5R 4554   1.081   6.654   9.960  2.1849  1.3476  0.6488
   34POPC   H5S 4555   1.045   6.477  10.010  0.2959 -0.0158  0.3564
   34POPC   C26 4556   1.206   6.499   9.868  0.2415  0.0650  0.5160
   34POPC   H6R 4557   1.268   6.410   9.896 -1.3279 -1.1928  0.1506
   34POPC   H6S 4558   1.277   6.576   9.832 -0.2428  0.0124 -0.5742
   34POPC   C27 4559   1.115   6.458   9.756  0.0020 -0.4001  0.3122
   34POPC   H7R 4560   1.062   6.551   9.726  0.9183 -0.0003 -0.1003
   34POPC   H7S 4561   1.034   6.395   9.799 -0.2136 -0.2072  0.1950
   34POPC   C28 4562   1.176   6.399   9.627  0.5430 -0.5343 -0.4662
   34POPC   H8R 4563   1.092   6.354   9.570 -2.0574  2.6729  0.5160
   34POPC   H8S 4564   1.243   6.314   9.652 -0.6407 -1.3698 -0.0376
   34POPC   C29 4565   1.259   6.493   9.539  0.4675  0.3489  0.7665
   34POPC   H91 4566   1.329   6.546   9.606  2.4337  0.4673 -1.2578
   34POPC  C210 4567   1.253   6.530   9.406  0.3002  0.1098  0.3365
   34POPC  H101 4568   1.319   6.609   9.366 -0.0041  0.5752  0.7327
   34POPC  C211 4569   1.156   6.474   9.304  0.0762  0.2251 -0.4124
   34POPC  H11R 4570   1.118   6.563   9.251 -1.1227  0.3444  0.6054
   34POPC  H11S 4571   1.070   6.430   9.359  0.9536 -2.4048 -1.0015
   34POPC  C212 4572   1.219   6.378   9.210 -0.0194  0.2565  0.1582
   34POPC  H12R 4573   1.231   6.284   9.268  1.9641 -0.1677 -0.8866
   34POPC  H12S 4574   1.320   6.415   9.183 -0.4548  0.8836 -0.6898
   34POPC  C213 4575   1.125   6.348   9.092 -0.3375 -0.0120 -0.8829
   34POPC  H13R 4576   1.189   6.287   9.025  3.2382 -0.3311  2.4385
   34POPC  H13S 4577   1.098   6.444   9.044 -0.9758 -0.3692 -1.2475
   34POPC  C214 4578   0.999   6.268   9.123  0.1834  0.0650  0.0010
   34POPC  H14R 4579   0.942   6.328   9.197  0.3992  0.4493 -0.1469
   34POPC  H14S 4580   1.013   6.168   9.171 -1.3513 -1.1395 -1.8965
   34POPC  C215 4581   0.899   6.242   9.005  0.3065 -0.4412  0.5316
   34POPC  H15R 4582   0.909   6.328   8.935 -1.9261 -0.1547  0.4910
   34POPC  H15S 4583   0.792   6.228   9.033  0.4501 -2.5182  0.2332
   34POPC  C216 4584   0.934   6.114   8.926  0.3213  0.1933  0.3344
   34POPC  H16R 4585   0.895   6.024   8.977 -0.8045  0.3174 -0.2610
   34POPC  H16S 4586   1.042   6.092   8.918  0.0751 -0.4714 -2.1629
   34POPC  C217 4587   0.887   6.100   8.773  0.4986 -0.0660 -0.1428
   34POPC  H17R 4588   0.942   6.016   8.725 -0.4578 -1.3704  0.9723
   34POPC  H17S 4589   0.907   6.197   8.723  0.7529  0.4591  0.9510
   34POPC  C218 4590   0.733   6.060   8.760  0.3578 -0.0472  0.1180
   34POPC  H18R 4591   0.704   6.070   8.653  2.1703 -0.4348 -0.4461
   34POPC  H18S 4592   0.671   6.126   8.825 -0.1490  0.7397 -1.1092
   34POPC  H18T 4593   0.715   5.958   8.798  0.4857 -0.3001 -0.4851
   34POPC   C33 4594   0.935   5.816   9.793  0.2700  0.2920  0.2722
   34POPC   H3X 4595   0.824   5.822   9.800 -0.0111 -2.3226 -0.8651
   34POPC   H3Y 4596   0.945   5.720   9.848  2.0093  2.3879  4.0253
   34POPC   C34 4597   0.978   5.801   9.647  0.3906  0.6475 -0.3133
   34POPC   H4X 4598   1.032   5.704   9.640  0.7928  0.9423 -1.7802
   34POPC   H4Y 4599   1.056   5.877   9.624  1.9943 -0.3642  1.5483
   34POPC   C35 4600   0.860   5.801   9.549  0.2507  1.5526 -0.1704
   34POPC   H5X 4601   0.805   5.898   9.554 -0.1780  1.2480  1.7008
   34POPC   H5Y 4602   0.799   5.710   9.565  2.9333 -0.2579  0.3313
   34POPC   C36 4603   0.908   5.807   9.400 -0.1574 -0.1302  0.3648
   34POPC   H6X 4604   0.971   5.897   9.384 -1.9691  0.8995 -1.5787
   34POPC   H6Y 4605   0.825   5.842   9.335  1.9236  2.6412 -1.0110
   34POPC   C37 4606   0.988   5.677   9.361 -0.5491 -0.3853  0.6659
   34POPC   H7X 4607   0.924   5.587   9.371  1.4191 -1.7748  1.3527
   34POPC   H7Y 4608   1.064   5.661   9.440 -0.1269  1.2031  0.6197
   34POPC   C38 4609   1.047   5.681   9.218  0.7827 -0.3657 -0.2045
   34POPC   H8X 4610   1.123   5.601   9.210  0.0038 -1.2585  0.9201
   34POPC   H8Y 4611   1.100   5.777   9.201  1.5353 -0.6651  0.3971
   34POPC   C39 4612   0.941   5.664   9.104 -0.3177 -0.3444 -1.3433
   34POPC   H9X 4613   0.847   5.720   9.124  0.6799  1.2352 -0.8722
   34POPC   H9Y 4614   0.924   5.554   9.100  0.1109 -0.4886  0.2217
   34POPC  C310 4615   0.989   5.700   8.966 -0.1643 -0.6687  0.4280
   34POPC  H10X 4616   1.091   5.656   8.962  1.0183  1.7314  2.3706
   34POPC  H10Y 4617   0.987   5.810   8.973  0.5438 -0.5865 -0.5280
   34POPC  C311 4618   0.899   5.637   8.858 -0.1120  0.1332  0.0531
   34POPC  H11X 4619   0.804   5.691   8.879  1.0721  2.6263 -0.5573
   34POPC  H11Y 4620   0.879   5.528   8.868 -0.3954  0.1601 -0.2300
   34POPC  C312 4621   0.944   5.667   8.716 -0.2767 -0.2276 -0.1877
   34POPC  H12X 4622   1.045   5.621   8.715  0.0947  0.3649  2.3816
   34POPC  H12Y 4623   0.953   5.776   8.697  1.4792 -0.6736 -2.2523
   34POPC  C313 4624   0.861   5.610   8.599  0.4474  0.4275 -0.3250
   34POPC  H13X 4625   0.762   5.657   8.577 -0.6522 -1.8412 -0.5448
   34POPC  H13Y 4626   0.829   5.511   8.640  0.7176  0.4452 -0.0660
   34POPC  C314 4627   0.938   5.582   8.468 -0.5112  0.6610 -0.5183
   34POPC  H14X 4628   1.023   5.515   8.494 -2.8931 -1.9983  0.9324
   34POPC  H14Y 4629   0.967   5.684   8.435  3.7663  0.5336  2.0960
   34POPC  C315 4630   0.859   5.502   8.369 -0.4609  0.3672  0.6681
   34POPC  H15X 4631   0.827   5.402   8.404 -0.1558  0.3069  0.7845
   34POPC  H15Y 4632   0.927   5.481   8.283 -0.6898  1.9663  0.0632
   34POPC  C316 4633   0.733   5.581   8.317 -0.1451  0.1558 -0.2419
   34POPC  H16X 4634   0.685   5.522   8.236  2.3269 -1.1426 -0.8709
   34POPC  H16Y 4635   0.776   5.656   8.249  0.9497 -0.8474 -0.6919
   34POPC  H16Z 4636   0.658   5.621   8.389 -0.7191 -1.4094  0.0814
   35POPC     N 4637   1.177   4.468  11.296 -0.3698 -0.1684 -0.8548
   35POPC   C12 4638   1.179   4.364  11.185 -1.1554  0.2651 -0.1968
   35POPC  H12A 4639   1.092   4.301  11.191  0.6402 -2.4401 -1.0095
   35POPC  H12B 4640   1.263   4.302  11.209 -0.0433  2.0419  0.7166
   35POPC   C13 4641   1.097   4.582  11.239  0.0329  0.0634 -0.0751
   35POPC  H13A 4642   0.997   4.541  11.230 -1.6768  3.3615  2.0017
   35POPC  H13B 4643   1.083   4.667  11.303  1.0464  1.3186 -1.4623
   35POPC  H13C 4644   1.129   4.630  11.148 -1.5696  0.1477 -0.6355
   35POPC   C14 4645   1.111   4.417  11.421 -0.1368 -0.2417 -0.1652
   35POPC  H14A 4646   1.160   4.328  11.456  0.1372  0.4110  1.1765
   35POPC  H14B 4647   1.112   4.497  11.494 -0.0647  0.2090 -0.6525
   35POPC  H14C 4648   1.007   4.395  11.400 -1.0238  1.8633  1.6426
   35POPC   C15 4649   1.315   4.530  11.324 -0.5408  0.2604  0.6111
   35POPC  H15A 4650   1.385   4.465  11.373  0.3298  2.6403  2.6800
   35POPC  H15B 4651   1.296   4.615  11.388 -2.9307 -1.2186  2.0084
   35POPC  H15C 4652   1.358   4.563  11.230 -0.1357  0.7317  0.9602
   35POPC   C11 4653   1.208   4.401  11.038 -0.2555  0.0620  0.2953
   35POPC  H11A 4654   1.111   4.441  11.000 -0.9435 -1.3097  0.5272
   35POPC  H11B 4655   1.235   4.310  10.981 -1.2596  0.0084 -0.1057
   35POPC     P 4656   1.334   4.614  10.936  0.3755 -0.2546  0.1864
   35POPC   O13 4657   1.465   4.677  10.954  0.7109 -0.1543  0.0956
   35POPC   O14 4658   1.217   4.701  10.943  0.2450  0.4806 -0.1658
   35POPC   O12 4659   1.324   4.489  11.033  0.0732  0.3875 -0.2483
   35POPC   O11 4660   1.340   4.553  10.784 -0.5275  0.7154  0.4451
   35POPC    C1 4661   1.410   4.431  10.759  0.4468  0.4960  0.1310
   35POPC    HA 4662   1.324   4.365  10.735 -0.8097  2.4268 -0.9566
   35POPC    HB 4663   1.473   4.399  10.845  1.8557  2.3634 -0.1425
   35POPC    C2 4664   1.509   4.433  10.626  0.3499 -0.1292 -0.1378
   35POPC    HS 4665   1.601   4.494  10.640  0.2742  0.4455 -1.8696
   35POPC   O21 4666   1.436   4.475  10.506 -0.1455  0.4372 -0.5141
   35POPC   C21 4667   1.511   4.506  10.402  0.0983  0.6749 -0.4361
   35POPC   O22 4668   1.634   4.515  10.405  0.3052 -0.0208 -0.3173
   35POPC   C22 4669   1.424   4.513  10.280  0.1558 -0.4339  0.0750
   35POPC   H2R 4670   1.319   4.543  10.302  0.1458 -0.5698  0.2074
   35POPC   H2S 4671   1.415   4.413  10.231  0.0876  0.3235 -1.5302
   35POPC    C3 4672   1.565   4.283  10.601  0.2224 -0.6098 -0.0096
   35POPC    HX 4673   1.625   4.252  10.689  2.1028  1.5095 -0.4579
   35POPC    HY 4674   1.633   4.294  10.514  1.0253 -0.5038  0.6226
   35POPC   O31 4675   1.451   4.195  10.588 -0.8526  0.0684  0.1619
   35POPC   C31 4676   1.469   4.095  10.506 -0.5173 -0.0622 -0.5909
   35POPC   O32 4677   1.575   4.042  10.477  0.0550 -0.1771 -0.4232
   35POPC   C32 4678   1.332   4.064  10.446 -0.2762 -0.0034  0.4492
   35POPC   H2X 4679   1.299   4.150  10.384  0.0378  2.2305  3.1889
   35POPC   H2Y 4680   1.258   4.049  10.528 -0.0340 -1.3648  0.4520
   35POPC   C23 4681   1.471   4.621  10.180 -0.7559 -0.3528 -0.2566
   35POPC   H3R 4682   1.573   4.661  10.199 -0.1623 -2.4701  1.4302
   35POPC   H3S 4683   1.403   4.707  10.188 -1.0420 -0.5840 -0.2016
   35POPC   C24 4684   1.478   4.573  10.031  0.3763 -0.2281  0.1798
   35POPC   H4R 4685   1.487   4.663   9.966  0.8715 -0.0893  0.4421
   35POPC   H4S 4686   1.383   4.524  10.000  1.2249 -0.5160 -2.2084
   35POPC   C25 4687   1.594   4.472   9.995  0.3488 -1.3590  0.1504
   35POPC   H5R 4688   1.572   4.377  10.048 -2.3509 -1.3854 -0.8464
   35POPC   H5S 4689   1.692   4.517  10.023 -0.2609 -1.0632  1.9501
   35POPC   C26 4690   1.593   4.422   9.848 -0.4061 -0.4123  0.1668
   35POPC   H6R 4691   1.673   4.346   9.844  0.2146  0.2840 -1.1867
   35POPC   H6S 4692   1.634   4.499   9.780  2.1712 -1.1748  0.7493
   35POPC   C27 4693   1.458   4.375   9.796 -1.2041  0.8767 -0.8335
   35POPC   H7R 4694   1.383   4.452   9.822 -0.9516  0.9702 -0.3604
   35POPC   H7S 4695   1.440   4.281   9.853  0.9026  1.0983  0.2962
   35POPC   C28 4696   1.451   4.329   9.644  0.0147  0.2695  0.5122
   35POPC   H8R 4697   1.525   4.385   9.583 -0.3653 -0.2849 -0.4912
   35POPC   H8S 4698   1.346   4.342   9.612  0.6799  1.1862 -1.4770
   35POPC   C29 4699   1.497   4.182   9.638  0.7523 -0.0815 -0.2869
   35POPC   H91 4700   1.471   4.129   9.731  0.8051  1.5282  0.6935
   35POPC  C210 4701   1.578   4.118   9.547 -0.1984 -0.9230  0.0455
   35POPC  H101 4702   1.608   4.013   9.559  1.9576 -0.4836 -1.0371
   35POPC  C211 4703   1.619   4.181   9.417 -0.3664  0.1774 -0.1641
   35POPC  H11R 4704   1.722   4.155   9.383 -0.3310  0.5257 -0.3216
   35POPC  H11S 4705   1.625   4.291   9.429 -2.6616  0.2680  0.5730
   35POPC  C212 4706   1.517   4.142   9.299  0.2781 -0.4285 -0.4709
   35POPC  H12R 4707   1.526   4.222   9.222  2.9087 -2.5311 -2.5649
   35POPC  H12S 4708   1.415   4.149   9.342  1.4245 -1.2164  2.6630
   35POPC  C213 4709   1.533   3.998   9.250  0.3718  0.6126 -0.1659
   35POPC  H13R 4710   1.460   3.924   9.290 -0.3495  1.0239 -0.7133
   35POPC  H13S 4711   1.631   3.968   9.294 -0.0479 -2.6078 -1.1550
   35POPC  C214 4712   1.557   3.985   9.101 -1.3748  0.2869 -0.3697
   35POPC  H14R 4713   1.607   3.890   9.071  1.0955  1.0066  1.1732
   35POPC  H14S 4714   1.621   4.068   9.064 -1.5160  0.6091  0.1039
   35POPC  C215 4715   1.424   3.983   9.031  0.1001 -0.2336  0.1570
   35POPC  H15R 4716   1.380   4.083   9.052 -0.0952  0.3928 -2.8048
   35POPC  H15S 4717   1.355   3.911   9.080 -0.0470  0.3645  0.8435
   35POPC  C216 4718   1.431   3.976   8.880 -0.2958 -0.4120  0.2221
   35POPC  H16R 4719   1.505   3.899   8.850 -1.0176 -1.2146  0.4623
   35POPC  H16S 4720   1.463   4.075   8.842 -0.4078 -1.2340 -2.1413
   35POPC  C217 4721   1.285   3.947   8.836 -0.6628  0.1744  0.2155
   35POPC  H17R 4722   1.208   4.008   8.888 -0.4295 -1.0566  2.1171
   35POPC  H17S 4723   1.259   3.843   8.865  2.5035 -0.4409  1.1848
   35POPC  C218 4724   1.271   3.952   8.683  0.2360  0.2341 -0.2864
   35POPC  H18R 4725   1.278   4.059   8.657 -0.5690  1.0622  2.4999
   35POPC  H18S 4726   1.175   3.906   8.650 -0.0015 -1.2296  2.1182
   35POPC  H18T 4727   1.360   3.899   8.642  0.3479 -0.3217  0.6314
   35POPC   C33 4728   1.342   3.934  10.355  0.7018  0.6466  0.5205
   35POPC   H3X 4729   1.235   3.903  10.350  0.6979  0.7030  0.2696
   35POPC   H3Y 4730   1.396   3.851  10.405 -1.8460 -0.3532  1.7898
   35POPC   C34 4731   1.395   3.955  10.213  0.6155  0.4633  0.3419
   35POPC   H4X 4732   1.505   3.970  10.227  0.9210 -2.0856  1.1426
   35POPC   H4Y 4733   1.344   4.047  10.176 -0.7138 -0.6755 -0.7494
   35POPC   C35 4734   1.371   3.838  10.118  0.4928  0.0510 -0.4111
   35POPC   H5X 4735   1.264   3.811  10.129  0.4144 -0.3216 -1.8226
   35POPC   H5Y 4736   1.432   3.755  10.160 -0.0862 -1.2283 -1.9840
   35POPC   C36 4737   1.403   3.872   9.973  0.3255  0.1047  0.7000
   35POPC   H6X 4738   1.508   3.906   9.962  0.5630 -0.6416  0.6004
   35POPC   H6Y 4739   1.337   3.956   9.945 -1.0569 -0.2953  2.5558
   35POPC   C37 4740   1.391   3.749   9.876 -0.0616 -0.6678  0.2123
   35POPC   H7X 4741   1.299   3.689   9.889  1.5825 -3.1416  1.2706
   35POPC   H7Y 4742   1.474   3.684   9.912  0.3944 -0.4167 -0.3561
   35POPC   C38 4743   1.407   3.796   9.736 -0.2496  0.0118 -0.2939
   35POPC   H8X 4744   1.513   3.778   9.707  0.3580 -1.7292  2.6141
   35POPC   H8Y 4745   1.393   3.906   9.731 -1.8223 -0.0739  1.3421
   35POPC   C39 4746   1.320   3.732   9.640 -0.8121  0.6667  0.1962
   35POPC   H9X 4747   1.226   3.788   9.621 -0.8081  0.4713 -0.4144
   35POPC   H9Y 4748   1.290   3.634   9.684  1.8853  1.2367  3.7838
   35POPC  C310 4749   1.393   3.708   9.504  0.1455  1.1039  0.1609
   35POPC  H10X 4750   1.458   3.618   9.508 -1.8230 -0.3681  0.3119
   35POPC  H10Y 4751   1.461   3.790   9.470  3.2015 -0.9468  0.9320
   35POPC  C311 4752   1.295   3.678   9.380  0.1168 -0.4489 -0.7422
   35POPC  H11X 4753   1.241   3.773   9.361 -0.4679 -0.2831  1.4743
   35POPC  H11Y 4754   1.224   3.596   9.404  0.1787 -0.7615 -1.6082
   35POPC  C312 4755   1.361   3.649   9.245 -1.0291  0.6250  0.2086
   35POPC  H12X 4756   1.410   3.550   9.257  1.2403  1.8870  2.3203
   35POPC  H12Y 4757   1.432   3.731   9.218  0.4564 -0.6457  0.0908
   35POPC  C313 4758   1.262   3.634   9.130 -0.2752  0.0953  0.5897
   35POPC  H13X 4759   1.214   3.727   9.092  1.0485 -0.4075 -2.6783
   35POPC  H13Y 4760   1.181   3.563   9.154 -0.5743 -0.7733 -2.5782
   35POPC  C314 4761   1.326   3.575   8.999 -0.4900  0.2634 -0.5348
   35POPC  H14X 4762   1.387   3.486   9.025  2.2961  1.9002 -0.9899
   35POPC  H14Y 4763   1.397   3.653   8.962  0.4339  0.5019  1.5763
   35POPC  C315 4764   1.231   3.531   8.892  0.8911 -0.0068 -0.2276
   35POPC  H15X 4765   1.158   3.614   8.880 -1.5694 -2.0521 -0.2032
   35POPC  H15Y 4766   1.172   3.441   8.919 -1.3241  0.5253 -2.8223
   35POPC  C316 4767   1.302   3.518   8.760 -0.0112  0.6080 -0.0471
   35POPC  H16X 4768   1.269   3.426   8.707 -0.5634  1.1661 -0.6863
   35POPC  H16Y 4769   1.413   3.520   8.767 -0.0694  1.4013  0.9634
   35POPC  H16Z 4770   1.280   3.602   8.692  0.5304 -0.5726 -1.7362
   36POPC     N 4771   6.469   2.069  10.754 -0.6225  0.1055  0.6992
   36POPC   C12 4772   6.347   2.076  10.839  0.3253 -0.5557  0.1642
   36POPC  H12A 4773   6.331   2.177  10.874  2.2379 -0.0737 -0.2247
   36POPC  H12B 4774   6.365   2.032  10.936  0.8654 -0.2511  0.2049
   36POPC   C13 4775   6.573   2.135  10.835  0.0679  0.3150 -0.9863
   36POPC  H13A 4776   6.543   2.238  10.846 -0.0002  0.1051  1.1270
   36POPC  H13B 4777   6.590   2.092  10.932 -2.4375  1.4378  0.0444
   36POPC  H13C 4778   6.669   2.123  10.786  0.3385 -1.2551 -0.1307
   36POPC   C14 4779   6.515   1.927  10.718 -0.4430  0.5473 -0.0674
   36POPC  H14A 4780   6.618   1.916  10.690 -0.3353  0.3290  0.3957
   36POPC  H14B 4781   6.497   1.867  10.806  1.4026  4.8667  3.6619
   36POPC  H14C 4782   6.447   1.898  10.639 -1.7564  0.6196  0.9957
   36POPC   C15 4783   6.451   2.132  10.621 -0.4668 -0.0683 -0.7936
   36POPC  H15A 4784   6.360   2.095  10.576 -0.7695  3.4664 -3.5764
   36POPC  H15B 4785   6.535   2.105  10.558  0.2747 -0.9594  0.5240
   36POPC  H15C 4786   6.444   2.239  10.627 -1.4695 -0.1662  0.0529
   36POPC   C11 4787   6.216   2.050  10.766  0.0529  0.4708 -0.1742
   36POPC  H11A 4788   6.138   2.013  10.835  1.0786 -2.5341 -0.4538
   36POPC  H11B 4789   6.238   1.958  10.707  0.8251  0.9188 -0.6141
   36POPC     P 4790   6.126   2.288  10.739 -0.3112  0.0364  0.3794
   36POPC   O13 4791   6.247   2.343  10.805  0.8361 -0.1812 -0.0659
   36POPC   O14 4792   6.004   2.267  10.821  0.4009 -0.5937 -0.4595
   36POPC   O12 4793   6.174   2.149  10.678  0.3221 -0.1101 -0.5331
   36POPC   O11 4794   6.107   2.375  10.614 -0.0348 -0.0752  0.4253
   36POPC    C1 4795   6.214   2.444  10.543 -0.6271  0.5479  0.3266
   36POPC    HA 4796   6.318   2.409  10.562 -0.8690  0.3121  1.2310
   36POPC    HB 4797   6.215   2.552  10.567  0.6131  0.6340 -0.0107
   36POPC    C2 4798   6.197   2.418  10.391  0.1448 -0.2667 -0.8947
   36POPC    HS 4799   6.290   2.453  10.341 -0.3470  0.6052 -1.2197
   36POPC   O21 4800   6.087   2.500  10.339 -0.3424 -0.0846 -0.3159
   36POPC   C21 4801   6.097   2.628  10.341  0.2425 -0.6209 -0.3157
   36POPC   O22 4802   6.198   2.694  10.361 -0.2460  0.4405 -0.3604
   36POPC   C22 4803   5.964   2.699  10.344  0.3685  0.2569  0.0479
   36POPC   H2R 4804   5.981   2.805  10.371  3.2300 -0.5752  2.0045
   36POPC   H2S 4805   5.910   2.665  10.434  0.7930  0.9052  0.5588
   36POPC    C3 4806   6.169   2.265  10.365 -0.0338  0.0786  0.1384
   36POPC    HX 4807   6.070   2.241  10.409  0.3681 -0.2314  0.8990
   36POPC    HY 4808   6.247   2.215  10.426  0.4391  1.1207  0.4161
   36POPC   O31 4809   6.165   2.237  10.225 -0.1123  0.7041 -0.1221
   36POPC   C31 4810   6.207   2.120  10.184  0.3270 -0.1598  0.1842
   36POPC   O32 4811   6.258   2.032  10.255 -0.7724 -0.1865  0.4770
   36POPC   C32 4812   6.173   2.116  10.032 -0.3706 -0.2536  0.1134
   36POPC   H2X 4813   6.267   2.155   9.988  0.1524  0.3179  1.6699
   36POPC   H2Y 4814   6.088   2.187  10.022  0.5505  1.2327  2.0614
   36POPC   C23 4815   5.878   2.699  10.221  0.3357  0.1501  0.3982
   36POPC   H3R 4816   5.798   2.774  10.234 -1.0877 -1.1499 -0.4861
   36POPC   H3S 4817   5.829   2.600  10.206  3.7303 -1.3789 -1.9849
   36POPC   C24 4818   5.963   2.720  10.100  1.3006  0.3597 -0.5864
   36POPC   H4R 4819   6.015   2.628  10.066 -0.9606 -1.7839  1.3055
   36POPC   H4S 4820   6.044   2.792  10.124  1.7287 -0.0271 -0.8544
   36POPC   C25 4821   5.883   2.766   9.975  0.4770  0.4654  0.6813
   36POPC   H5R 4822   5.848   2.869   9.995 -0.8961  0.1703 -0.1098
   36POPC   H5S 4823   5.788   2.709   9.965  1.1786 -0.3707 -2.0368
   36POPC   C26 4824   5.960   2.741   9.843  0.2540  0.4335  0.4233
   36POPC   H6R 4825   5.968   2.634   9.814 -1.3540  0.6877 -1.1337
   36POPC   H6S 4826   6.064   2.780   9.845  0.1020  0.9625 -1.0354
   36POPC   C27 4827   5.889   2.813   9.732  0.4757  0.6855 -0.1703
   36POPC   H7R 4828   5.885   2.919   9.764  0.2125  0.3655  0.8816
   36POPC   H7S 4829   5.791   2.764   9.714 -0.1197  0.9576  2.1103
   36POPC   C28 4830   5.968   2.832   9.598 -0.1577  0.0422  0.7597
   36POPC   H8R 4831   6.070   2.864   9.628 -0.1135 -1.4179  2.3046
   36POPC   H8S 4832   5.917   2.919   9.551 -3.0270 -0.5610  2.5015
   36POPC   C29 4833   5.972   2.699   9.521 -0.9326 -0.5788 -0.6122
   36POPC   H91 4834   5.992   2.610   9.583  3.4564  0.8138  0.3399
   36POPC  C210 4835   5.979   2.687   9.391 -0.4781 -0.5155  0.0429
   36POPC  H101 4836   5.975   2.586   9.349 -1.0241  0.1074 -1.5069
   36POPC  C211 4837   5.981   2.799   9.292  0.3405 -0.1198  0.0124
   36POPC  H11R 4838   6.045   2.761   9.210  0.8486  2.4714 -0.8828
   36POPC  H11S 4839   6.016   2.892   9.343  2.7145 -0.3148 -1.1418
   36POPC  C212 4840   5.851   2.835   9.216  0.6966  0.6802  0.0796
   36POPC  H12R 4841   5.873   2.937   9.178  0.5226  1.4956  2.0300
   36POPC  H12S 4842   5.764   2.840   9.285  1.6519 -1.2966  1.5271
   36POPC  C213 4843   5.808   2.732   9.109  0.0367 -0.0125 -0.4876
   36POPC  H13R 4844   5.698   2.722   9.106 -0.0079 -0.0015  0.6997
   36POPC  H13S 4845   5.840   2.628   9.132  0.9567  0.2402 -0.5881
   36POPC  C214 4846   5.861   2.777   8.979  0.6459  0.1294  0.4276
   36POPC  H14R 4847   5.972   2.777   8.975  0.6263 -0.8723 -1.1663
   36POPC  H14S 4848   5.845   2.886   8.961  0.3579 -0.0268 -0.3015
   36POPC  C215 4849   5.807   2.711   8.851  0.2735 -0.5643  0.4859
   36POPC  H15R 4850   5.696   2.720   8.857  0.4183  1.2072  1.3796
   36POPC  H15S 4851   5.842   2.606   8.849  1.6317 -0.1335  0.4870
   36POPC  C216 4852   5.842   2.800   8.735 -0.7432  0.7623 -0.8957
   36POPC  H16R 4853   5.952   2.818   8.735 -0.6615  0.5370 -3.2722
   36POPC  H16S 4854   5.797   2.900   8.754 -0.7623  0.3856  1.2359
   36POPC  C217 4855   5.809   2.760   8.592 -0.3442  0.0364  0.0007
   36POPC  H17R 4856   5.702   2.733   8.582  0.0711 -1.7664 -0.0489
   36POPC  H17S 4857   5.867   2.677   8.546  0.9631  1.0862 -0.3105
   36POPC  C218 4858   5.833   2.869   8.479  0.3253  0.2891 -0.4290
   36POPC  H18R 4859   5.938   2.888   8.450 -0.1989  1.5607 -1.6518
   36POPC  H18S 4860   5.789   2.970   8.496  0.0004  0.5614 -2.5422
   36POPC  H18T 4861   5.785   2.827   8.388  1.3893 -0.1694 -0.7888
   36POPC   C33 4862   6.144   1.972   9.974 -0.1577  0.7048  0.0912
   36POPC   H3X 4863   6.047   1.932  10.010 -0.6969  1.2668 -0.7177
   36POPC   H3Y 4864   6.224   1.896   9.988 -1.0606 -0.3442 -0.3003
   36POPC   C34 4865   6.117   1.985   9.822  0.3652 -0.1143 -0.7427
   36POPC   H4X 4866   6.206   2.036   9.779 -0.8539  1.9914 -0.9113
   36POPC   H4Y 4867   6.026   2.043   9.796  1.0970  1.1792 -0.5053
   36POPC   C35 4868   6.088   1.857   9.751 -0.3243  0.3344  0.6266
   36POPC   H5X 4869   5.979   1.837   9.747 -0.5207  1.1700  1.5822
   36POPC   H5Y 4870   6.141   1.765   9.783 -0.8853 -0.3901 -0.4563
   36POPC   C36 4871   6.129   1.867   9.596 -0.0728 -0.2073  0.0679
   36POPC   H6X 4872   6.111   1.768   9.549 -2.2887  0.1440  0.0871
   36POPC   H6Y 4873   6.237   1.894   9.604 -0.3327  1.0810 -0.6012
   36POPC   C37 4874   6.069   1.980   9.513 -0.3677 -1.0812 -0.5729
   36POPC   H7X 4875   6.077   2.079   9.562  0.1197 -0.9645 -0.8739
   36POPC   H7Y 4876   5.961   1.956   9.514 -0.2495 -1.7367  1.3764
   36POPC   C38 4877   6.123   1.993   9.374 -0.4379  0.3911 -0.2411
   36POPC   H8X 4878   6.111   1.894   9.326  1.7522  0.9361 -2.1364
   36POPC   H8Y 4879   6.230   2.026   9.374 -0.5576  0.7816 -0.3515
   36POPC   C39 4880   6.049   2.096   9.296 -0.4586  0.2762  0.2951
   36POPC   H9X 4881   6.057   2.182   9.366  1.8878  0.1380  0.2625
   36POPC   H9Y 4882   5.944   2.061   9.290 -0.0987 -0.8013  0.0650
   36POPC  C310 4883   6.118   2.123   9.163  0.3383 -0.6833  0.0900
   36POPC  H10X 4884   6.216   2.173   9.174  0.3660 -0.0455 -2.4390
   36POPC  H10Y 4885   6.054   2.200   9.115 -0.6147  0.8307  3.4443
   36POPC  C311 4886   6.138   2.004   9.064 -0.3550  0.0316  0.1596
   36POPC  H11X 4887   6.039   1.957   9.048 -0.8595 -0.3452  3.5791
   36POPC  H11Y 4888   6.217   1.932   9.095 -1.4482 -1.6901 -0.8821
   36POPC  C312 4889   6.185   2.040   8.927  0.0974 -0.8561 -0.9647
   36POPC  H12X 4890   6.290   2.075   8.923  0.0010 -0.6313 -1.6356
   36POPC  H12Y 4891   6.117   2.119   8.888 -0.1252 -0.6292 -0.1202
   36POPC  C313 4892   6.175   1.925   8.832  0.0874 -0.4291 -0.7087
   36POPC  H13X 4893   6.074   1.887   8.808 -0.7093 -0.2008  1.9742
   36POPC  H13Y 4894   6.232   1.838   8.872 -0.6748 -0.4166  0.4288
   36POPC  C314 4895   6.236   1.956   8.694 -0.3758  0.0188  1.1210
   36POPC  H14X 4896   6.346   1.950   8.710 -0.3953 -1.7789  0.8227
   36POPC  H14Y 4897   6.201   2.056   8.661 -1.2523 -1.3111 -2.4454
   36POPC  C315 4898   6.206   1.863   8.577 -0.5231  0.9980  1.0677
   36POPC  H15X 4899   6.263   1.879   8.484 -1.5213  1.2174  0.4749
   36POPC  H15Y 4900   6.103   1.887   8.541 -0.0412  2.2536  0.4781
   36POPC  C316 4901   6.216   1.708   8.607 -0.6465 -0.5292  0.0890
   36POPC  H16X 4902   6.177   1.645   8.524 -1.2835  0.0575 -0.0606
   36POPC  H16Y 4903   6.152   1.678   8.692  0.4745 -1.9267  0.4782
   36POPC  H16Z 4904   6.325   1.692   8.620  0.1443  0.8814 -3.5026
   37POPC     N 4905   4.693   3.915   6.289  0.3921  0.0020  0.4588
   37POPC   C12 4906   4.583   3.821   6.321 -0.6578  0.2840 -0.3755
   37POPC  H12A 4907   4.615   3.731   6.271 -0.4319  0.0398  0.2001
   37POPC  H12B 4908   4.489   3.852   6.278 -0.3757  1.9067  0.1279
   37POPC   C13 4909   4.689   3.933   6.138 -0.4458  0.0621  0.1810
   37POPC  H13A 4910   4.765   4.001   6.102 -0.3399  1.4542  2.8057
   37POPC  H13B 4911   4.702   3.832   6.101 -0.0889  0.2354 -0.1797
   37POPC  H13C 4912   4.594   3.969   6.100 -1.4005 -0.9543  1.4942
   37POPC   C14 4913   4.671   4.046   6.365 -0.7091  0.0036  0.0637
   37POPC  H14A 4914   4.661   4.027   6.470 -1.2839  0.4440  0.0971
   37POPC  H14B 4915   4.764   4.100   6.366 -0.9037  0.3801  2.8037
   37POPC  H14C 4916   4.581   4.092   6.326 -1.4908 -1.7430 -0.3194
   37POPC   C15 4917   4.828   3.863   6.323 -0.4847  0.7123  0.4394
   37POPC  H15A 4918   4.822   3.818   6.421  0.3321 -1.4324 -0.4448
   37POPC  H15B 4919   4.911   3.932   6.328 -0.6665  0.8854  1.2188
   37POPC  H15C 4920   4.861   3.780   6.263  0.2460  1.0351  0.3867
   37POPC   C11 4921   4.552   3.787   6.472  0.0953  0.6197  0.5469
   37POPC  H11A 4922   4.458   3.727   6.475 -0.1365  1.0075  1.4743
   37POPC  H11B 4923   4.543   3.880   6.531 -0.5606  0.7397  0.2727
   37POPC     P 4924   4.694   3.566   6.480 -0.2872  0.3602  0.0740
   37POPC   O13 4925   4.808   3.577   6.383  0.0310  0.1541 -0.0776
   37POPC   O14 4926   4.571   3.504   6.428 -0.3578  0.2237 -0.4712
   37POPC   O12 4927   4.659   3.713   6.531 -0.4505 -0.4768 -0.1366
   37POPC   O11 4928   4.743   3.485   6.608 -0.3182 -0.8737  0.3626
   37POPC    C1 4929   4.781   3.545   6.734  0.2582 -0.5126 -0.3570
   37POPC    HA 4930   4.782   3.468   6.814  1.4700  0.2336  0.3748
   37POPC    HB 4931   4.702   3.618   6.760  0.2135 -0.8319  0.4528
   37POPC    C2 4932   4.918   3.613   6.731 -0.2520 -0.4664 -0.6574
   37POPC    HS 4933   4.921   3.678   6.641 -3.8456 -2.8812 -2.8206
   37POPC   O21 4934   5.013   3.506   6.721  0.3870  0.5579 -0.3543
   37POPC   C21 4935   5.135   3.546   6.700 -0.2448  0.0709 -0.7313
   37POPC   O22 4936   5.170   3.663   6.691  0.0466  0.2004 -0.2651
   37POPC   C22 4937   5.228   3.424   6.695 -0.5566  0.3128  0.0984
   37POPC   H2R 4938   5.164   3.347   6.646 -0.7751  0.6823 -0.2027
   37POPC   H2S 4939   5.235   3.400   6.803  0.4854  2.2902  0.5061
   37POPC    C3 4940   4.944   3.697   6.867  0.4731 -0.1940  0.4735
   37POPC    HX 4941   4.880   3.788   6.863  1.9409  0.8622  0.3292
   37POPC    HY 4942   5.047   3.737   6.862 -0.2406  1.6086 -1.3313
   37POPC   O31 4943   4.910   3.631   6.995 -0.4629  0.0951  0.6095
   37POPC   C31 4944   5.003   3.559   7.048 -0.3465 -0.1070 -0.0311
   37POPC   O32 4945   5.120   3.567   7.013 -1.1536 -0.0947  0.2776
   37POPC   C32 4946   4.957   3.471   7.166  0.1648 -0.2665 -0.2323
   37POPC   H2X 4947   5.040   3.464   7.240  0.1934 -0.8338 -0.3161
   37POPC   H2Y 4948   4.949   3.368   7.125 -0.5667  0.1659 -1.2206
   37POPC   C23 4949   5.377   3.433   6.640  0.2080  0.4210 -0.3422
   37POPC   H3R 4950   5.442   3.513   6.681  0.1358 -0.0090  0.6327
   37POPC   H3S 4951   5.377   3.464   6.534  2.6714 -1.7958 -1.0945
   37POPC   C24 4952   5.450   3.301   6.645 -0.0122  0.1458 -0.5842
   37POPC   H4R 4953   5.557   3.312   6.617 -0.0577 -1.7610 -1.7467
   37POPC   H4S 4954   5.405   3.226   6.576 -0.4596 -1.8672  1.7517
   37POPC   C25 4955   5.459   3.234   6.781 -0.1101 -0.0626 -0.3636
   37POPC   H5R 4956   5.361   3.199   6.820  0.7963  1.6635  4.0653
   37POPC   H5S 4957   5.493   3.312   6.853 -1.3731  0.6298 -0.4938
   37POPC   C26 4958   5.548   3.113   6.779  0.1322 -0.6032  0.7063
   37POPC   H6R 4959   5.652   3.152   6.780 -0.3082  0.7012 -0.7507
   37POPC   H6S 4960   5.526   3.060   6.684 -1.2492 -1.5423  1.5102
   37POPC   C27 4961   5.527   3.010   6.884  0.3744  0.3816 -0.5309
   37POPC   H7R 4962   5.597   2.931   6.847 -1.3691 -1.8214  0.6077
   37POPC   H7S 4963   5.423   2.972   6.885 -0.6801  2.9038 -3.0199
   37POPC   C28 4964   5.577   3.057   7.025  0.3285 -0.1406  0.1821
   37POPC   H8R 4965   5.684   3.085   7.014  0.5430 -1.4502 -1.3270
   37POPC   H8S 4966   5.600   2.963   7.079  0.1520 -0.6357 -0.6010
   37POPC   C29 4967   5.499   3.152   7.108  0.3504  0.1166  1.0345
   37POPC   H91 4968   5.424   3.214   7.058  1.0970  0.0274 -0.2584
   37POPC  C210 4969   5.503   3.157   7.246 -0.9143  0.4227 -0.6079
   37POPC  H101 4970   5.431   3.224   7.296  0.7065 -0.2046  2.8418
   37POPC  C211 4971   5.585   3.072   7.333 -0.4278  0.3731  0.0850
   37POPC  H11R 4972   5.622   2.977   7.289 -2.6212 -0.1009 -0.8727
   37POPC  H11S 4973   5.522   3.047   7.421 -1.1892  3.3069  0.4797
   37POPC  C212 4974   5.700   3.154   7.387 -0.5932 -0.0595 -0.0200
   37POPC  H12R 4975   5.677   3.251   7.437  2.0752  0.4037  0.4243
   37POPC  H12S 4976   5.757   3.183   7.297 -1.5427  1.5804 -0.1389
   37POPC  C213 4977   5.782   3.084   7.502  0.2528  0.1294 -0.0323
   37POPC  H13R 4978   5.823   2.985   7.474  1.6769  0.4222  0.9310
   37POPC  H13S 4979   5.723   3.061   7.593  2.1156 -1.6508  0.7955
   37POPC  C214 4980   5.891   3.186   7.548  0.5002 -0.5646 -0.3927
   37POPC  H14R 4981   5.828   3.275   7.562  0.0611 -0.6353 -1.7896
   37POPC  H14S 4982   5.964   3.215   7.469  0.7502  1.7890  0.6198
   37POPC  C215 4983   5.968   3.138   7.666  0.4012  0.2853 -0.1545
   37POPC  H15R 4984   5.962   3.028   7.679 -1.7446  0.6647  3.2307
   37POPC  H15S 4985   5.927   3.182   7.759  2.5280  2.4032 -0.1179
   37POPC  C216 4986   6.121   3.172   7.662  0.5160 -0.1400 -0.6367
   37POPC  H16R 4987   6.126   3.272   7.614 -2.9595 -0.0838 -1.1325
   37POPC  H16S 4988   6.161   3.117   7.573 -1.5936 -0.3125 -1.5312
   37POPC  C217 4989   6.211   3.133   7.781  0.9556 -0.1869  0.0071
   37POPC  H17R 4990   6.318   3.153   7.759  0.7990  0.6466 -0.0514
   37POPC  H17S 4991   6.210   3.023   7.794  2.4448 -0.3183 -0.7699
   37POPC  C218 4992   6.173   3.204   7.907  0.5431  0.1186  0.0197
   37POPC  H18R 4993   6.065   3.199   7.935  0.4709  0.4274 -0.1983
   37POPC  H18S 4994   6.199   3.312   7.909 -0.1536  0.2885  0.0795
   37POPC  H18T 4995   6.234   3.165   7.992  0.6781  2.4110  1.0633
   37POPC   C33 4996   4.824   3.526   7.223  0.0853 -0.4992 -0.3625
   37POPC   H3X 4997   4.742   3.496   7.153  0.1940  0.7896 -1.0654
   37POPC   H3Y 4998   4.830   3.636   7.228 -3.4199 -0.1993  0.0412
   37POPC   C34 4999   4.778   3.468   7.358  0.3346 -0.3793 -0.0648
   37POPC   H4X 5000   4.744   3.363   7.341 -0.0096 -0.3590  0.4808
   37POPC   H4Y 5001   4.685   3.524   7.379  1.0070  1.3138 -1.4144
   37POPC   C35 5002   4.884   3.492   7.468  0.5976 -0.2586  0.1728
   37POPC   H5X 5003   4.921   3.596   7.465 -0.6361  0.2495  1.4975
   37POPC   H5Y 5004   4.968   3.420   7.458 -0.7240 -1.6340 -1.7422
   37POPC   C36 5005   4.832   3.465   7.604 -0.4070 -0.2864 -0.6274
   37POPC   H6X 5006   4.828   3.359   7.635 -1.0720 -0.0031  0.2903
   37POPC   H6Y 5007   4.728   3.504   7.605 -0.7924 -1.2534  1.4730
   37POPC   C37 5008   4.904   3.543   7.716  0.6381  0.2648  0.3239
   37POPC   H7X 5009   4.900   3.654   7.708  1.3901  0.3946  1.4883
   37POPC   H7Y 5010   5.013   3.523   7.702  0.1485 -1.7269 -1.1389
   37POPC   C38 5011   4.865   3.502   7.854  0.2374 -0.2739 -0.3502
   37POPC   H8X 5012   4.900   3.400   7.881  1.1377  0.1358  0.1158
   37POPC   H8Y 5013   4.754   3.506   7.855  0.2546  0.4018  0.7660
   37POPC   C39 5014   4.923   3.593   7.965 -0.3545  0.5078 -0.6568
   37POPC   H9X 5015   4.866   3.688   7.958 -0.8047  0.2275 -0.8625
   37POPC   H9Y 5016   5.025   3.619   7.932 -0.1597  0.8435  0.1914
   37POPC  C310 5017   4.910   3.531   8.112  0.2372 -0.3227 -0.2596
   37POPC  H10X 5018   4.962   3.434   8.099 -2.3643 -1.6495 -1.6363
   37POPC  H10Y 5019   4.801   3.519   8.126  0.1658 -0.3614 -0.8246
   37POPC  C311 5020   4.967   3.626   8.216  0.0005  0.9519 -1.2680
   37POPC  H11X 5021   4.918   3.726   8.215  1.1217  1.5343 -0.2708
   37POPC  H11Y 5022   5.075   3.633   8.195 -0.1086  1.0833 -1.7908
   37POPC  C312 5023   4.958   3.550   8.347  0.0725 -0.2018  0.1541
   37POPC  H12X 5024   4.997   3.447   8.332 -0.1620 -0.0748 -1.5747
   37POPC  H12Y 5025   4.854   3.542   8.383 -0.5276  0.2784 -1.3745
   37POPC  C313 5026   5.038   3.614   8.460 -0.0905  0.0626 -0.1227
   37POPC  H13X 5027   4.984   3.702   8.501 -0.4444  0.5140 -1.5337
   37POPC  H13Y 5028   5.142   3.638   8.428  1.0168 -1.7998  1.8043
   37POPC  C314 5029   5.046   3.512   8.575 -0.1661  0.2708 -0.4417
   37POPC  H14X 5030   5.094   3.421   8.531  0.3935 -0.1467  0.9856
   37POPC  H14Y 5031   4.950   3.476   8.617 -0.0908  0.9445  0.3269
   37POPC  C315 5032   5.131   3.561   8.690  0.3263 -0.2080  0.2706
   37POPC  H15X 5033   5.067   3.634   8.744 -2.3904 -1.9895 -0.3670
   37POPC  H15Y 5034   5.229   3.601   8.656  2.4853 -0.5188  5.1666
   37POPC  C316 5035   5.174   3.454   8.786  0.1949 -0.5703 -0.3157
   37POPC  H16X 5036   5.090   3.411   8.845  1.0544  1.2812  2.4400
   37POPC  H16Y 5037   5.238   3.504   8.862  0.7635 -1.5325 -0.1407
   37POPC  H16Z 5038   5.235   3.370   8.746 -0.1737 -0.9282 -0.1452
   38POPC     N 5039   6.440   6.763   5.823  0.2993 -0.1208  0.1750
   38POPC   C12 5040   6.412   6.684   5.947 -0.3670  0.3812 -0.9468
   38POPC  H12A 5041   6.505   6.631   5.962 -0.2446 -0.1166 -3.0704
   38POPC  H12B 5042   6.332   6.614   5.926  0.4667 -0.8273 -0.2316
   38POPC   C13 5043   6.539   6.871   5.844  0.2105 -0.4178 -0.2456
   38POPC  H13A 5044   6.550   6.929   5.754  1.7700 -1.7052 -0.9228
   38POPC  H13B 5045   6.516   6.937   5.927  1.7677  0.8749 -0.7995
   38POPC  H13C 5046   6.627   6.816   5.873  0.8041 -0.6728 -2.3591
   38POPC   C14 5047   6.489   6.670   5.714 -0.0737  0.3748 -0.5488
   38POPC  H14A 5048   6.434   6.577   5.710  0.2133  0.0873  1.4477
   38POPC  H14B 5049   6.488   6.723   5.620  1.5331  2.0797  0.3297
   38POPC  H14C 5050   6.582   6.625   5.747  0.1369  1.4053  0.3224
   38POPC   C15 5051   6.307   6.818   5.776  0.3905 -0.2399  0.2934
   38POPC  H15A 5052   6.316   6.869   5.681 -0.3898 -0.6121  0.0123
   38POPC  H15B 5053   6.262   6.875   5.855 -1.2619  0.9204 -1.3814
   38POPC  H15C 5054   6.235   6.739   5.764 -1.1294  1.2502 -0.8241
   38POPC   C11 5055   6.372   6.749   6.076  0.4814 -0.0824  0.0411
   38POPC  H11A 5056   6.323   6.686   6.153 -0.0363 -1.1452 -1.1393
   38POPC  H11B 5057   6.293   6.826   6.061  1.2850  0.9176  0.7400
   38POPC     P 5058   6.609   6.724   6.191 -0.2420  0.3966 -0.1342
   38POPC   O13 5059   6.725   6.767   6.116  0.5821 -0.2511  0.4408
   38POPC   O14 5060   6.581   6.584   6.191  1.6141  0.2465 -0.2508
   38POPC   O12 5061   6.495   6.806   6.126  0.8556 -0.5253  1.0218
   38POPC   O11 5062   6.607   6.788   6.333  1.0945 -0.2263 -0.0498
   38POPC    C1 5063   6.491   6.754   6.422  0.0002  0.4020  0.1385
   38POPC    HA 5064   6.407   6.693   6.382 -1.0739  0.0038  2.8497
   38POPC    HB 5065   6.441   6.849   6.450 -0.5851  0.6719 -1.6727
   38POPC    C2 5066   6.533   6.674   6.549  0.3319 -0.0613 -0.3160
   38POPC    HS 5067   6.443   6.651   6.609  2.3846  1.0750  3.5622
   38POPC   O21 5068   6.614   6.762   6.627 -0.1520 -0.7854  0.6199
   38POPC   C21 5069   6.549   6.837   6.716  0.5673 -0.1434  0.3527
   38POPC   O22 5070   6.424   6.849   6.711  0.3772 -0.2811  0.0259
   38POPC   C22 5071   6.638   6.929   6.787  0.9063  0.5787  0.2021
   38POPC   H2R 5072   6.669   7.018   6.728  4.0446 -0.0641  0.6810
   38POPC   H2S 5073   6.733   6.875   6.809  2.3283  1.8562 -2.2602
   38POPC    C3 5074   6.624   6.549   6.533 -0.6273 -0.4484  0.3677
   38POPC    HX 5075   6.726   6.578   6.500 -0.7916 -0.4100 -0.1158
   38POPC    HY 5076   6.577   6.499   6.446  1.5650 -2.1227  0.0572
   38POPC   O31 5077   6.619   6.466   6.649 -0.4424  0.3845  0.0012
   38POPC   C31 5078   6.722   6.438   6.727  0.2076 -0.2471  0.7839
   38POPC   O32 5079   6.836   6.486   6.712  0.1912 -0.4440  0.1258
   38POPC   C32 5080   6.689   6.348   6.848 -0.1750 -0.0175  0.1664
   38POPC   H2X 5081   6.756   6.260   6.839  0.0441  0.2537 -0.9682
   38POPC   H2Y 5082   6.585   6.313   6.834 -0.1374 -0.4746  0.9684
   38POPC   C23 5083   6.577   6.986   6.917 -0.7433  0.2255  0.0891
   38POPC   H3R 5084   6.541   6.907   6.986 -2.2308 -0.5773 -1.5378
   38POPC   H3S 5085   6.497   7.062   6.900  0.1203  1.8638  2.7189
   38POPC   C24 5086   6.683   7.061   7.006  0.0139 -0.1025 -0.3172
   38POPC   H4R 5087   6.641   7.153   7.052  1.8416  1.2643 -1.2653
   38POPC   H4S 5088   6.755   7.104   6.933 -1.9681 -0.8249 -2.8152
   38POPC   C25 5089   6.770   6.980   7.100 -0.2142  0.2349  0.2143
   38POPC   H5R 5090   6.842   6.927   7.033 -4.0292 -0.6917 -3.6336
   38POPC   H5S 5091   6.715   6.907   7.164 -0.9046  1.3825  0.9575
   38POPC   C26 5092   6.846   7.073   7.206 -0.2317 -0.4547  0.0920
   38POPC   H6R 5093   6.772   7.126   7.270  1.3722  0.6166  1.1135
   38POPC   H6S 5094   6.895   7.145   7.137 -0.8233 -0.2174 -0.0906
   38POPC   C27 5095   6.957   6.998   7.282 -0.2211 -0.1786 -0.6998
   38POPC   H7R 5096   7.037   7.068   7.316 -0.4848 -1.4645  2.9857
   38POPC   H7S 5097   7.009   6.932   7.210  1.3658  2.5881 -2.2974
   38POPC   C28 5098   6.908   6.935   7.410 -0.8934  0.7525 -0.3478
   38POPC   H8R 5099   6.985   6.864   7.447 -1.6583  0.8594  1.5470
   38POPC   H8S 5100   6.818   6.877   7.381  0.0568 -0.7818 -0.2945
   38POPC   C29 5101   6.876   7.040   7.520  0.1586  0.2328 -0.3603
   38POPC   H91 5102   6.846   7.139   7.484  1.9114  1.0659  0.3501
   38POPC  C210 5103   6.890   7.024   7.652 -0.0994  0.4779 -0.4996
   38POPC  H101 5104   6.881   7.103   7.728  2.5082  0.5900 -0.2309
   38POPC  C211 5105   6.938   6.897   7.710  0.6099 -0.0933 -0.0452
   38POPC  H11R 5106   7.048   6.895   7.727  0.4715  2.1977  1.4801
   38POPC  H11S 5107   6.905   6.806   7.655  1.8154 -0.1863 -0.6383
   38POPC  C212 5108   6.881   6.883   7.849  0.5000  0.1225 -0.4563
   38POPC  H12R 5109   6.770   6.872   7.857  0.3755  0.5234 -1.5515
   38POPC  H12S 5110   6.906   6.967   7.917 -0.4957  0.4590 -0.4887
   38POPC  C213 5111   6.949   6.762   7.918 -0.1072  0.5750 -0.2138
   38POPC  H13R 5112   7.059   6.770   7.906  0.2050 -2.7178 -0.3611
   38POPC  H13S 5113   6.910   6.673   7.864 -0.2187 -0.0026  0.7903
   38POPC  C214 5114   6.911   6.725   8.062  0.7864  0.8682  0.2866
   38POPC  H14R 5115   6.812   6.674   8.068  0.7021  0.2368 -3.6573
   38POPC  H14S 5116   6.904   6.817   8.124 -1.4562  1.5800 -0.8813
   38POPC  C215 5117   7.007   6.637   8.137 -0.7500 -0.0206  0.5221
   38POPC  H15R 5118   7.096   6.703   8.152  0.0999 -0.7753 -0.9143
   38POPC  H15S 5119   7.040   6.546   8.081  0.6664  1.9633 -2.0942
   38POPC  C216 5120   6.950   6.592   8.278  0.5057 -0.7993  0.2335
   38POPC  H16R 5121   6.868   6.518   8.265  1.8627 -2.0659 -1.6272
   38POPC  H16S 5122   6.911   6.682   8.330 -0.9820 -2.0518  1.3981
   38POPC  C217 5123   7.060   6.530   8.363 -0.7537 -0.2038 -0.1476
   38POPC  H17R 5124   7.152   6.591   8.350  0.6094 -2.5930 -2.5925
   38POPC  H17S 5125   7.083   6.427   8.329  0.6710 -0.0648  0.3487
   38POPC  C218 5126   7.008   6.524   8.506 -0.2689 -0.5218 -0.2588
   38POPC  H18R 5127   6.920   6.456   8.516  0.9616 -2.3113 -1.0143
   38POPC  H18S 5128   6.971   6.618   8.553 -1.0332 -0.7530 -0.3808
   38POPC  H18T 5129   7.083   6.492   8.581 -1.3539 -1.2212  0.5741
   38POPC   C33 5130   6.724   6.421   6.982 -0.2900 -0.4619 -0.0939
   38POPC   H3X 5131   6.825   6.467   6.982 -0.1627 -0.6371  2.3899
   38POPC   H3Y 5132   6.733   6.337   7.054 -0.0197 -0.1609  0.2235
   38POPC   C34 5133   6.622   6.528   7.023  0.5877 -0.5017 -0.1480
   38POPC   H4X 5134   6.518   6.495   7.006  0.7054 -0.6015 -0.6986
   38POPC   H4Y 5135   6.627   6.626   6.970  1.0895  0.0825  0.9353
   38POPC   C35 5136   6.640   6.566   7.175 -0.1744 -0.6239  0.3362
   38POPC   H5X 5137   6.743   6.605   7.193  0.6129 -2.1213 -0.6377
   38POPC   H5Y 5138   6.646   6.471   7.234  0.3746 -0.4222  0.6133
   38POPC   C36 5139   6.530   6.664   7.230 -0.0310  0.3369  0.3329
   38POPC   H6X 5140   6.424   6.638   7.209 -0.7269  0.6369  2.9963
   38POPC   H6Y 5141   6.535   6.758   7.171  1.7409 -0.6645 -1.2027
   38POPC   C37 5142   6.554   6.689   7.381  0.6844  0.3397 -0.6172
   38POPC   H7X 5143   6.505   6.787   7.398 -2.0258 -1.0061 -0.0445
   38POPC   H7Y 5144   6.663   6.704   7.394  0.6186  0.0570  0.3043
   38POPC   C38 5145   6.507   6.584   7.487 -0.2269  0.9219  0.2400
   38POPC   H8X 5146   6.537   6.485   7.446 -0.6940  1.0733 -0.4921
   38POPC   H8Y 5147   6.396   6.587   7.490 -0.2133  1.6545  2.7374
   38POPC   C39 5148   6.556   6.596   7.627 -0.1342 -0.8645 -0.0386
   38POPC   H9X 5149   6.535   6.697   7.668 -2.7874 -0.7924 -1.3420
   38POPC   H9Y 5150   6.667   6.590   7.628 -0.1901 -2.0957  0.6655
   38POPC  C310 5151   6.499   6.491   7.720  0.2576  0.4038 -0.1734
   38POPC  H10X 5152   6.572   6.454   7.795  0.1073  1.0813  0.3155
   38POPC  H10Y 5153   6.459   6.404   7.663  0.8821  0.5724 -0.8814
   38POPC  C311 5154   6.368   6.534   7.794 -0.6312  0.6451 -0.5259
   38POPC  H11X 5155   6.307   6.448   7.829  1.5676 -1.4010 -1.4551
   38POPC  H11Y 5156   6.305   6.590   7.722 -0.1703  0.2586 -1.2445
   38POPC  C312 5157   6.398   6.621   7.919  0.1579  0.1033  0.6394
   38POPC  H12X 5158   6.324   6.699   7.943 -1.1174 -0.3179 -1.6283
   38POPC  H12Y 5159   6.494   6.674   7.898  0.9757 -0.5090  2.5730
   38POPC  C313 5160   6.421   6.527   8.041  0.8264  0.2253 -0.0479
   38POPC  H13X 5161   6.463   6.432   8.002  1.3145  0.0343  0.9127
   38POPC  H13Y 5162   6.332   6.503   8.103  1.7310  1.5542  1.8487
   38POPC  C314 5163   6.527   6.573   8.137 -0.2714  0.6241 -0.3198
   38POPC  H14X 5164   6.498   6.675   8.169 -1.6829  0.7127 -1.7663
   38POPC  H14Y 5165   6.630   6.575   8.095  1.1181 -4.3115  2.0949
   38POPC  C315 5166   6.518   6.493   8.268 -0.0684 -0.6715 -0.5151
   38POPC  H15X 5167   6.567   6.397   8.244 -1.2073 -1.4218  0.0667
   38POPC  H15Y 5168   6.411   6.487   8.297 -0.2633  1.8584 -0.4212
   38POPC  C316 5169   6.588   6.577   8.365 -0.5884 -0.4154  0.4227
   38POPC  H16X 5170   6.523   6.662   8.395 -0.7611 -0.0721 -0.8644
   38POPC  H16Y 5171   6.679   6.624   8.324 -1.2754  1.0885  0.5572
   38POPC  H16Z 5172   6.617   6.515   8.453  0.4820  0.0997  0.4540
   39POPC     N 5173   1.991   1.091   6.326 -0.5803 -0.1372  0.1132
   39POPC   C12 5174   1.862   1.153   6.375  0.5498 -0.2236  1.0487
   39POPC  H12A 5175   1.878   1.211   6.465  0.2853  1.3620  0.1097
   39POPC  H12B 5176   1.796   1.074   6.408 -0.2465  0.2864  0.7146
   39POPC   C13 5177   2.096   1.193   6.298 -0.6705 -0.1226  0.0624
   39POPC  H13A 5178   2.126   1.254   6.382 -1.1424  0.7146 -0.3544
   39POPC  H13B 5179   2.186   1.149   6.258  0.9130  0.8536  2.3589
   39POPC  H13C 5180   2.052   1.268   6.233  1.9067  0.4117 -1.2170
   39POPC   C14 5181   2.055   1.005   6.433 -0.3678  0.1870  0.7707
   39POPC  H14A 5182   2.056   1.054   6.530 -3.5074  1.3087  0.3657
   39POPC  H14B 5183   2.013   0.906   6.445 -1.4072  0.5835  0.4763
   39POPC  H14C 5184   2.152   0.975   6.396 -0.6957 -2.6672  1.9756
   39POPC   C15 5185   1.968   1.011   6.204 -0.6953 -0.1525  0.0013
   39POPC  H15A 5186   1.882   0.948   6.216 -1.8491  1.4138  0.2252
   39POPC  H15B 5187   2.057   0.960   6.170 -0.2326  1.0406 -0.6413
   39POPC  H15C 5188   1.932   1.064   6.117  2.4843  1.8619 -0.2637
   39POPC   C11 5189   1.784   1.243   6.269  0.6210  1.1824 -0.8475
   39POPC  H11A 5190   1.842   1.323   6.218 -1.4524  2.4078 -1.4336
   39POPC  H11B 5191   1.705   1.303   6.320 -1.7092 -1.1466 -1.4829
   39POPC     P 5192   1.607   1.062   6.208 -0.0250 -0.4581 -0.3912
   39POPC   O13 5193   1.658   0.923   6.176 -0.2421  0.0701  0.5291
   39POPC   O14 5194   1.483   1.094   6.139  0.0133  0.0909  0.1642
   39POPC   O12 5195   1.714   1.164   6.173  0.1865  0.5060  0.2012
   39POPC   O11 5196   1.595   1.085   6.366  0.2769  0.6623 -0.3028
   39POPC    C1 5197   1.570   0.959   6.441  0.3287  0.0436  0.8474
   39POPC    HA 5198   1.647   0.883   6.415  0.1931  0.2590 -0.2425
   39POPC    HB 5199   1.469   0.918   6.418 -0.1168  1.4584  0.1331
   39POPC    C2 5200   1.582   0.984   6.603  0.0303  0.0194  0.0540
   39POPC    HS 5201   1.501   1.058   6.620  0.2581  0.4309 -0.6423
   39POPC   O21 5202   1.712   1.037   6.632  0.2331 -0.0178  1.0327
   39POPC   C21 5203   1.716   1.109   6.742  0.2703  0.5203  0.8112
   39POPC   O22 5204   1.615   1.145   6.800  0.1708 -0.1467 -0.2524
   39POPC   C22 5205   1.861   1.119   6.784  0.0057  0.2981  0.2440
   39POPC   H2R 5206   1.915   1.199   6.728  0.7592  1.1206  2.0629
   39POPC   H2S 5207   1.915   1.023   6.778  1.9395  1.2409  1.6049
   39POPC    C3 5208   1.548   0.853   6.679 -0.6185  0.4469 -0.3797
   39POPC    HX 5209   1.616   0.771   6.647 -1.7187 -1.2581  1.4253
   39POPC    HY 5210   1.458   0.801   6.640 -0.1869 -0.1588 -0.5896
   39POPC   O31 5211   1.542   0.861   6.824  0.4326  0.1509  0.3155
   39POPC   C31 5212   1.430   0.898   6.867  0.4859 -0.1254 -0.8078
   39POPC   O32 5213   1.326   0.916   6.797  0.4953 -0.1854 -0.1638
   39POPC   C32 5214   1.446   0.947   7.015 -0.1862 -0.5716 -0.0188
   39POPC   H2X 5215   1.415   0.867   7.085  1.5514 -0.6361  0.7154
   39POPC   H2Y 5216   1.555   0.956   7.033 -0.2925 -2.4344  1.9352
   39POPC   C23 5217   1.888   1.170   6.932  0.1441 -0.0897 -0.4537
   39POPC   H3R 5218   1.844   1.272   6.943 -2.9871 -1.1974 -1.4796
   39POPC   H3S 5219   1.998   1.178   6.928  0.0142  1.7805 -3.1988
   39POPC   C24 5220   1.852   1.076   7.051 -0.2534  0.0141 -0.3245
   39POPC   H4R 5221   1.889   0.972   7.036  3.2616  0.8147  1.5924
   39POPC   H4S 5222   1.741   1.077   7.055 -0.3259  2.2907 -1.5205
   39POPC   C25 5223   1.920   1.119   7.179  0.3729 -0.4667 -0.4721
   39POPC   H5R 5224   1.892   1.226   7.194 -0.9543 -0.7726 -0.6592
   39POPC   H5S 5225   2.030   1.110   7.184  0.4953  0.0339 -1.7390
   39POPC   C26 5226   1.859   1.045   7.301 -0.0834 -0.0076 -0.0208
   39POPC   H6R 5227   1.866   0.935   7.286 -1.3295  0.1248 -1.9444
   39POPC   H6S 5228   1.751   1.072   7.301 -0.2030 -0.4801  0.3089
   39POPC   C27 5229   1.931   1.086   7.430  0.3978 -0.1219  0.6123
   39POPC   H7R 5230   1.859   1.085   7.514  0.6518  1.3037  0.8792
   39POPC   H7S 5231   1.957   1.194   7.422 -0.0302  0.0370  1.2525
   39POPC   C28 5232   2.055   1.004   7.468 -0.0558 -0.6753  0.5215
   39POPC   H8R 5233   2.133   1.049   7.403 -0.0696  0.3184  1.1716
   39POPC   H8S 5234   2.029   0.898   7.444 -0.7652 -0.3440 -0.2257
   39POPC   C29 5235   2.082   1.034   7.614  0.2270  0.8470  0.6505
   39POPC   H91 5236   2.148   1.122   7.620  0.5879  0.9171 -2.5540
   39POPC  C210 5237   2.069   0.957   7.722  0.5828 -0.3998  0.7268
   39POPC  H101 5238   2.107   1.000   7.816  0.8735 -1.5829  1.1798
   39POPC  C211 5239   2.001   0.823   7.738 -0.6178 -0.7168 -0.5302
   39POPC  H11R 5240   1.989   0.770   7.641 -2.1932  0.3227 -0.9407
   39POPC  H11S 5241   1.910   0.844   7.799 -0.0816  0.7635 -0.2037
   39POPC  C212 5242   2.091   0.730   7.819 -0.5401 -0.0168  0.2596
   39POPC  H12R 5243   2.183   0.708   7.760  0.2552  1.3142  0.9319
   39POPC  H12S 5244   2.034   0.635   7.826 -0.2409 -0.5004 -2.7472
   39POPC  C213 5245   2.141   0.794   7.952  0.0375  0.3768  0.1917
   39POPC  H13R 5246   2.050   0.844   7.993 -1.1611 -1.1794 -0.4458
   39POPC  H13S 5247   2.217   0.871   7.927  0.6653 -0.3486 -0.1644
   39POPC  C214 5248   2.198   0.696   8.055  0.7136 -0.2640 -0.6785
   39POPC  H14R 5249   2.281   0.643   8.003 -0.2178 -1.2971 -1.1576
   39POPC  H14S 5250   2.117   0.627   8.085  0.7497 -1.1777 -2.4933
   39POPC  C215 5251   2.242   0.754   8.183 -1.4403 -0.3626 -0.7420
   39POPC  H15R 5252   2.308   0.843   8.171 -1.4849 -0.1970  0.1270
   39POPC  H15S 5253   2.311   0.684   8.234 -3.2786 -1.6284  0.1180
   39POPC  C216 5254   2.139   0.795   8.292 -0.5092 -0.0363  0.2321
   39POPC  H16R 5255   2.079   0.705   8.317  1.4347 -1.0940  1.3534
   39POPC  H16S 5256   2.057   0.861   8.256 -0.3358 -0.1237 -0.3393
   39POPC  C217 5257   2.203   0.847   8.419  0.4290  0.4625  0.9843
   39POPC  H17R 5258   2.271   0.932   8.397 -0.1308  0.2747 -1.9235
   39POPC  H17S 5259   2.272   0.772   8.463  1.4597  1.5752  1.3133
   39POPC  C218 5260   2.105   0.896   8.523 -0.1066  0.4225  0.4305
   39POPC  H18R 5261   2.033   0.974   8.489 -1.5462  0.1218  2.5760
   39POPC  H18S 5262   2.167   0.929   8.609  2.9437 -2.1001 -0.6180
   39POPC  H18T 5263   2.039   0.821   8.572  0.6475  0.3219  1.3036
   39POPC   C33 5264   1.366   1.072   7.049  0.3336 -0.6800 -0.0466
   39POPC   H3X 5265   1.260   1.056   7.020  0.6106  0.8622 -2.1293
   39POPC   H3Y 5266   1.407   1.155   6.987 -0.1743 -1.6936 -1.8059
   39POPC   C34 5267   1.372   1.109   7.196 -0.5516 -0.0958 -0.6712
   39POPC   H4X 5268   1.310   1.033   7.247  0.6677 -0.0589  0.9335
   39POPC   H4Y 5269   1.320   1.206   7.213 -0.0126  0.1139 -0.1962
   39POPC   C35 5270   1.507   1.107   7.265  1.0731 -0.0560 -0.1975
   39POPC   H5X 5271   1.578   1.183   7.227 -0.8087  1.4186 -0.9569
   39POPC   H5Y 5272   1.547   1.004   7.252 -1.0742 -2.2018  6.2573
   39POPC   C36 5273   1.513   1.124   7.425  0.0255 -0.4456  0.0382
   39POPC   H6X 5274   1.490   1.231   7.443  0.9839  0.2385 -2.3928
   39POPC   H6Y 5275   1.612   1.093   7.466  0.7305  1.5930 -0.0203
   39POPC   C37 5276   1.419   1.045   7.514 -0.3474  0.7902  0.5005
   39POPC   H7X 5277   1.431   0.936   7.493  0.5649  1.1682 -1.1322
   39POPC   H7Y 5278   1.313   1.063   7.486 -0.7149  1.6787  2.3506
   39POPC   C38 5279   1.431   1.057   7.666  1.1480 -0.0110  0.1041
   39POPC   H8X 5280   1.336   1.023   7.713  1.8633 -0.3592  1.3533
   39POPC   H8Y 5281   1.442   1.166   7.681  0.3096  0.0138  0.6210
   39POPC   C39 5282   1.547   0.976   7.718  0.2651 -0.9087  0.1142
   39POPC   H9X 5283   1.629   1.047   7.738 -1.5319  1.4424 -0.4224
   39POPC   H9Y 5284   1.580   0.902   7.641 -0.2588 -1.4887  0.4342
   39POPC  C310 5285   1.516   0.910   7.849  0.3087  0.3910 -0.5929
   39POPC  H10X 5286   1.445   0.826   7.832 -0.9545  1.3532 -0.2347
   39POPC  H10Y 5287   1.470   0.994   7.905 -0.9483  0.2149 -1.3202
   39POPC  C311 5288   1.643   0.859   7.923 -0.4018  0.0521  0.2224
   39POPC  H11X 5289   1.707   0.944   7.954 -0.3379 -0.1323  0.6056
   39POPC  H11Y 5290   1.696   0.797   7.847 -1.2912 -0.2883 -0.1418
   39POPC  C312 5291   1.606   0.793   8.058  0.6352 -0.0836 -0.0053
   39POPC  H12X 5292   1.563   0.693   8.034  3.6897 -1.4145 -0.4655
   39POPC  H12Y 5293   1.528   0.846   8.116  0.1057 -1.6433  0.7758
   39POPC  C313 5294   1.730   0.781   8.146  0.7502 -0.1892 -0.4432
   39POPC  H13X 5295   1.763   0.885   8.165  0.2239  0.1813 -1.4672
   39POPC  H13Y 5296   1.806   0.716   8.097  1.6603  1.8698 -1.9325
   39POPC  C314 5297   1.684   0.708   8.275  0.0218  0.3711 -0.1471
   39POPC  H14X 5298   1.628   0.612   8.263  0.3550 -0.3678  3.2110
   39POPC  H14Y 5299   1.617   0.776   8.333 -0.7483 -1.4894  1.2523
   39POPC  C315 5300   1.800   0.674   8.365 -0.0813 -0.0021 -0.0836
   39POPC  H15X 5301   1.845   0.772   8.394  1.3366 -1.2433  2.2721
   39POPC  H15Y 5302   1.879   0.625   8.303  0.2901  1.4189 -0.7758
   39POPC  C316 5303   1.744   0.591   8.483 -0.1158  0.0068 -0.3649
   39POPC  H16X 5304   1.836   0.561   8.539  0.6756  0.3628 -1.4336
   39POPC  H16Y 5305   1.687   0.499   8.456 -2.5877  1.2881  0.1940
   39POPC  H16Z 5306   1.669   0.649   8.540 -0.6351  0.4859 -1.5253
   40POPC     N 5307   1.567   2.404   6.324 -0.4532 -0.6000  0.3659
   40POPC   C12 5308   1.595   2.543   6.378 -0.3359  0.0989 -0.3284
   40POPC  H12A 5309   1.526   2.556   6.459 -0.7180  1.9950 -0.9022
   40POPC  H12B 5310   1.569   2.620   6.306 -2.2732 -1.4878 -1.4000
   40POPC   C13 5311   1.626   2.303   6.416  0.0222 -0.3106 -0.5563
   40POPC  H13A 5312   1.611   2.202   6.382 -0.7878 -0.9208  1.4361
   40POPC  H13B 5313   1.732   2.310   6.431 -0.0560  0.5986 -0.3595
   40POPC  H13C 5314   1.575   2.316   6.510 -4.3808  0.7995 -2.8168
   40POPC   C14 5315   1.423   2.380   6.300 -0.4143 -0.3938  0.2700
   40POPC  H14A 5316   1.408   2.278   6.269 -0.1151 -0.4596  0.3415
   40POPC  H14B 5317   1.368   2.392   6.393  0.4226  0.9444  0.6201
   40POPC  H14C 5318   1.370   2.447   6.234  0.7991 -1.9518 -2.4373
   40POPC   C15 5319   1.644   2.386   6.197  0.0267  0.0354  0.3606
   40POPC  H15A 5320   1.638   2.291   6.145  0.7417 -0.6955  1.5934
   40POPC  H15B 5321   1.748   2.410   6.212  0.4602 -1.3158 -0.3416
   40POPC  H15C 5322   1.612   2.454   6.119  0.7510  0.4890  0.4461
   40POPC   C11 5323   1.732   2.584   6.435 -0.4452  0.3577 -0.1462
   40POPC  H11A 5324   1.734   2.532   6.533  0.6247 -3.2174 -1.8940
   40POPC  H11B 5325   1.731   2.693   6.455  0.2187  0.2436  0.5644
   40POPC     P 5326   1.971   2.464   6.420  0.0892 -0.5719  0.1782
   40POPC   O13 5327   2.090   2.494   6.336 -0.3000 -0.5444 -0.7947
   40POPC   O14 5328   1.926   2.327   6.450  0.3120 -0.0280  0.2879
   40POPC   O12 5329   1.852   2.548   6.358 -0.0146 -0.1074 -0.6139
   40POPC   O11 5330   1.993   2.532   6.553 -0.3151 -0.5007  0.0213
   40POPC    C1 5331   2.081   2.475   6.650 -0.7393  0.2049 -0.6642
   40POPC    HA 5332   2.170   2.540   6.666  0.1036 -1.1050  0.2513
   40POPC    HB 5333   2.114   2.370   6.634 -0.8834  0.1274 -0.4626
   40POPC    C2 5334   2.013   2.453   6.785 -0.4797 -0.5268  0.8673
   40POPC    HS 5335   1.959   2.356   6.782  0.0960 -0.8133 -0.9787
   40POPC   O21 5336   1.933   2.568   6.810  0.4153  0.5362 -0.1986
   40POPC   C21 5337   1.802   2.534   6.852 -0.3849 -1.0982  0.9105
   40POPC   O22 5338   1.763   2.422   6.875  0.0822 -0.6944  0.4742
   40POPC   C22 5339   1.740   2.655   6.910 -0.3539 -0.2688  0.7414
   40POPC   H2R 5340   1.675   2.712   6.839 -0.3191 -0.4160  0.5914
   40POPC   H2S 5341   1.821   2.723   6.944  0.1401 -0.3676 -0.1889
   40POPC    C3 5342   2.121   2.437   6.892  0.3669  0.4772 -0.2136
   40POPC    HX 5343   2.193   2.520   6.901  2.1312 -0.9714 -0.3895
   40POPC    HY 5344   2.190   2.352   6.872  0.7326 -0.1788  3.3175
   40POPC   O31 5345   2.064   2.433   7.021  0.4362  0.6152  0.0839
   40POPC   C31 5346   2.086   2.327   7.090 -0.4596 -0.3600  0.6031
   40POPC   O32 5347   2.131   2.222   7.047  0.1106 -0.3403 -0.0255
   40POPC   C32 5348   2.051   2.351   7.242 -0.6272  0.0105  0.2183
   40POPC   H2X 5349   1.943   2.327   7.256 -1.0727  1.6414 -0.2078
   40POPC   H2Y 5350   2.072   2.460   7.256  1.0683 -0.0210 -1.6717
   40POPC   C23 5351   1.656   2.625   7.035 -0.2272 -0.7742  0.5017
   40POPC   H3R 5352   1.566   2.568   7.003 -2.4854  1.8322  1.7749
   40POPC   H3S 5353   1.617   2.714   7.089 -0.5005 -0.5521 -0.0488
   40POPC   C24 5354   1.727   2.554   7.152 -0.1036 -0.1549 -0.8587
   40POPC   H4R 5355   1.819   2.611   7.176 -0.4024  0.9663 -2.2203
   40POPC   H4S 5356   1.761   2.453   7.120  1.6640 -0.6553  2.1993
   40POPC   C25 5357   1.628   2.541   7.267  0.4385  0.2222 -0.3913
   40POPC   H5R 5358   1.534   2.501   7.223  0.8959 -0.5029 -0.7437
   40POPC   H5S 5359   1.595   2.636   7.313  0.1752 -0.3392  0.6091
   40POPC   C26 5360   1.667   2.451   7.388  0.0416 -0.3182  0.0917
   40POPC   H6R 5361   1.765   2.484   7.430 -0.7777 -0.4391  2.2197
   40POPC   H6S 5362   1.695   2.354   7.342 -0.6508  0.1360 -1.3733
   40POPC   C27 5363   1.564   2.430   7.495 -0.4513 -1.0985  0.1869
   40POPC   H7R 5364   1.485   2.361   7.458 -0.5948 -2.1956  2.3507
   40POPC   H7S 5365   1.524   2.530   7.522  1.5528 -0.3039  0.3314
   40POPC   C28 5366   1.609   2.378   7.630 -0.9249 -0.0193 -0.6699
   40POPC   H8R 5367   1.653   2.277   7.614  0.8453  0.8421 -1.4517
   40POPC   H8S 5368   1.509   2.366   7.678 -1.3613 -0.5496 -1.6655
   40POPC   C29 5369   1.713   2.460   7.696 -0.2519 -0.3189  0.0609
   40POPC   H91 5370   1.816   2.446   7.659 -0.9142 -1.8111 -1.3772
   40POPC  C210 5371   1.684   2.537   7.803  0.1287  0.3191  0.0134
   40POPC  H101 5372   1.773   2.589   7.842  0.9604 -0.7833 -0.3513
   40POPC  C211 5373   1.551   2.560   7.869  0.7211 -0.3268 -0.2624
   40POPC  H11R 5374   1.491   2.468   7.851 -1.1474  0.8791 -0.4337
   40POPC  H11S 5375   1.507   2.650   7.823  0.1089 -0.1907  0.5568
   40POPC  C212 5376   1.569   2.604   8.014  0.6719  0.1681 -0.2621
   40POPC  H12R 5377   1.471   2.611   8.066  1.1282  0.1824  0.6302
   40POPC  H12S 5378   1.627   2.696   8.035  1.1655  0.2375 -1.8574
   40POPC  C213 5379   1.640   2.494   8.095 -0.1025 -0.1935 -0.7125
   40POPC  H13R 5380   1.652   2.531   8.199  1.6163  0.5595 -1.1450
   40POPC  H13S 5381   1.742   2.480   8.054  1.7063  2.6379  2.3449
   40POPC  C214 5382   1.579   2.351   8.106 -0.3777  1.0735 -0.1261
   40POPC  H14R 5383   1.630   2.301   8.191 -0.9904 -0.7211 -0.7612
   40POPC  H14S 5384   1.619   2.300   8.015  1.7504  1.4223  0.5454
   40POPC  C215 5385   1.428   2.353   8.126  0.2318  0.4875 -0.7519
   40POPC  H15R 5386   1.393   2.372   8.022  1.6364  1.3103 -1.0938
   40POPC  H15S 5387   1.392   2.430   8.198  1.4278 -0.9768  1.5302
   40POPC  C216 5388   1.359   2.234   8.189 -0.1563 -0.1813  0.5990
   40POPC  H16R 5389   1.390   2.150   8.123 -1.4598  0.1751 -0.5095
   40POPC  H16S 5390   1.254   2.247   8.155 -0.5554  0.8368  2.1359
   40POPC  C217 5391   1.374   2.223   8.338  1.2345 -0.0004 -0.0987
   40POPC  H17R 5392   1.323   2.312   8.382 -0.3105 -1.0399  0.2999
   40POPC  H17S 5393   1.476   2.251   8.371  1.2059  2.0408 -1.5484
   40POPC  C218 5394   1.328   2.089   8.400  0.2853 -0.6657  0.2040
   40POPC  H18R 5395   1.360   2.078   8.505  0.7243 -0.5268  0.0919
   40POPC  H18S 5396   1.368   1.999   8.348  1.8047  0.4181 -0.6056
   40POPC  H18T 5397   1.218   2.080   8.397  0.4212 -2.5759 -0.9782
   40POPC   C33 5398   2.136   2.256   7.336  0.6531 -1.1033  0.0003
   40POPC   H3X 5399   2.243   2.270   7.308  0.7495 -0.2535  0.7753
   40POPC   H3Y 5400   2.106   2.150   7.323  1.9447 -1.2854 -1.8940
   40POPC   C34 5401   2.122   2.299   7.487 -0.6397 -0.1577 -0.4178
   40POPC   H4X 5402   2.121   2.410   7.483 -0.7277 -0.2007 -2.1104
   40POPC   H4Y 5403   2.213   2.260   7.537 -2.0232 -2.1107  0.7234
   40POPC   C35 5404   1.993   2.252   7.549  0.1357  0.0117 -0.5534
   40POPC   H5X 5405   1.973   2.146   7.520  1.9345 -0.0699 -1.6404
   40POPC   H5Y 5406   1.911   2.316   7.508  0.8594 -0.5147 -3.0054
   40POPC   C36 5407   2.001   2.251   7.702 -0.5669 -0.0758 -0.2307
   40POPC   H6X 5408   2.079   2.177   7.731 -0.5421  0.5413  1.4034
   40POPC   H6Y 5409   1.909   2.221   7.755  0.2560 -0.5470  0.9781
   40POPC   C37 5410   2.042   2.384   7.773 -0.2053  0.3995 -0.5315
   40POPC   H7X 5411   1.982   2.469   7.733 -1.1029  0.8911  1.7307
   40POPC   H7Y 5412   2.149   2.404   7.750 -0.3321 -0.7371 -2.3252
   40POPC   C38 5413   2.018   2.385   7.926  0.2070 -0.7524  0.6403
   40POPC   H8X 5414   1.941   2.314   7.961 -1.3218  0.6325  0.2115
   40POPC   H8Y 5415   1.971   2.482   7.951  0.0727 -0.4081 -0.8426
   40POPC   C39 5416   2.139   2.356   8.015  0.2652 -0.2125 -0.5069
   40POPC   H9X 5417   2.205   2.444   8.007 -1.1732  0.7913 -1.9175
   40POPC   H9Y 5418   2.198   2.270   7.975 -0.8696 -0.5877 -1.4677
   40POPC  C310 5419   2.097   2.336   8.163 -0.2879  0.1337  0.4897
   40POPC  H10X 5420   2.185   2.289   8.212  0.4653 -0.4752 -1.3928
   40POPC  H10Y 5421   2.013   2.262   8.167  1.8714 -2.8009 -2.6494
   40POPC  C311 5422   2.069   2.468   8.232  0.1866 -0.0666  0.6648
   40POPC  H11X 5423   1.989   2.527   8.184  1.4733  1.5356  0.4119
   40POPC  H11Y 5424   2.156   2.537   8.228  0.3105 -0.0115  2.8027
   40POPC  C312 5425   2.021   2.454   8.378  0.4131  0.7000  0.3020
   40POPC  H12X 5426   1.949   2.369   8.379  0.2177  0.7989 -1.7249
   40POPC  H12Y 5427   1.966   2.545   8.411 -0.4883 -0.5628  2.5609
   40POPC  C313 5428   2.142   2.429   8.470  0.2996  0.4991 -0.1626
   40POPC  H13X 5429   2.203   2.520   8.488  2.5850 -1.0985  0.6166
   40POPC  H13Y 5430   2.206   2.358   8.414 -2.9571 -1.1397 -2.1015
   40POPC  C314 5431   2.084   2.358   8.597  0.6341  0.8792  0.1993
   40POPC  H14X 5432   2.055   2.255   8.570  0.9880  0.0652  2.6187
   40POPC  H14Y 5433   2.001   2.425   8.630 -0.2413  1.2134 -2.4938
   40POPC  C315 5434   2.189   2.339   8.714  0.4870  0.2518  0.2723
   40POPC  H15X 5435   2.227   2.436   8.751 -0.9989  1.0469 -0.1860
   40POPC  H15Y 5436   2.274   2.275   8.683 -0.2487 -0.6993  0.1652
   40POPC  C316 5437   2.129   2.269   8.833  0.0291 -0.5949  0.2790
   40POPC  H16X 5438   2.191   2.239   8.920  2.0577 -1.1386 -1.2856
   40POPC  H16Y 5439   2.076   2.179   8.794  0.8782 -0.0530 -2.2816
   40POPC  H16Z 5440   2.048   2.326   8.884 -1.3972 -2.5981  0.3763
   41CHL1    C3 5441   1.209   1.167  10.045  0.2766  0.4459 -0.9128
   41CHL1    H3 5442   1.224   1.061  10.076 -0.3411  0.4649 -0.5455
   41CHL1    O3 5443   1.149   1.229  10.156 -0.0932 -0.3212 -0.3358
   41CHL1   H3' 5444   1.168   1.322  10.147  0.3677 -0.4165 -0.4111
   41CHL1    C4 5445   1.338   1.232   9.996  0.3654 -0.4350  0.2643
   41CHL1   H4A 5446   1.333   1.341   9.978  0.8786 -0.9563 -3.7465
   41CHL1   H4B 5447   1.410   1.219  10.080 -1.0119 -1.1207  1.3906
   41CHL1    C5 5448   1.395   1.167   9.870 -0.0238 -0.2339 -0.1921
   41CHL1    C6 5449   1.523   1.127   9.860  0.3437  0.4189  0.5201
   41CHL1    H6 5450   1.594   1.125   9.943  1.6339  1.3060 -0.5199
   41CHL1    C7 5451   1.585   1.075   9.736  0.1392  0.1949  0.2356
   41CHL1   H7A 5452   1.676   1.138   9.726  0.0113  0.2183 -0.9157
   41CHL1   H7B 5453   1.614   0.968   9.740 -2.5374 -0.6723 -1.1429
   41CHL1    C8 5454   1.494   1.106   9.612  0.3393  0.3277  0.0477
   41CHL1    H8 5455   1.493   1.214   9.586 -2.6363  0.5688  0.8166
   41CHL1   C14 5456   1.544   1.022   9.496 -0.9273 -0.1624 -0.3098
   41CHL1   H14 5457   1.538   0.915   9.524 -0.5238 -0.5443 -1.5809
   41CHL1   C15 5458   1.697   1.021   9.467 -0.2291 -0.5051 -0.1761
   41CHL1  H15A 5459   1.735   1.126   9.460  1.4908 -1.1554 -1.6192
   41CHL1  H15B 5460   1.755   0.978   9.552 -0.7758  0.9251  0.9634
   41CHL1   C16 5461   1.710   0.943   9.330 -0.3106 -0.3530 -0.3349
   41CHL1  H16A 5462   1.780   0.993   9.259  0.5707  0.9593  1.3737
   41CHL1  H16B 5463   1.760   0.848   9.359  2.3150  1.3640  1.2140
   41CHL1   C17 5464   1.561   0.937   9.272 -0.6561 -0.3417 -0.0831
   41CHL1   H17 5465   1.536   0.836   9.313  1.0154 -1.4257 -1.5891
   41CHL1   C13 5466   1.475   1.032   9.369 -0.2613 -0.0029 -0.1182
   41CHL1   C18 5467   1.489   1.177   9.314  0.1605 -1.0716  1.0778
   41CHL1  H18A 5468   1.415   1.188   9.231  0.4075  0.0918  1.0017
   41CHL1  H18B 5469   1.453   1.251   9.388  1.1262  0.5535 -0.0352
   41CHL1  H18C 5470   1.588   1.201   9.271 -0.7046  1.4028  0.2851
   41CHL1   C12 5471   1.324   1.004   9.390  0.7175 -0.0257 -0.8848
   41CHL1  H12A 5472   1.258   1.000   9.301 -1.6266 -1.2759  0.8081
   41CHL1  H12B 5473   1.328   0.898   9.423 -1.0306  0.6573  1.8554
   41CHL1   C11 5474   1.266   1.091   9.503  0.1066 -0.3528  0.1837
   41CHL1  H11A 5475   1.278   1.192   9.459 -0.4227 -0.1368  0.5212
   41CHL1  H11B 5476   1.158   1.064   9.507  0.0215  0.0177  0.3752
   41CHL1    C9 5477   1.343   1.080   9.641  0.1504 -0.2166 -0.3575
   41CHL1    H9 5478   1.325   0.976   9.676 -2.4015  0.8445  1.8475
   41CHL1   C10 5479   1.291   1.167   9.753 -0.4177  0.4285  0.5457
   41CHL1   C19 5480   1.271   1.313   9.699  0.1193  0.0298  1.1277
   41CHL1  H19A 5481   1.232   1.378   9.780 -2.6797  0.7814 -0.6902
   41CHL1  H19B 5482   1.364   1.355   9.655 -0.3001  0.7222  0.9070
   41CHL1  H19C 5483   1.201   1.313   9.613  1.0126  1.0491  0.3802
   41CHL1    C1 5484   1.169   1.107   9.812  0.5405  0.0614 -0.1398
   41CHL1   H1A 5485   1.089   1.117   9.736 -0.4634 -1.6058  0.6657
   41CHL1   H1B 5486   1.186   1.002   9.842  0.9253  0.0245 -0.4747
   41CHL1    C2 5487   1.104   1.176   9.934 -0.1147 -0.0160  0.7180
   41CHL1   H2A 5488   1.009   1.121   9.953  1.7106 -5.1722 -2.8594
   41CHL1   H2B 5489   1.086   1.284   9.917 -0.0939 -0.0903  0.2264
   41CHL1   C20 5490   1.536   0.933   9.121  0.2055 -0.2896  0.5783
   41CHL1   H20 5491   1.429   0.920   9.096  0.5340  0.3521 -1.3789
   41CHL1   C21 5492   1.607   0.804   9.074  0.5998  0.5065  0.2241
   41CHL1  H21A 5493   1.580   0.773   8.971 -1.3752  0.0988  0.8163
   41CHL1  H21B 5494   1.572   0.713   9.128  0.5716 -0.2219 -1.0036
   41CHL1  H21C 5495   1.716   0.816   9.092  0.6912  1.5546 -0.8932
   41CHL1   C22 5496   1.579   1.053   9.032  0.0718  0.4423  0.1502
   41CHL1  H22A 5497   1.524   1.144   9.064  1.1909  1.3987 -0.5479
   41CHL1  H22B 5498   1.687   1.072   9.052  0.7057  0.1051 -2.5126
   41CHL1   C23 5499   1.550   1.047   8.878 -0.2884 -0.6984  0.6174
   41CHL1  H23A 5500   1.595   0.962   8.822  0.8470 -0.4081  1.0826
   41CHL1  H23B 5501   1.439   1.040   8.865 -0.1520  0.1480 -1.2844
   41CHL1   C24 5502   1.611   1.168   8.803  0.2150 -0.6511 -0.4313
   41CHL1  H24A 5503   1.584   1.264   8.854 -0.6891 -0.2546 -1.6244
   41CHL1  H24B 5504   1.722   1.162   8.804  0.3232  0.8449  0.7551
   41CHL1   C25 5505   1.565   1.185   8.662  0.3454 -0.4871  0.5281
   41CHL1   H25 5506   1.636   1.253   8.609 -0.5069 -0.6378 -0.8703
   41CHL1   C26 5507   1.566   1.056   8.579 -0.4934 -0.6393 -0.0766
   41CHL1  H26A 5508   1.564   1.085   8.472  1.0116 -0.6570 -0.1379
   41CHL1  H26B 5509   1.660   0.998   8.597  0.3537  0.4572 -0.8437
   41CHL1  H26C 5510   1.481   0.987   8.599  0.2167 -1.8783 -1.1775
   41CHL1   C27 5511   1.429   1.253   8.653  0.2652  0.3411  0.0470
   41CHL1  H27A 5512   1.421   1.345   8.714 -0.5213 -1.4755  2.8585
   41CHL1  H27B 5513   1.421   1.295   8.550  0.5673 -0.6711 -0.4071
   41CHL1  H27C 5514   1.343   1.186   8.679  1.6817 -0.8830  1.8420
   42CHL1    C3 5515   1.317   5.503  10.070 -0.0570 -0.3844 -0.1836
   42CHL1    H3 5516   1.355   5.413  10.122  1.6598 -0.0446 -0.7641
   42CHL1    O3 5517   1.262   5.601  10.157 -0.3288 -0.1458 -0.1155
   42CHL1   H3' 5518   1.289   5.677  10.105 -1.4504  1.0202  0.9352
   42CHL1    C4 5519   1.425   5.570   9.981  0.8566 -0.2234  0.1360
   42CHL1   H4A 5520   1.387   5.670   9.952  0.2075 -0.4803  0.0794
   42CHL1   H4B 5521   1.518   5.591  10.039  2.7545 -4.4206 -1.0205
   42CHL1    C5 5522   1.465   5.491   9.854 -0.6714 -0.0587 -0.1680
   42CHL1    C6 5523   1.600   5.469   9.832 -0.1059  0.2257  0.2253
   42CHL1    H6 5524   1.675   5.508   9.903 -1.8501  2.5721  0.9149
   42CHL1    C7 5525   1.654   5.385   9.715  0.4775 -0.5902  0.0269
   42CHL1   H7A 5526   1.738   5.449   9.681  0.2129  1.0406  2.2226
   42CHL1   H7B 5527   1.705   5.289   9.741  1.1514 -0.0232  0.8436
   42CHL1    C8 5528   1.539   5.353   9.611 -0.1702 -0.4385 -0.5517
   42CHL1    H8 5529   1.520   5.451   9.562 -1.3349  1.8997  4.0610
   42CHL1   C14 5530   1.589   5.249   9.506  0.6648  0.3734 -0.8720
   42CHL1   H14 5531   1.610   5.152   9.555  2.1504  0.6611 -0.9007
   42CHL1   C15 5532   1.720   5.278   9.436 -0.3122 -1.0450 -0.4970
   42CHL1  H15A 5533   1.718   5.383   9.398  0.2695 -1.2972 -1.2361
   42CHL1  H15B 5534   1.815   5.277   9.493  0.3697  2.0631 -1.3755
   42CHL1   C16 5535   1.722   5.183   9.319 -0.6840 -0.3810  0.3954
   42CHL1  H16A 5536   1.735   5.233   9.220 -0.5196 -1.3965 -0.1089
   42CHL1  H16B 5537   1.794   5.098   9.320  0.4098  0.5018 -0.5160
   42CHL1   C17 5538   1.574   5.122   9.315 -0.1120 -0.6052  0.3678
   42CHL1   H17 5539   1.577   5.025   9.370  0.2590 -0.9923 -0.3124
   42CHL1   C13 5540   1.487   5.221   9.394 -0.0651 -0.7076 -0.5728
   42CHL1   C18 5541   1.453   5.347   9.318  0.5283  0.1855  0.5757
   42CHL1  H18A 5542   1.401   5.424   9.379 -0.3819 -2.1901  2.9687
   42CHL1  H18B 5543   1.546   5.392   9.276  0.7308 -1.8343 -1.3887
   42CHL1  H18C 5544   1.398   5.324   9.224  0.4084  3.0254 -0.1529
   42CHL1   C12 5545   1.363   5.169   9.467 -1.1651 -0.0170  0.2720
   42CHL1  H12A 5546   1.286   5.158   9.388 -0.5371  0.4898 -0.4251
   42CHL1  H12B 5547   1.385   5.071   9.515  1.3659 -0.0846 -0.8226
   42CHL1   C11 5548   1.301   5.258   9.575  0.1015  0.0575  0.3307
   42CHL1  H11A 5549   1.243   5.329   9.512  1.0748 -0.9437 -1.8132
   42CHL1  H11B 5550   1.226   5.192   9.623 -1.1001  0.1208 -1.3627
   42CHL1    C9 5551   1.405   5.314   9.677  0.1614 -0.3541 -0.2566
   42CHL1    H9 5552   1.430   5.228   9.742  1.0100  1.3832  1.8460
   42CHL1   C10 5553   1.350   5.424   9.771 -0.5559  0.4897 -0.3045
   42CHL1   C19 5554   1.276   5.533   9.691  0.0178  0.1492 -0.3744
   42CHL1  H19A 5555   1.173   5.497   9.670 -0.6169  0.8153  1.4206
   42CHL1  H19B 5556   1.271   5.624   9.755 -1.8128  1.5525 -2.3647
   42CHL1  H19C 5557   1.332   5.542   9.596 -0.8714 -1.3764 -1.0922
   42CHL1    C1 5558   1.237   5.363   9.862  0.1612 -0.0384  0.3253
   42CHL1   H1A 5559   1.143   5.332   9.811 -0.1761  1.1378  0.2240
   42CHL1   H1B 5560   1.280   5.274   9.913 -0.7893  1.1593  3.4052
   42CHL1    C2 5561   1.197   5.458   9.977  0.5512 -0.0173  0.4372
   42CHL1   H2A 5562   1.114   5.408  10.030  1.2306 -0.1404  1.4239
   42CHL1   H2B 5563   1.149   5.548   9.932  0.2611 -0.2515  0.2833
   42CHL1   C20 5564   1.527   5.088   9.175 -0.1875 -0.2669  0.3786
   42CHL1   H20 5565   1.511   5.179   9.114  4.3559  2.2533  2.3993
   42CHL1   C21 5566   1.405   4.991   9.185 -0.0002 -0.6924 -0.3973
   42CHL1  H21A 5567   1.329   5.028   9.257 -1.1896 -1.8599 -1.0185
   42CHL1  H21B 5568   1.429   4.891   9.226 -2.6855 -1.8257 -1.3830
   42CHL1  H21C 5569   1.347   4.988   9.090 -2.7943  1.5723  1.0629
   42CHL1   C22 5570   1.639   5.009   9.099 -0.5586  0.0897 -0.2755
   42CHL1  H22A 5571   1.717   5.080   9.063 -1.7232  3.0223  2.5202
   42CHL1  H22B 5572   1.695   4.931   9.156 -0.4786 -0.2593 -0.8205
   42CHL1   C23 5573   1.606   4.959   8.960  0.7497  0.0040  0.1532
   42CHL1  H23A 5574   1.528   4.880   8.966  0.7225 -0.1642 -1.7542
   42CHL1  H23B 5575   1.556   5.034   8.894 -0.1888 -0.5445  0.2274
   42CHL1   C24 5576   1.735   4.926   8.878  0.1091 -0.7065 -0.1260
   42CHL1  H24A 5577   1.812   5.006   8.882  0.7778 -1.3825  2.3441
   42CHL1  H24B 5578   1.792   4.844   8.925  1.2856  0.0758 -0.1574
   42CHL1   C25 5579   1.705   4.875   8.735  0.2114  0.0745 -0.1947
   42CHL1   H25 5580   1.654   4.960   8.683  0.5271 -0.5861 -1.6538
   42CHL1   C26 5581   1.839   4.844   8.658 -0.2687 -0.0582 -0.4386
   42CHL1  H26A 5582   1.898   4.937   8.647 -0.1665  0.1831  1.6956
   42CHL1  H26B 5583   1.896   4.764   8.710 -2.0176 -0.6217  0.7185
   42CHL1  H26C 5584   1.809   4.799   8.561  0.5089  0.0863 -0.7557
   42CHL1   C27 5585   1.609   4.753   8.737  0.8096  0.6028 -0.0521
   42CHL1  H27A 5586   1.539   4.759   8.822  0.1357 -3.7668 -0.0907
   42CHL1  H27B 5587   1.555   4.747   8.640  0.8756  1.3573 -0.1450
   42CHL1  H27C 5588   1.671   4.663   8.758  1.9425  1.1933 -0.7785
   43CHL1    C3 5589   2.404   3.925  10.213 -0.7612  0.7664  0.5730
   43CHL1    H3 5590   2.498   3.978  10.187 -0.8482  0.4790 -0.3450
   43CHL1    O3 5591   2.364   3.977  10.335  0.2099 -0.2362 -0.5959
   43CHL1   H3' 5592   2.315   3.909  10.382 -1.2145  1.2419  0.1827
   43CHL1    C4 5593   2.290   3.936  10.118  0.4184 -0.3573 -0.0704
   43CHL1   H4A 5594   2.201   3.884  10.159 -0.0409 -0.0555 -0.6696
   43CHL1   H4B 5595   2.268   4.045  10.115  0.1525 -0.3653  1.2747
   43CHL1    C5 5596   2.315   3.872   9.981 -0.0935 -0.6955  0.0687
   43CHL1    C6 5597   2.309   3.940   9.869 -0.2283 -0.5982  0.1473
   43CHL1    H6 5598   2.265   4.041   9.879 -1.8498 -1.3355  0.8357
   43CHL1    C7 5599   2.338   3.892   9.734 -1.0138 -0.5295 -1.2752
   43CHL1   H7A 5600   2.276   3.942   9.657 -1.3864  2.0737  0.6020
   43CHL1   H7B 5601   2.444   3.919   9.711 -0.9001 -0.4771 -0.7045
   43CHL1    C8 5602   2.324   3.740   9.722  0.5753 -0.2233  1.3574
   43CHL1    H8 5603   2.217   3.709   9.727  0.5978 -0.6507 -0.3449
   43CHL1   C14 5604   2.381   3.693   9.593  0.4447 -0.2734 -0.3890
   43CHL1   H14 5605   2.491   3.703   9.600  0.2117  1.6948  2.0762
   43CHL1   C15 5606   2.340   3.749   9.457 -0.1015 -0.0955 -0.1882
   43CHL1  H15A 5607   2.230   3.760   9.459 -0.0132  1.2988  3.0283
   43CHL1  H15B 5608   2.372   3.855   9.441 -2.4726  0.8174  0.6992
   43CHL1   C16 5609   2.397   3.658   9.354  0.2338  0.0410  0.2582
   43CHL1  H16A 5610   2.321   3.633   9.277 -0.1386 -0.1582  0.6848
   43CHL1  H16B 5611   2.492   3.688   9.305 -0.7784 -0.6299 -2.2915
   43CHL1   C17 5612   2.435   3.529   9.429  0.1617 -0.0894  0.5536
   43CHL1   H17 5613   2.545   3.525   9.435  0.3301 -0.3664 -1.7699
   43CHL1   C13 5614   2.369   3.543   9.572 -0.4379  0.3040  0.3768
   43CHL1   C18 5615   2.222   3.493   9.567  0.2472 -0.2084  0.1641
   43CHL1  H18A 5616   2.173   3.531   9.475 -1.0051 -1.7232  0.1757
   43CHL1  H18B 5617   2.227   3.383   9.555  0.2096 -0.2666  0.6498
   43CHL1  H18C 5618   2.157   3.515   9.654 -1.4077 -0.5821 -0.9327
   43CHL1   C12 5619   2.440   3.469   9.688 -0.1856 -0.0058 -0.2163
   43CHL1  H12A 5620   2.416   3.360   9.686 -1.5407  0.2457  0.6590
   43CHL1  H12B 5621   2.548   3.493   9.675 -0.0069 -1.4956 -1.7556
   43CHL1   C11 5622   2.396   3.521   9.828 -0.0557 -0.3960 -0.1724
   43CHL1  H11A 5623   2.294   3.479   9.827 -0.2788  0.1350 -0.9003
   43CHL1  H11B 5624   2.452   3.470   9.909 -1.5622  0.1874  1.2742
   43CHL1    C9 5625   2.396   3.672   9.843  0.0477  0.2124  0.2303
   43CHL1    H9 5626   2.504   3.696   9.838  0.0536  0.4231  1.1742
   43CHL1   C10 5627   2.352   3.720   9.982 -0.1815  1.0676 -0.9224
   43CHL1   C19 5628   2.232   3.639  10.018  0.1144 -0.4216 -1.0924
   43CHL1  H19A 5629   2.171   3.683  10.100  0.1275 -0.9978 -0.7661
   43CHL1  H19B 5630   2.165   3.629   9.929  1.2016  0.4930 -2.0447
   43CHL1  H19C 5631   2.262   3.539  10.056 -1.1780 -0.3731  0.1589
   43CHL1    C1 5632   2.463   3.707  10.093 -0.0971 -0.4969 -0.0990
   43CHL1   H1A 5633   2.478   3.598  10.112  0.0751 -0.6665 -1.1262
   43CHL1   H1B 5634   2.557   3.749  10.053 -1.1075  2.0225  0.0184
   43CHL1    C2 5635   2.431   3.771  10.229  0.2169 -0.7903  0.7949
   43CHL1   H2A 5636   2.510   3.756  10.306  0.1539 -2.3680  0.5929
   43CHL1   H2B 5637   2.332   3.742  10.270 -0.8945  2.1940  0.5004
   43CHL1   C20 5638   2.404   3.403   9.344  0.4556  0.0667 -0.8956
   43CHL1   H20 5639   2.296   3.403   9.319  0.0745  2.0732  0.5502
   43CHL1   C21 5640   2.458   3.280   9.422 -0.3070  0.0330 -0.0561
   43CHL1  H21A 5641   2.563   3.302   9.451 -0.4237 -1.1039  1.3488
   43CHL1  H21B 5642   2.457   3.184   9.366  0.1121 -1.2524  2.0481
   43CHL1  H21C 5643   2.391   3.255   9.506 -0.5847 -0.3731 -0.3916
   43CHL1   C22 5644   2.475   3.408   9.200  0.0126 -0.4171 -0.1054
   43CHL1  H22A 5645   2.424   3.490   9.144  0.6181 -0.2902 -0.4746
   43CHL1  H22B 5646   2.583   3.431   9.206  0.2766 -1.0319 -1.9971
   43CHL1   C23 5647   2.457   3.286   9.108  0.4456  0.3198 -0.4079
   43CHL1  H23A 5648   2.520   3.207   9.155  2.1375  0.5999 -2.0888
   43CHL1  H23B 5649   2.352   3.252   9.100  0.6241 -0.4165  0.1828
   43CHL1   C24 5650   2.495   3.306   8.966  1.1856 -0.8545  0.1415
   43CHL1  H24A 5651   2.454   3.397   8.917 -0.6815 -0.7879  1.7385
   43CHL1  H24B 5652   2.606   3.305   8.972  1.2679 -2.4110 -1.0280
   43CHL1   C25 5653   2.443   3.199   8.867  0.3354  0.3203 -0.3373
   43CHL1   H25 5654   2.463   3.102   8.917  1.6059 -0.2963 -1.9576
   43CHL1   C26 5655   2.295   3.201   8.852  0.0705 -0.0841  0.0951
   43CHL1  H26A 5656   2.245   3.177   8.949  2.3049 -1.4161  0.9751
   43CHL1  H26B 5657   2.266   3.302   8.814  1.0560  0.6214  1.1694
   43CHL1  H26C 5658   2.259   3.120   8.786 -0.7722 -0.1561  0.6141
   43CHL1   C27 5659   2.511   3.216   8.733  0.1951 -0.4238  0.1550
   43CHL1  H27A 5660   2.476   3.316   8.699 -3.1116 -1.9497 -1.3835
   43CHL1  H27B 5661   2.620   3.198   8.741  0.3646 -0.2285 -1.4353
   43CHL1  H27C 5662   2.468   3.144   8.661  2.5521 -1.3867 -0.3750
   44CHL1    C3 5663   2.487   5.456  10.068 -0.2907 -0.0013 -0.6399
   44CHL1    H3 5664   2.443   5.360  10.101 -0.5786  1.2305  2.9365
   44CHL1    O3 5665   2.469   5.539  10.178  0.7964  0.3940 -0.1717
   44CHL1   H3' 5666   2.377   5.527  10.204  1.3681 -0.9936  1.4082
   44CHL1    C4 5667   2.645   5.443  10.049  0.8162 -0.5824 -0.5700
   44CHL1   H4A 5668   2.681   5.547  10.051 -2.7694  0.7970  0.6066
   44CHL1   H4B 5669   2.681   5.395  10.142 -0.1201  1.9812  1.2142
   44CHL1    C5 5670   2.678   5.375   9.921 -0.0497  0.1265 -0.7034
   44CHL1    C6 5671   2.754   5.270   9.914  0.0600 -0.4508  0.2468
   44CHL1    H6 5672   2.815   5.253  10.004  0.6274  0.3378  0.0260
   44CHL1    C7 5673   2.799   5.209   9.784 -0.4330  0.6673 -0.3636
   44CHL1   H7A 5674   2.910   5.202   9.791 -0.5755 -0.2198  2.1940
   44CHL1   H7B 5675   2.755   5.107   9.784 -1.1070  0.7710  4.0353
   44CHL1    C8 5676   2.758   5.296   9.662  0.0609  0.1090  0.7666
   44CHL1    H8 5677   2.830   5.381   9.656  0.1427  0.0021  0.2459
   44CHL1   C14 5678   2.768   5.216   9.530  0.2817 -0.7657  0.1739
   44CHL1   H14 5679   2.691   5.138   9.545 -2.1970  1.4264 -0.5793
   44CHL1   C15 5680   2.901   5.144   9.498 -0.1883  0.1814 -0.4098
   44CHL1  H15A 5681   2.991   5.209   9.511  1.1994 -1.7915  0.2452
   44CHL1  H15B 5682   2.915   5.071   9.580 -0.7634 -0.2282 -0.6700
   44CHL1   C16 5683   2.882   5.109   9.353 -0.9652 -0.4985 -0.4339
   44CHL1  H16A 5684   2.961   5.151   9.288  2.7930 -2.3041  2.5768
   44CHL1  H16B 5685   2.877   5.002   9.324  2.2507 -0.5966 -0.9277
   44CHL1   C17 5686   2.753   5.175   9.300  0.4750 -0.1171  0.1548
   44CHL1   H17 5687   2.673   5.100   9.315 -0.8833  0.9922 -1.2058
   44CHL1   C13 5688   2.726   5.283   9.403 -0.5383  0.3321  0.0777
   44CHL1   C18 5689   2.814   5.410   9.376 -0.0769 -0.4082 -0.7376
   44CHL1  H18A 5690   2.791   5.453   9.277  0.7777  0.6016 -0.5203
   44CHL1  H18B 5691   2.795   5.499   9.439 -0.5377 -1.1793  0.2470
   44CHL1  H18C 5692   2.920   5.376   9.366  0.0928  0.4508 -2.1294
   44CHL1   C12 5693   2.581   5.330   9.425 -0.5615  0.4494 -0.3973
   44CHL1  H12A 5694   2.553   5.392   9.337 -1.8243 -0.5312 -0.7134
   44CHL1  H12B 5695   2.511   5.244   9.424 -0.1225  0.0720  0.3893
   44CHL1   C11 5696   2.553   5.411   9.549 -0.5759 -0.4148 -0.0481
   44CHL1  H11A 5697   2.588   5.516   9.536 -0.3284 -0.4271  0.5225
   44CHL1  H11B 5698   2.444   5.419   9.568 -0.4073 -0.2838  0.8793
   44CHL1    C9 5699   2.619   5.353   9.674 -0.0410 -0.2972 -0.0152
   44CHL1    H9 5700   2.557   5.260   9.682 -0.4843  0.0139  0.2474
   44CHL1   C10 5701   2.599   5.434   9.805 -0.2730 -0.6290  0.3757
   44CHL1   C19 5702   2.664   5.573   9.796  0.5862 -0.1520  0.3853
   44CHL1  H19A 5703   2.773   5.576   9.775 -0.0160 -0.7748 -3.6164
   44CHL1  H19B 5704   2.611   5.628   9.715  0.3446  0.1688  0.7590
   44CHL1  H19C 5705   2.638   5.636   9.883 -1.7007 -0.0962 -0.2904
   44CHL1    C1 5706   2.443   5.449   9.826  0.6050  0.8559 -0.2539
   44CHL1   H1A 5707   2.407   5.521   9.748  0.4877 -0.3557 -1.3539
   44CHL1   H1B 5708   2.387   5.355   9.804 -1.3420  1.9592 -0.3153
   44CHL1    C2 5709   2.403   5.516   9.950 -0.0937  0.2611 -0.0687
   44CHL1   H2A 5710   2.294   5.523   9.974 -0.1974  1.2820 -0.7773
   44CHL1   H2B 5711   2.434   5.622   9.944  1.7361 -0.2575 -0.3385
   44CHL1   C20 5712   2.759   5.206   9.142  0.2208 -0.4599 -0.6224
   44CHL1   H20 5713   2.843   5.277   9.130  0.3567 -0.8493 -2.0706
   44CHL1   C21 5714   2.638   5.291   9.089  0.1774  0.1030  0.2530
   44CHL1  H21A 5715   2.646   5.391   9.136 -1.8488 -0.1496  1.2395
   44CHL1  H21B 5716   2.541   5.244   9.115 -0.1771  0.5280 -0.2837
   44CHL1  H21C 5717   2.638   5.300   8.978 -1.9552 -0.7144  0.1315
   44CHL1   C22 5718   2.774   5.071   9.063  0.0376 -1.0187 -0.3572
   44CHL1  H22A 5719   2.859   5.017   9.109 -0.2023 -1.7630 -0.7796
   44CHL1  H22B 5720   2.690   5.006   9.097 -0.5287 -0.2045 -0.1412
   44CHL1   C23 5721   2.776   5.087   8.910  0.2289 -0.4117 -0.6313
   44CHL1  H23A 5722   2.686   5.146   8.885  0.7211  1.0083  0.7550
   44CHL1  H23B 5723   2.861   5.156   8.889  0.9154 -1.3234 -0.9151
   44CHL1   C24 5724   2.780   4.953   8.832  0.3454  0.5465  0.0470
   44CHL1  H24A 5725   2.876   4.905   8.861  1.1204  3.2164  2.3946
   44CHL1  H24B 5726   2.692   4.888   8.849 -0.3833  0.7342 -2.6848
   44CHL1   C25 5727   2.785   4.967   8.673 -0.2531 -0.3256 -0.8267
   44CHL1   H25 5728   2.693   5.022   8.644 -0.7359 -1.5300 -1.6893
   44CHL1   C26 5729   2.904   5.048   8.630  0.4327  0.0805 -0.4934
   44CHL1  H26A 5730   2.904   5.067   8.521  1.0263 -3.4351 -1.2208
   44CHL1  H26B 5731   2.885   5.143   8.685 -1.9855 -0.8137  0.3321
   44CHL1  H26C 5732   3.002   5.000   8.651  0.6976  0.4163 -0.9620
   44CHL1   C27 5733   2.793   4.838   8.596 -0.7400  0.5951  0.3080
   44CHL1  H27A 5734   2.852   4.774   8.665  0.2851  0.7457 -0.4121
   44CHL1  H27B 5735   2.694   4.790   8.581 -1.1685  1.1506  1.2837
   44CHL1  H27C 5736   2.837   4.863   8.497  0.0459 -0.7617  0.2881
   45CHL1    C3 5737   4.746   6.131  10.007 -0.3170  0.4451  0.2162
   45CHL1    H3 5738   4.846   6.084  10.017 -0.0885  0.4340 -1.6695
   45CHL1    O3 5739   4.697   6.162  10.128 -0.5933  0.0567 -0.9563
   45CHL1   H3' 5740   4.669   6.081  10.172  0.5016  0.5424  0.7300
   45CHL1    C4 5741   4.756   6.264   9.931  0.1231  0.5455 -0.6359
   45CHL1   H4A 5742   4.658   6.314   9.917  0.3167  0.8968 -0.7240
   45CHL1   H4B 5743   4.820   6.327   9.997 -1.7709 -0.3308  2.2060
   45CHL1    C5 5744   4.815   6.239   9.793 -0.5686 -0.4328  0.6839
   45CHL1    C6 5745   4.919   6.299   9.752 -0.0178 -0.1569  0.6289
   45CHL1    H6 5746   4.977   6.360   9.822  0.3981  0.8534 -0.5514
   45CHL1    C7 5747   4.966   6.281   9.607 -0.7405  0.3534 -0.9726
   45CHL1   H7A 5748   4.949   6.385   9.570 -2.4425  0.5628  0.2794
   45CHL1   H7B 5749   5.077   6.281   9.609 -0.7189 -1.4020  0.4262
   45CHL1    C8 5750   4.902   6.184   9.507  0.6663  0.4461  0.8520
   45CHL1    H8 5751   4.986   6.124   9.463  0.2487  2.9242 -4.0534
   45CHL1   C14 5752   4.850   6.256   9.378 -0.1729 -0.1303 -0.8332
   45CHL1   H14 5753   4.754   6.308   9.397 -1.0846 -2.6905  2.6413
   45CHL1   C15 5754   4.962   6.342   9.319 -0.3250 -0.1684  0.5441
   45CHL1  H15A 5755   4.944   6.450   9.337 -0.5008  0.0842 -0.9698
   45CHL1  H15B 5756   5.058   6.312   9.366 -0.9126 -0.8371  1.3424
   45CHL1   C16 5757   4.967   6.302   9.170 -0.5329  1.0482 -0.9948
   45CHL1  H16A 5758   4.886   6.352   9.111 -2.4770 -1.2497 -0.4120
   45CHL1  H16B 5759   5.070   6.303   9.129  0.2967 -2.2888  0.7137
   45CHL1   C17 5760   4.917   6.150   9.177 -0.1738  0.2314  0.0454
   45CHL1   H17 5761   4.999   6.088   9.218 -2.5541 -1.3589  2.7009
   45CHL1   C13 5762   4.798   6.154   9.274  0.2790  0.2011 -0.1422
   45CHL1   C18 5763   4.666   6.213   9.222 -0.5344 -0.6239  0.4495
   45CHL1  H18A 5764   4.685   6.316   9.186 -0.8298 -1.0470 -0.9649
   45CHL1  H18B 5765   4.622   6.169   9.130 -0.6859 -0.4089  0.4177
   45CHL1  H18C 5766   4.583   6.221   9.295 -1.5734 -0.6387 -0.6906
   45CHL1   C12 5767   4.779   6.008   9.329 -0.3237  0.3581 -0.2546
   45CHL1  H12A 5768   4.708   5.957   9.260 -0.4612  0.1796  0.0130
   45CHL1  H12B 5769   4.875   5.951   9.327 -0.6867 -0.3335  0.8095
   45CHL1   C11 5770   4.715   6.007   9.474  0.5027 -0.3305  0.3344
   45CHL1  H11A 5771   4.622   6.066   9.457  1.2520  1.2992  1.6074
   45CHL1  H11B 5772   4.691   5.906   9.513  0.7380 -0.4796  0.0975
   45CHL1    C9 5773   4.802   6.091   9.577 -0.1873  1.2632  0.4723
   45CHL1    H9 5774   4.865   6.011   9.624 -0.8530  1.1373  1.1781
   45CHL1   C10 5775   4.722   6.144   9.704  0.9918 -0.1189 -0.7817
   45CHL1   C19 5776   4.605   6.236   9.653  0.3599 -0.2113  0.1919
   45CHL1  H19A 5777   4.646   6.312   9.583  0.4507  1.6897  2.2261
   45CHL1  H19B 5778   4.528   6.173   9.602 -0.9488  1.5761 -0.1248
   45CHL1  H19C 5779   4.562   6.293   9.738  1.2090  0.1395  0.3858
   45CHL1    C1 5780   4.675   6.016   9.781 -0.1880  0.1407  0.3221
   45CHL1   H1A 5781   4.589   5.977   9.723  0.2159  0.1310 -0.2778
   45CHL1   H1B 5782   4.754   5.939   9.783 -0.4610 -0.1312  0.6410
   45CHL1    C2 5783   4.645   6.035   9.926 -0.4554 -1.2011 -0.4256
   45CHL1   H2A 5784   4.628   5.939   9.978  0.8795 -2.2844 -1.9187
   45CHL1   H2B 5785   4.545   6.078   9.949 -1.2689 -3.1613 -0.1552
   45CHL1   C20 5786   4.881   6.088   9.042 -0.3140  1.0962 -0.4143
   45CHL1   H20 5787   4.783   6.036   9.052  0.0625  0.3341 -0.5987
   45CHL1   C21 5788   5.002   5.990   9.013 -0.1840 -0.4410  0.1229
   45CHL1  H21A 5789   4.989   5.942   8.914  0.4726  0.2396 -0.3114
   45CHL1  H21B 5790   5.019   5.915   9.093 -0.2272 -0.5998 -0.0176
   45CHL1  H21C 5791   5.089   6.059   8.998 -2.8648  3.4625  1.0242
   45CHL1   C22 5792   4.855   6.184   8.919 -0.5503 -0.6248 -0.0120
   45CHL1  H22A 5793   4.777   6.256   8.951 -0.5653 -0.3477 -0.6410
   45CHL1  H22B 5794   4.952   6.238   8.912 -0.3555 -1.0355 -0.6174
   45CHL1   C23 5795   4.812   6.115   8.794  0.1337 -0.3748 -0.1724
   45CHL1  H23A 5796   4.901   6.069   8.745  0.6538 -0.4023  0.7790
   45CHL1  H23B 5797   4.740   6.034   8.819  1.1101 -0.4825  2.5704
   45CHL1   C24 5798   4.755   6.217   8.694 -0.1840 -0.1936  0.6296
   45CHL1  H24A 5799   4.688   6.286   8.748  1.3989  1.3684  0.7137
   45CHL1  H24B 5800   4.841   6.279   8.659 -2.2044  0.9956 -2.6675
   45CHL1   C25 5801   4.691   6.156   8.568 -0.1727  0.3480  0.1262
   45CHL1   H25 5802   4.602   6.095   8.594 -0.4275  0.7272  0.1603
   45CHL1   C26 5803   4.644   6.273   8.479 -0.1353  0.3357  0.1435
   45CHL1  H26A 5804   4.735   6.329   8.450  0.7633 -0.6539  0.9679
   45CHL1  H26B 5805   4.589   6.233   8.391  1.2073 -1.8169  0.1909
   45CHL1  H26C 5806   4.568   6.330   8.537  0.2823  0.1454  0.8867
   45CHL1   C27 5807   4.793   6.063   8.493 -0.6704  0.1219 -0.3264
   45CHL1  H27A 5808   4.891   6.112   8.474 -0.1335 -0.4430  0.8679
   45CHL1  H27B 5809   4.816   5.968   8.545  1.3538  0.2337 -0.9512
   45CHL1  H27C 5810   4.756   6.038   8.391  1.2939 -2.6030 -0.4538
   46CHL1    C3 5811   0.558   0.696   9.977  1.2592  0.5272  0.1088
   46CHL1    H3 5812   0.604   0.795   9.956 -0.1726  0.7432 -2.3359
   46CHL1    O3 5813   0.545   0.695  10.116  0.3728 -0.3380 -0.9992
   46CHL1   H3' 5814   0.492   0.618  10.139 -0.6658  0.2901 -1.2078
   46CHL1    C4 5815   0.424   0.712   9.906  0.5461 -0.5774  0.2500
   46CHL1   H4A 5816   0.355   0.626   9.921 -2.1623  1.2237 -1.1955
   46CHL1   H4B 5817   0.371   0.798   9.950  1.0605 -0.5738  0.8810
   46CHL1    C5 5818   0.441   0.719   9.752 -0.0410  0.4155  0.1113
   46CHL1    C6 5819   0.380   0.809   9.686  0.2194 -0.9737  0.8008
   46CHL1    H6 5820   0.314   0.878   9.740  1.3180  2.1511 -1.5812
   46CHL1    C7 5821   0.384   0.818   9.536 -0.5448  0.6290 -0.4264
   46CHL1   H7A 5822   0.280   0.843   9.504 -0.1176  1.3432 -1.2711
   46CHL1   H7B 5823   0.444   0.906   9.506  0.7642 -0.0107  0.2386
   46CHL1    C8 5824   0.446   0.687   9.474  0.3402  0.5140  0.1679
   46CHL1    H8 5825   0.373   0.604   9.460 -0.8207  1.7786 -1.8730
   46CHL1   C14 5826   0.498   0.730   9.328  0.2039 -0.2377 -0.4789
   46CHL1   H14 5827   0.574   0.809   9.346  0.2852  0.0713 -2.0391
   46CHL1   C15 5828   0.387   0.794   9.239 -0.1653  0.0307 -0.5847
   46CHL1  H15A 5829   0.298   0.729   9.251 -0.3374 -0.0825 -2.1903
   46CHL1  H15B 5830   0.346   0.896   9.254 -3.1693 -1.0433 -0.9180
   46CHL1   C16 5831   0.451   0.781   9.102 -0.2769  0.6514  0.5943
   46CHL1  H16A 5832   0.375   0.725   9.044  1.6725 -0.8567 -0.6171
   46CHL1  H16B 5833   0.463   0.885   9.063 -0.2537  0.3139 -0.3341
   46CHL1   C17 5834   0.584   0.699   9.117 -0.1905  0.7872  0.2775
   46CHL1   H17 5835   0.657   0.782   9.129 -1.1820  1.9104 -1.0594
   46CHL1   C13 5836   0.571   0.626   9.246 -0.3888 -0.0075 -0.1128
   46CHL1   C18 5837   0.481   0.501   9.214  0.1589  0.0905 -0.5797
   46CHL1  H18A 5838   0.432   0.462   9.306 -0.7947 -0.7658 -1.4229
   46CHL1  H18B 5839   0.399   0.533   9.146 -0.0224 -0.6486 -0.7102
   46CHL1  H18C 5840   0.541   0.425   9.161 -0.2799 -1.2343  0.7567
   46CHL1   C12 5841   0.697   0.586   9.326 -0.4971 -0.5221 -0.1476
   46CHL1  H12A 5842   0.743   0.502   9.269 -1.5184 -0.3396 -1.2916
   46CHL1  H12B 5843   0.770   0.669   9.330 -0.0861 -0.8678 -0.3470
   46CHL1   C11 5844   0.656   0.538   9.466 -0.1661  0.5508 -0.4697
   46CHL1  H11A 5845   0.583   0.457   9.443  1.4306 -0.5922 -1.7961
   46CHL1  H11B 5846   0.744   0.495   9.520  1.3365  2.2515 -1.4483
   46CHL1    C9 5847   0.573   0.641   9.554 -0.3774  0.1893  0.3736
   46CHL1    H9 5848   0.640   0.729   9.565 -0.3934  0.2891 -0.3081
   46CHL1   C10 5849   0.534   0.612   9.689 -0.0635  0.4324 -0.9660
   46CHL1   C19 5850   0.465   0.472   9.694 -0.9046  0.1958  0.0876
   46CHL1  H19A 5851   0.368   0.475   9.641  0.0063 -1.2242 -1.7954
   46CHL1  H19B 5852   0.519   0.389   9.643 -2.0942 -1.6268  1.6219
   46CHL1  H19C 5853   0.443   0.440   9.798  0.7820 -0.3078  0.3236
   46CHL1    C1 5854   0.662   0.584   9.773 -0.7549  0.0833  1.0342
   46CHL1   H1A 5855   0.710   0.489   9.738  0.6211  0.8350  0.8133
   46CHL1   H1B 5856   0.739   0.661   9.751 -3.0697  1.7714 -2.0438
   46CHL1    C2 5857   0.626   0.573   9.923  0.2592  0.3861  0.0255
   46CHL1   H2A 5858   0.726   0.559   9.968 -0.6762 -3.5163  1.3476
   46CHL1   H2B 5859   0.563   0.483   9.944  0.0567  0.6353  0.4899
   46CHL1   C20 5860   0.629   0.628   8.985 -0.1094 -0.5343  0.1740
   46CHL1   H20 5861   0.584   0.527   8.988  0.9663 -1.0958 -1.5868
   46CHL1   C21 5862   0.783   0.613   8.985  0.0915  0.6241  0.1118
   46CHL1  H21A 5863   0.808   0.562   8.889 -0.7526 -0.6762  0.5713
   46CHL1  H21B 5864   0.806   0.541   9.066 -1.8707  1.7814  1.7748
   46CHL1  H21C 5865   0.840   0.708   8.995  1.9664  0.0836 -3.5972
   46CHL1   C22 5866   0.582   0.692   8.848 -0.6282  0.0370  0.0543
   46CHL1  H22A 5867   0.554   0.798   8.863 -1.8626 -0.3511  0.7090
   46CHL1  H22B 5868   0.670   0.686   8.780  1.7080  1.6374  2.7440
   46CHL1   C23 5869   0.456   0.627   8.787  0.3820 -0.1222  0.2194
   46CHL1  H23A 5870   0.474   0.518   8.774 -1.1855 -0.2240 -1.7307
   46CHL1  H23B 5871   0.368   0.655   8.849 -1.2301 -1.2743 -1.4345
   46CHL1   C24 5872   0.446   0.674   8.640 -0.5542 -0.7091 -0.1488
   46CHL1  H24A 5873   0.454   0.785   8.635 -0.3186 -0.7677 -1.2528
   46CHL1  H24B 5874   0.521   0.619   8.580 -1.0348  0.5831 -2.0336
   46CHL1   C25 5875   0.310   0.644   8.573  0.0593 -0.3843 -0.0315
   46CHL1   H25 5876   0.230   0.714   8.606 -0.9769 -0.7431 -1.7111
   46CHL1   C26 5877   0.330   0.661   8.424 -0.2894  0.3845 -0.2063
   46CHL1  H26A 5878   0.363   0.767   8.413  0.7335  0.2778  1.4109
   46CHL1  H26B 5879   0.396   0.590   8.370 -0.8606 -0.8666  0.6991
   46CHL1  H26C 5880   0.229   0.636   8.387 -0.5035  0.8850  0.0307
   46CHL1   C27 5881   0.259   0.506   8.595  0.1751 -0.0616  0.2077
   46CHL1  H27A 5882   0.246   0.471   8.700 -1.3988 -1.1993 -0.3304
   46CHL1  H27B 5883   0.164   0.494   8.539  0.6385 -0.4750 -0.5050
   46CHL1  H27C 5884   0.334   0.435   8.553  0.5282  0.6328 -0.3533
   47CHL1    C3 5885   3.175   3.586   9.986 -0.1413 -0.1033  0.4004
   47CHL1    H3 5886   3.070   3.582   9.949  0.7754  0.5425 -2.5377
   47CHL1    O3 5887   3.195   3.596  10.129 -0.0306  0.1272  0.0686
   47CHL1   H3' 5888   3.265   3.660  10.145  1.7948 -1.1242 -2.2785
   47CHL1    C4 5889   3.251   3.459   9.929  0.2524 -0.1815  0.1121
   47CHL1   H4A 5890   3.358   3.447   9.959  0.1691  1.0554  0.9831
   47CHL1   H4B 5891   3.201   3.369   9.970  0.6089 -0.9795 -1.1469
   47CHL1    C5 5892   3.245   3.460   9.775 -0.5254  0.3625  0.6607
   47CHL1    C6 5893   3.198   3.354   9.706 -0.0156 -0.6915  0.2473
   47CHL1    H6 5894   3.173   3.260   9.757  1.4330 -1.4559 -0.3887
   47CHL1    C7 5895   3.190   3.355   9.561 -0.3942 -0.0410 -0.9165
   47CHL1   H7A 5896   3.225   3.256   9.525  3.9588  1.0366 -0.2383
   47CHL1   H7B 5897   3.087   3.357   9.521 -0.7909  0.0111  0.0610
   47CHL1    C8 5898   3.286   3.454   9.484  0.1114  0.3624 -0.2541
   47CHL1    H8 5899   3.390   3.415   9.481  0.2366  0.7362 -1.3170
   47CHL1   C14 5900   3.243   3.464   9.334  0.4423  0.2510  0.4037
   47CHL1   H14 5901   3.137   3.498   9.333  0.1979  0.2696  4.9313
   47CHL1   C15 5902   3.240   3.331   9.260  0.4566  0.1919  0.4122
   47CHL1  H15A 5903   3.339   3.283   9.277  2.2156  3.7907  1.4652
   47CHL1  H15B 5904   3.151   3.273   9.293 -0.5883  1.1860 -0.5538
   47CHL1   C16 5905   3.245   3.374   9.114  0.2899  0.7198  1.2418
   47CHL1  H16A 5906   3.316   3.309   9.058  0.6749 -0.2137  2.7532
   47CHL1  H16B 5907   3.148   3.359   9.061  2.2528 -1.7086 -2.0953
   47CHL1   C17 5908   3.285   3.531   9.111  0.3340 -0.0790  0.0179
   47CHL1   H17 5909   3.188   3.580   9.090  1.3719  2.2108  0.3184
   47CHL1   C13 5910   3.328   3.567   9.261 -0.6893  0.5167 -0.6333
   47CHL1   C18 5911   3.482   3.525   9.265 -0.7507 -0.6073  0.5896
   47CHL1  H18A 5912   3.519   3.545   9.368  2.5872 -1.0944 -0.4269
   47CHL1  H18B 5913   3.507   3.423   9.231  0.3347 -0.2210  0.1997
   47CHL1  H18C 5914   3.538   3.591   9.196 -1.1334 -0.2938  0.5741
   47CHL1   C12 5915   3.301   3.699   9.329  0.3057 -0.5444 -0.0200
   47CHL1  H12A 5916   3.355   3.777   9.272  2.0989 -2.8209 -1.6089
   47CHL1  H12B 5917   3.191   3.715   9.322 -0.0281 -1.9628  1.3672
   47CHL1   C11 5918   3.333   3.707   9.471  0.0738 -0.0094 -0.4902
   47CHL1  H11A 5919   3.441   3.712   9.498 -0.4163  0.5289  1.5974
   47CHL1  H11B 5920   3.282   3.799   9.508 -0.5720 -0.5871  0.0739
   47CHL1    C9 5921   3.270   3.587   9.552 -0.0803  0.4348  0.2552
   47CHL1    H9 5922   3.162   3.613   9.542 -0.2924 -0.9851 -1.7418
   47CHL1   C10 5923   3.301   3.587   9.705 -0.5035  0.8189 -0.9753
   47CHL1   C19 5924   3.452   3.586   9.730 -0.4720 -0.6754 -0.5855
   47CHL1  H19A 5925   3.499   3.676   9.684 -0.9470  1.9639  3.5097
   47CHL1  H19B 5926   3.475   3.590   9.839  0.6635  2.7707 -0.8053
   47CHL1  H19C 5927   3.502   3.495   9.692  0.8817 -0.2548  0.1219
   47CHL1    C1 5928   3.237   3.710   9.773 -0.4163 -0.1231 -0.3302
   47CHL1   H1A 5929   3.301   3.798   9.747 -1.1347  0.0006 -1.8098
   47CHL1   H1B 5930   3.137   3.717   9.726 -0.2821  0.2430 -0.5720
   47CHL1    C2 5931   3.235   3.714   9.927 -0.1658  0.0491 -0.2935
   47CHL1   H2A 5932   3.189   3.811   9.956 -3.0845 -1.2803 -0.1238
   47CHL1   H2B 5933   3.340   3.722   9.963 -0.0774 -2.5946  0.2184
   47CHL1   C20 5934   3.375   3.580   8.997 -0.0330 -0.0616 -0.3579
   47CHL1   H20 5935   3.473   3.529   9.005  0.5887  1.3075  1.5489
   47CHL1   C21 5936   3.408   3.732   9.007  0.5179 -0.3237  0.5055
   47CHL1  H21A 5937   3.452   3.773   8.914 -0.6975  2.8938  1.2149
   47CHL1  H21B 5938   3.471   3.762   9.093 -1.7993  1.1025  1.8178
   47CHL1  H21C 5939   3.311   3.783   9.026  0.6607  0.1728 -0.0607
   47CHL1   C22 5940   3.316   3.536   8.866  0.8314  0.3393 -0.7655
   47CHL1  H22A 5941   3.316   3.426   8.851 -1.4957  0.1860  0.1016
   47CHL1  H22B 5942   3.216   3.575   8.837  1.1160  1.5778 -0.1196
   47CHL1   C23 5943   3.402   3.574   8.741  0.4069 -0.1682 -0.0803
   47CHL1  H23A 5944   3.352   3.529   8.652  1.2400 -1.6317  0.1527
   47CHL1  H23B 5945   3.406   3.684   8.732  0.1885  0.0245  1.7369
   47CHL1   C24 5946   3.553   3.523   8.741  1.1850  0.0133 -0.0060
   47CHL1  H24A 5947   3.606   3.579   8.820  1.0495  0.8861 -0.5191
   47CHL1  H24B 5948   3.560   3.414   8.765  1.8844  0.1276  0.3428
   47CHL1   C25 5949   3.638   3.553   8.611 -0.5497  0.2909 -0.6505
   47CHL1   H25 5950   3.743   3.543   8.646 -0.4408 -0.6571 -1.2367
   47CHL1   C26 5951   3.608   3.465   8.495 -0.2587  0.8535 -0.2314
   47CHL1  H26A 5952   3.630   3.358   8.511  0.9421  0.8358 -1.7740
   47CHL1  H26B 5953   3.660   3.492   8.400 -0.4782  1.6421 -0.1394
   47CHL1  H26C 5954   3.502   3.471   8.461 -1.0333  0.1612  1.9265
   47CHL1   C27 5955   3.641   3.696   8.569  0.3215 -0.8496 -0.0998
   47CHL1  H27A 5956   3.536   3.709   8.537  0.0025 -0.3504  1.0999
   47CHL1  H27B 5957   3.659   3.771   8.649 -1.2435 -1.4145  0.8145
   47CHL1  H27C 5958   3.714   3.702   8.485  3.0889 -1.7394  2.0745
   48CHL1    C3 5959   5.719   0.477  10.198 -0.1536  0.2978  0.2616
   48CHL1    H3 5960   5.619   0.511  10.161 -0.1643 -0.4156 -0.3822
   48CHL1    O3 5961   5.722   0.455  10.331 -0.2769 -0.1219  0.3636
   48CHL1   H3' 5962   5.800   0.402  10.348  1.4647  2.4053  0.7832
   48CHL1    C4 5963   5.756   0.352  10.128 -0.6556  0.6251 -0.5785
   48CHL1   H4A 5964   5.840   0.295  10.173  0.6215  1.1166 -2.2180
   48CHL1   H4B 5965   5.672   0.281  10.143  0.9626 -1.1243  0.6156
   48CHL1    C5 5966   5.781   0.366   9.984 -0.0437  0.5421  0.7023
   48CHL1    C6 5967   5.712   0.294   9.892 -0.7370  0.4950 -0.2362
   48CHL1    H6 5968   5.629   0.226   9.917  0.0608 -0.2264  0.5075
   48CHL1    C7 5969   5.730   0.304   9.743 -0.1948 -0.2102 -0.8288
   48CHL1   H7A 5970   5.741   0.202   9.700  0.3441 -0.7982  0.6257
   48CHL1   H7B 5971   5.634   0.346   9.705 -1.8185 -2.5961  0.3061
   48CHL1    C8 5972   5.849   0.390   9.708  0.4827 -0.5170 -0.1873
   48CHL1    H8 5973   5.939   0.325   9.707 -1.0912 -3.0754  3.4831
   48CHL1   C14 5974   5.844   0.444   9.559 -0.0409  0.3756 -0.0811
   48CHL1   H14 5975   5.760   0.516   9.568  0.9024  1.8237 -2.1697
   48CHL1   C15 5976   5.796   0.344   9.454  0.5308 -0.2677 -0.4680
   48CHL1  H15A 5977   5.845   0.246   9.471 -0.6928 -0.3675  3.3176
   48CHL1  H15B 5978   5.689   0.319   9.448  0.1120  0.2869  2.8359
   48CHL1   C16 5979   5.838   0.416   9.321 -0.3385  0.0193  0.4589
   48CHL1  H16A 5980   5.896   0.348   9.255 -1.6219 -0.6391 -0.0281
   48CHL1  H16B 5981   5.748   0.443   9.261 -0.1938 -0.6934 -0.0828
   48CHL1   C17 5982   5.902   0.552   9.357  0.1192  0.7341 -0.5015
   48CHL1   H17 5983   5.824   0.631   9.355  0.1104  0.7149 -1.0791
   48CHL1   C13 5984   5.957   0.529   9.502  0.0927 -1.0306  0.1949
   48CHL1   C18 5985   6.086   0.437   9.491 -0.3066  0.3640 -0.1053
   48CHL1  H18A 5986   6.155   0.500   9.431  0.9438  0.1201  1.0404
   48CHL1  H18B 5987   6.134   0.410   9.588  1.1859  0.8388 -0.6892
   48CHL1  H18C 5988   6.070   0.341   9.439  3.6199  0.0731 -1.0860
   48CHL1   C12 5989   5.976   0.652   9.599 -0.6561 -0.2434 -0.0874
   48CHL1  H12A 5990   6.063   0.719   9.582 -0.4153  0.4405  3.2236
   48CHL1  H12B 5991   5.882   0.711   9.600 -1.8041 -1.9735 -0.4591
   48CHL1   C11 5992   5.984   0.604   9.745  0.6533  0.4653 -0.4286
   48CHL1  H11A 5993   6.082   0.551   9.746  1.0348  1.1691  0.9096
   48CHL1  H11B 5994   5.974   0.693   9.810 -0.1547 -1.0573  1.6324
   48CHL1    C9 5995   5.872   0.507   9.794  0.3144 -0.0306  0.1920
   48CHL1    H9 5996   5.776   0.562   9.779  0.8216  0.6299 -0.6977
   48CHL1   C10 5997   5.882   0.480   9.947 -0.3172 -0.0802  0.6465
   48CHL1   C19 5998   6.026   0.438   9.973 -0.0927 -0.1105 -0.5823
   48CHL1  H19A 5999   6.038   0.386  10.070  0.3638  2.2907  0.7182
   48CHL1  H19B 6000   6.062   0.367   9.896  2.3602  0.4358 -0.0132
   48CHL1  H19C 6001   6.083   0.533   9.985 -1.2767  0.4587  0.8923
   48CHL1    C1 6002   5.847   0.608  10.021  0.0849 -1.1281  0.0215
   48CHL1   H1A 6003   5.920   0.689   9.998  0.1247 -0.0388  3.4151
   48CHL1   H1B 6004   5.758   0.661   9.980  2.8623  2.0388 -2.5174
   48CHL1    C2 6005   5.825   0.587  10.170  0.4089  0.2175  0.0337
   48CHL1   H2A 6006   5.798   0.683  10.219 -0.4533  0.2806 -0.5416
   48CHL1   H2B 6007   5.918   0.557  10.223 -0.7703 -2.1720  0.8805
   48CHL1   C20 6008   6.009   0.600   9.258 -0.0644  0.5948 -0.4925
   48CHL1   H20 6009   6.083   0.518   9.259 -0.7063  0.0081 -0.0417
   48CHL1   C21 6010   6.073   0.734   9.294 -0.0862  0.1677  0.1535
   48CHL1  H21A 6011   6.156   0.724   9.367 -1.6011 -0.6300  1.8452
   48CHL1  H21B 6012   5.999   0.790   9.355 -1.6985 -0.6125 -1.0020
   48CHL1  H21C 6013   6.106   0.783   9.200  1.6140 -1.6590 -0.2908
   48CHL1   C22 6014   5.975   0.600   9.106  0.1439 -0.4610 -0.3250
   48CHL1  H22A 6015   6.070   0.633   9.058 -0.1538  0.6905 -0.1714
   48CHL1  H22B 6016   5.946   0.498   9.074  2.6455 -0.9896 -1.1471
   48CHL1   C23 6017   5.878   0.704   9.063  0.0659  0.0708  0.6866
   48CHL1  H23A 6018   5.793   0.717   9.134  0.1223 -0.1255  0.7891
   48CHL1  H23B 6019   5.926   0.804   9.052 -1.1030  0.7493  1.5329
   48CHL1   C24 6020   5.809   0.677   8.925 -0.2866 -0.9263 -0.0204
   48CHL1  H24A 6021   5.887   0.678   8.846  0.7198  0.8165  0.9365
   48CHL1  H24B 6022   5.762   0.576   8.927  0.6440 -1.3853 -0.6646
   48CHL1   C25 6023   5.694   0.776   8.891 -0.4433  0.9288  0.4301
   48CHL1   H25 6024   5.622   0.760   8.975 -0.9017 -1.3943 -0.3299
   48CHL1   C26 6025   5.742   0.922   8.881 -0.0051  0.3441  0.3567
   48CHL1  H26A 6026   5.816   0.954   8.957  0.9553  0.5142 -0.6255
   48CHL1  H26B 6027   5.794   0.935   8.783 -1.1837  0.3963 -0.2786
   48CHL1  H26C 6028   5.654   0.989   8.878  0.3678  0.9563  2.1645
   48CHL1   C27 6029   5.617   0.731   8.764  0.1797  0.3403  0.4638
   48CHL1  H27A 6030   5.675   0.715   8.670 -2.1002 -0.9829 -0.8042
   48CHL1  H27B 6031   5.571   0.632   8.779  1.0392  0.0041  0.9686
   48CHL1  H27C 6032   5.541   0.804   8.729 -0.2352 -1.1748 -2.0047
   49CHL1    C3 6033   6.747   0.490  10.040 -0.4702 -0.1322  0.6265
   49CHL1    H3 6034   6.731   0.600  10.039 -2.0835 -0.3495  0.0785
   49CHL1    O3 6035   6.741   0.427  10.169  0.5378 -0.5917 -0.6329
   49CHL1   H3' 6036   6.649   0.437  10.195  0.5127 -1.5958 -0.3002
   49CHL1    C4 6037   6.625   0.439   9.961 -0.6039 -0.1694  0.2807
   49CHL1   H4A 6038   6.621   0.328   9.965 -2.7609 -0.1485 -0.0607
   49CHL1   H4B 6039   6.531   0.472  10.010 -1.1005  0.3009 -0.9760
   49CHL1    C5 6040   6.630   0.477   9.816  0.3271 -0.2734  1.1015
   49CHL1    C6 6041   6.526   0.540   9.761 -0.0183 -0.6766 -0.2016
   49CHL1    H6 6042   6.434   0.564   9.816 -0.9748 -2.0215 -1.1670
   49CHL1    C7 6043   6.522   0.572   9.611  0.4134  0.8114  0.1990
   49CHL1   H7A 6044   6.430   0.532   9.563  2.3511 -2.6767 -0.9415
   49CHL1   H7B 6045   6.519   0.682   9.592  0.0314  0.5972 -1.0577
   49CHL1    C8 6046   6.637   0.508   9.533  0.2021 -0.2299  0.1928
   49CHL1    H8 6047   6.618   0.398   9.532  0.4905 -0.2806 -1.0424
   49CHL1   C14 6048   6.641   0.561   9.390 -0.3852 -0.5589 -1.0676
   49CHL1   H14 6049   6.660   0.670   9.402  0.6949 -0.9082  0.7428
   49CHL1   C15 6050   6.517   0.533   9.297  0.5473  0.7831 -0.8161
   49CHL1  H15A 6051   6.493   0.426   9.317  2.4371  0.4015 -0.4364
   49CHL1  H15B 6052   6.436   0.608   9.314 -1.3529 -1.0707 -1.3187
   49CHL1   C16 6053   6.573   0.545   9.156  0.8519 -0.6215 -0.1497
   49CHL1  H16A 6054   6.538   0.472   9.080  0.8285 -1.5196  0.6947
   49CHL1  H16B 6055   6.539   0.644   9.120 -1.3846 -1.0327  0.6531
   49CHL1   C17 6056   6.725   0.553   9.160  0.5988  0.1365  0.6459
   49CHL1   H17 6057   6.753   0.661   9.159  1.4072  0.0049  2.9778
   49CHL1   C13 6058   6.765   0.497   9.310 -0.0298 -0.1042 -0.6540
   49CHL1   C18 6059   6.765   0.342   9.314 -0.0330 -0.1752  0.3064
   49CHL1  H18A 6060   6.792   0.305   9.415  3.5526 -0.6816 -0.6972
   49CHL1  H18B 6061   6.671   0.302   9.270 -1.2920  2.5803  0.2789
   49CHL1  H18C 6062   6.840   0.307   9.240 -3.3796 -0.8810 -3.0197
   49CHL1   C12 6063   6.891   0.554   9.383  0.1014 -0.0742 -0.0129
   49CHL1  H12A 6064   6.991   0.540   9.336 -0.1357  3.5310 -1.9554
   49CHL1  H12B 6065   6.871   0.663   9.375 -0.8146 -0.2039  0.3768
   49CHL1   C11 6066   6.888   0.512   9.530  0.0024  0.1481  0.1194
   49CHL1  H11A 6067   6.912   0.404   9.530 -1.6360 -0.2398  0.2082
   49CHL1  H11B 6068   6.964   0.572   9.583 -0.5666  0.3637  0.7003
   49CHL1    C9 6069   6.766   0.533   9.610  0.1928 -0.9201 -0.1688
   49CHL1    H9 6070   6.757   0.637   9.649 -1.3408 -1.0423 -0.1370
   49CHL1   C10 6071   6.767   0.449   9.740  0.1849 -0.0357 -0.2016
   49CHL1   C19 6072   6.792   0.292   9.724  0.9619 -0.1976 -0.4059
   49CHL1  H19A 6073   6.720   0.249   9.651 -0.2321  0.7683  0.1558
   49CHL1  H19B 6074   6.897   0.280   9.692  1.3832  0.4915  0.6534
   49CHL1  H19C 6075   6.776   0.240   9.821  1.8531  1.5655  0.7339
   49CHL1    C1 6076   6.884   0.509   9.838 -0.7929  0.0330  0.3093
   49CHL1   H1A 6077   6.976   0.497   9.777 -1.4436 -1.1955 -0.4732
   49CHL1   H1B 6078   6.868   0.619   9.842 -0.5889  0.0533  0.5339
   49CHL1    C2 6079   6.878   0.457   9.976 -0.1973  0.6707 -0.2573
   49CHL1   H2A 6080   6.959   0.494  10.041  0.5573 -2.5676  0.8190
   49CHL1   H2B 6081   6.899   0.348   9.983  1.8687  1.0844  0.8415
   49CHL1   C20 6082   6.802   0.497   9.037 -0.5987  0.2567  0.5219
   49CHL1   H20 6083   6.800   0.389   9.011 -0.8657  0.9800 -2.8312
   49CHL1   C21 6084   6.952   0.520   9.079  0.4449  0.3579  0.0837
   49CHL1  H21A 6085   6.982   0.442   9.153 -0.9722 -0.0924  0.2359
   49CHL1  H21B 6086   6.983   0.619   9.118  0.1148 -0.4012  2.4308
   49CHL1  H21C 6087   7.013   0.497   8.989  1.0537 -0.2783  0.6475
   49CHL1   C22 6088   6.760   0.566   8.911 -0.0567 -0.5234 -0.0749
   49CHL1  H22A 6089   6.800   0.502   8.830  1.7697 -1.5143  1.5242
   49CHL1  H22B 6090   6.649   0.567   8.908 -0.1889  0.9275  2.2915
   49CHL1   C23 6091   6.813   0.708   8.873 -0.0970  0.0621 -0.0837
   49CHL1  H23A 6092   6.789   0.768   8.963 -0.2894  0.0670 -0.1376
   49CHL1  H23B 6093   6.922   0.714   8.857  0.1472 -0.1418  1.3923
   49CHL1   C24 6094   6.731   0.779   8.763 -0.3473  0.1939 -0.2249
   49CHL1  H24A 6095   6.758   0.743   8.661  1.7805  1.5103 -0.1851
   49CHL1  H24B 6096   6.622   0.757   8.772 -0.3319  0.4656  0.7046
   49CHL1   C25 6097   6.754   0.932   8.762 -0.7778 -0.6213  0.5308
   49CHL1   H25 6098   6.712   0.979   8.853 -0.3236 -0.8777  0.8773
   49CHL1   C26 6099   6.903   0.967   8.745 -0.7367 -0.1440  0.0884
   49CHL1  H26A 6100   6.951   0.940   8.842 -2.3428  1.6446  1.4812
   49CHL1  H26B 6101   6.954   0.906   8.668  0.5567  0.9390  0.0389
   49CHL1  H26C 6102   6.910   1.073   8.714 -2.6548  0.1646  0.6108
   49CHL1   C27 6103   6.674   0.996   8.650 -0.5546  0.3976  0.6245
   49CHL1  H27A 6104   6.718   0.973   8.551 -0.1264  3.3529  0.0250
   49CHL1  H27B 6105   6.569   0.961   8.656 -0.6339  0.7995  1.8084
   49CHL1  H27C 6106   6.661   1.105   8.664 -0.4810  1.0757 -3.4104
   50CHL1    C3 6107   6.053   4.058  10.226 -0.1928  0.1821  0.3054
   50CHL1    H3 6108   5.957   4.097  10.186  0.0652  3.5386  2.5057
   50CHL1    O3 6109   6.033   4.081  10.365  0.0282 -0.3594 -0.4426
   50CHL1   H3' 6110   6.120   4.093  10.405 -0.5235 -0.5576  0.8797
   50CHL1    C4 6111   6.078   3.908  10.203 -0.4320  0.2230 -0.3886
   50CHL1   H4A 6112   6.171   3.906  10.263 -1.2207 -0.2428  0.8428
   50CHL1   H4B 6113   6.000   3.845  10.249  1.8892 -2.2659  0.3829
   50CHL1    C5 6114   6.100   3.899  10.047  0.1415  0.0218  0.4090
   50CHL1    C6 6115   6.030   3.802   9.982  0.3316 -0.1440  1.0020
   50CHL1    H6 6116   5.967   3.736  10.043  0.9206 -0.5270  1.2050
   50CHL1    C7 6117   6.050   3.768   9.837  0.6697  0.5829  0.7135
   50CHL1   H7A 6118   6.053   3.660   9.813 -0.7630  0.6959 -0.0805
   50CHL1   H7B 6119   5.968   3.809   9.775  2.4179  2.1001 -0.7553
   50CHL1    C8 6120   6.178   3.831   9.774  0.1843 -0.4209 -0.9174
   50CHL1    H8 6121   6.266   3.775   9.812 -0.4678 -0.3446  0.7806
   50CHL1   C14 6122   6.165   3.831   9.620  0.3492 -0.2868 -0.1728
   50CHL1   H14 6123   6.069   3.881   9.597 -0.8745 -2.4082  0.0478
   50CHL1   C15 6124   6.152   3.695   9.546  0.5207  0.2072 -0.7755
   50CHL1  H15A 6125   6.229   3.624   9.583  0.9876  1.2280  0.2756
   50CHL1  H15B 6126   6.050   3.659   9.571 -0.1238  2.3244 -0.1423
   50CHL1   C16 6127   6.204   3.729   9.398  0.8121 -0.3844 -0.5113
   50CHL1  H16A 6128   6.295   3.668   9.380  2.2686  1.5368 -0.0202
   50CHL1  H16B 6129   6.127   3.702   9.322  0.9571 -0.5632 -0.5955
   50CHL1   C17 6130   6.236   3.879   9.397 -0.2456  0.9838  0.3496
   50CHL1   H17 6131   6.139   3.933   9.388  0.2178  2.0296  1.3195
   50CHL1   C13 6132   6.277   3.904   9.545 -0.1047 -0.2809  0.1157
   50CHL1   C18 6133   6.422   3.837   9.557 -0.1079 -0.5539  0.3371
   50CHL1  H18A 6134   6.483   3.910   9.500 -1.9428  2.1940  1.6394
   50CHL1  H18B 6135   6.463   3.839   9.661  0.7144 -2.0953  0.0675
   50CHL1  H18C 6136   6.429   3.733   9.519 -3.6716 -1.4997  1.8425
   50CHL1   C12 6137   6.279   4.047   9.600 -0.0462 -0.3187 -0.1195
   50CHL1  H12A 6138   6.353   4.109   9.545 -0.3270 -0.1521 -0.3089
   50CHL1  H12B 6139   6.179   4.090   9.577  0.1339 -1.3550 -3.2790
   50CHL1   C11 6140   6.300   4.051   9.750  0.2353 -0.1368  0.5364
   50CHL1  H11A 6141   6.405   4.018   9.760  0.3945  0.0489 -0.4341
   50CHL1  H11B 6142   6.291   4.160   9.773 -1.5201 -0.2134  0.3651
   50CHL1    C9 6143   6.196   3.979   9.830 -0.2996  0.2737  0.4109
   50CHL1    H9 6144   6.105   4.033   9.794  0.4359  1.3359  0.0814
   50CHL1   C10 6145   6.206   3.992   9.979 -0.2853 -0.5166  0.6078
   50CHL1   C19 6146   6.350   3.941  10.027 -0.9855  0.6233 -0.1558
   50CHL1  H19A 6147   6.367   3.835   9.997  1.9226  0.3806  1.9088
   50CHL1  H19B 6148   6.413   4.011   9.969 -2.4241  2.5003  0.4537
   50CHL1  H19C 6149   6.365   3.953  10.136 -1.3550 -0.9447  0.1004
   50CHL1    C1 6150   6.171   4.133  10.015 -0.3642  0.7851 -0.3673
   50CHL1   H1A 6151   6.245   4.207   9.977  2.7870 -0.7139  2.3279
   50CHL1   H1B 6152   6.078   4.174   9.971 -0.6413 -1.6530 -2.3105
   50CHL1    C2 6153   6.158   4.156  10.167  0.0367  0.1045 -0.0535
   50CHL1   H2A 6154   6.119   4.258  10.182  1.6211  0.6745  0.3601
   50CHL1   H2B 6155   6.254   4.132  10.217 -0.4080  0.0161  0.7664
   50CHL1   C20 6156   6.325   3.913   9.273  0.5330 -0.7796 -0.4905
   50CHL1   H20 6157   6.423   3.861   9.278  0.5260 -0.7014  1.3883
   50CHL1   C21 6158   6.353   4.070   9.272 -0.2681  0.2681  0.7975
   50CHL1  H21A 6159   6.254   4.117   9.291  0.1097  0.8599  1.3476
   50CHL1  H21B 6160   6.395   4.103   9.174  0.2003 -0.0897  0.8743
   50CHL1  H21C 6161   6.421   4.101   9.354 -1.0615  1.1518  1.1420
   50CHL1   C22 6162   6.270   3.874   9.134  0.1982  0.6838 -0.5334
   50CHL1  H22A 6163   6.338   3.924   9.061  0.8811  1.4369  0.5950
   50CHL1  H22B 6164   6.268   3.763   9.131 -1.8555  0.6443  0.8933
   50CHL1   C23 6165   6.133   3.907   9.088  0.0208 -0.5570  0.8102
   50CHL1  H23A 6166   6.064   3.875   9.169  0.0558 -1.6755  0.4186
   50CHL1  H23B 6167   6.126   4.016   9.066  4.5359 -0.4076 -1.0197
   50CHL1   C24 6168   6.092   3.813   8.972 -0.0323 -0.2972 -1.1649
   50CHL1  H24A 6169   6.167   3.848   8.898  1.4099  2.5691  1.4485
   50CHL1  H24B 6170   6.091   3.704   8.996 -0.4627 -0.0259  0.1359
   50CHL1   C25 6171   5.946   3.827   8.918 -0.3672  0.0774  0.3747
   50CHL1   H25 6172   5.934   3.921   8.860 -0.2182 -1.5830 -2.6067
   50CHL1   C26 6173   5.906   3.718   8.818 -0.3494  1.1947 -0.0884
   50CHL1  H26A 6174   5.972   3.714   8.729 -0.7485  0.5614 -0.3559
   50CHL1  H26B 6175   5.918   3.625   8.876 -2.0728  1.4438  0.7379
   50CHL1  H26C 6176   5.798   3.723   8.790 -0.3947 -0.9355 -0.4451
   50CHL1   C27 6177   5.836   3.826   9.024 -0.4930 -0.3867  0.1564
   50CHL1  H27A 6178   5.733   3.819   8.983 -0.0999 -0.8022 -0.7760
   50CHL1  H27B 6179   5.852   3.734   9.084 -1.9686 -1.1477 -0.5546
   50CHL1  H27C 6180   5.837   3.914   9.092 -2.9100  0.4656 -0.7772
   51CHL1    C3 6181   5.306   0.543  10.054  0.4474 -0.5087  0.6129
   51CHL1    H3 6182   5.248   0.465  10.000  0.4674 -0.7731  0.9656
   51CHL1    O3 6183   5.358   0.491  10.171  0.2307 -0.1815 -0.0158
   51CHL1   H3' 6184   5.331   0.543  10.247  1.9297 -0.4102  0.8088
   51CHL1    C4 6185   5.424   0.588   9.962  0.1013  0.3030 -0.2629
   51CHL1   H4A 6186   5.489   0.648  10.028 -2.5095  2.2263  0.7069
   51CHL1   H4B 6187   5.482   0.496   9.938 -2.5281 -1.4727 -0.1815
   51CHL1    C5 6188   5.381   0.665   9.836  0.0162  0.4342 -0.0287
   51CHL1    C6 6189   5.416   0.617   9.711  0.1290 -0.6080  0.8146
   51CHL1    H6 6190   5.483   0.532   9.696 -0.1384 -0.5727 -0.7818
   51CHL1    C7 6191   5.376   0.684   9.584  0.2157 -0.0195  0.3922
   51CHL1   H7A 6192   5.467   0.698   9.522  0.9983  0.1608  1.5485
   51CHL1   H7B 6193   5.310   0.614   9.528  1.3263 -0.9660  0.2420
   51CHL1    C8 6194   5.310   0.815   9.601  0.6420  0.1029 -0.6446
   51CHL1    H8 6195   5.385   0.890   9.637  1.2623 -0.4837 -0.6890
   51CHL1   C14 6196   5.247   0.859   9.471 -0.1341  0.3564 -0.2082
   51CHL1   H14 6197   5.176   0.779   9.442 -2.1624  0.8526  2.8090
   51CHL1   C15 6198   5.338   0.862   9.344  0.3699  0.4588 -0.1380
   51CHL1  H15A 6199   5.439   0.896   9.376 -0.5349  0.0011  3.7166
   51CHL1  H15B 6200   5.347   0.759   9.306  0.6065 -0.0042  1.1083
   51CHL1   C16 6201   5.250   0.935   9.249  0.0808  0.1122 -0.1292
   51CHL1  H16A 6202   5.311   1.018   9.207  0.8561 -0.3499  0.0693
   51CHL1  H16B 6203   5.218   0.880   9.158 -0.7394  2.7638 -1.5418
   51CHL1   C17 6204   5.123   0.992   9.328 -0.0080  0.0961  0.6952
   51CHL1   H17 6205   5.042   0.919   9.307  0.9246 -0.8421  0.2619
   51CHL1   C13 6206   5.162   0.991   9.477 -0.5135 -0.1044  0.2480
   51CHL1   C18 6207   5.253   1.108   9.506 -0.4472 -0.2387 -0.1439
   51CHL1  H18A 6208   5.334   1.123   9.431 -0.6699 -0.4569 -0.4346
   51CHL1  H18B 6209   5.197   1.204   9.501  2.7408  1.7859  0.5607
   51CHL1  H18C 6210   5.301   1.099   9.605 -0.3387  0.6827 -0.1097
   51CHL1   C12 6211   5.050   0.978   9.585  0.3678 -0.4476  0.0347
   51CHL1  H12A 6212   4.987   1.069   9.588  1.6590  0.4485  1.2218
   51CHL1  H12B 6213   4.978   0.898   9.558  0.0251  0.4839 -2.0262
   51CHL1   C11 6214   5.116   0.943   9.721 -0.6403  0.3243  0.0907
   51CHL1  H11A 6215   5.188   1.020   9.755  1.5382 -2.1999  1.5916
   51CHL1  H11B 6216   5.038   0.932   9.799  0.6574  1.8442  1.6889
   51CHL1    C9 6217   5.203   0.807   9.714 -0.4872 -0.4285 -0.0477
   51CHL1    H9 6218   5.130   0.730   9.683 -0.0900 -0.3963 -1.0913
   51CHL1   C10 6219   5.268   0.768   9.850  0.0854  0.4226  0.2935
   51CHL1   C19 6220   5.350   0.887   9.913 -0.3428 -0.0546 -0.3256
   51CHL1  H19A 6221   5.402   0.942   9.831 -0.3048  1.7917  0.8919
   51CHL1  H19B 6222   5.273   0.945   9.966 -2.0190 -1.4947 -1.0922
   51CHL1  H19C 6223   5.427   0.864   9.990  0.0214  2.0848  0.0041
   51CHL1    C1 6224   5.159   0.727   9.957  0.1579 -0.6195  0.5581
   51CHL1   H1A 6225   5.092   0.814   9.978  0.5210 -0.5627  1.5407
   51CHL1   H1B 6226   5.108   0.644   9.905  0.4981 -1.5529  1.6873
   51CHL1    C2 6227   5.218   0.665  10.094 -0.2976 -0.2431  0.2569
   51CHL1   H2A 6228   5.140   0.626  10.163 -1.0863  0.9610  0.0675
   51CHL1   H2B 6229   5.262   0.747  10.155 -0.6608 -0.2813  0.5726
   51CHL1   C20 6230   5.072   1.125   9.267 -0.0538 -0.7355  0.3843
   51CHL1   H20 6231   5.152   1.201   9.281 -0.5815  0.0674 -0.8541
   51CHL1   C21 6232   4.943   1.166   9.334 -0.4094 -0.2226 -0.6582
   51CHL1  H21A 6233   4.947   1.194   9.442  2.1427 -0.9491 -0.5049
   51CHL1  H21B 6234   4.875   1.080   9.319  0.0888 -0.4940 -1.3862
   51CHL1  H21C 6235   4.902   1.255   9.281 -0.0774 -0.6131 -1.5801
   51CHL1   C22 6236   5.061   1.121   9.112  0.4770 -0.2331  0.4089
   51CHL1  H22A 6237   5.161   1.126   9.063 -0.1831 -0.6758 -1.0551
   51CHL1  H22B 6238   5.009   1.025   9.091  2.0262 -1.2152  0.9601
   51CHL1   C23 6239   4.979   1.241   9.038 -0.4961  0.1880 -0.0846
   51CHL1  H23A 6240   4.873   1.234   9.073 -0.4947  0.2435 -0.0685
   51CHL1  H23B 6241   5.014   1.335   9.085  0.1816 -1.4207  2.8481
   51CHL1   C24 6242   4.978   1.238   8.882 -0.0516 -0.5086  0.0427
   51CHL1  H24A 6243   5.080   1.250   8.840  0.1122  0.4871  0.6779
   51CHL1  H24B 6244   4.940   1.141   8.845 -0.2283 -0.4914  0.1805
   51CHL1   C25 6245   4.886   1.349   8.829 -0.1186  0.7207 -0.0898
   51CHL1   H25 6246   4.788   1.336   8.881  0.7735 -0.6742  1.3256
   51CHL1   C26 6247   4.937   1.489   8.860 -0.1549  0.3606  0.8514
   51CHL1  H26A 6248   4.882   1.568   8.804 -0.5410  0.4834  1.4019
   51CHL1  H26B 6249   4.916   1.500   8.968  1.3966  1.5737  1.0764
   51CHL1  H26C 6250   5.047   1.502   8.844 -0.5833  0.6758 -2.7283
   51CHL1   C27 6251   4.859   1.333   8.677  0.3073  0.4501 -0.3053
   51CHL1  H27A 6252   4.778   1.400   8.643 -0.8156 -0.4696  0.5162
   51CHL1  H27B 6253   4.957   1.350   8.626  1.8000 -0.3461  2.0972
   51CHL1  H27C 6254   4.820   1.235   8.641 -3.7540  2.2090 -1.1564
   52CHL1    C3 6255   3.123   6.820   9.943  0.0941  0.6922  0.6169
   52CHL1    H3 6256   3.205   6.890   9.915  2.6936 -2.1604  0.5664
   52CHL1    O3 6257   3.123   6.820  10.087  0.3889  0.3072 -0.2708
   52CHL1   H3' 6258   3.044   6.768  10.104  0.6310  0.3946  1.2846
   52CHL1    C4 6259   2.995   6.868   9.872 -0.2959 -0.0997  0.2221
   52CHL1   H4A 6260   2.916   6.797   9.905  1.4125 -2.0308  0.3483
   52CHL1   H4B 6261   2.965   6.965   9.917 -3.0578 -1.6873  2.0899
   52CHL1    C5 6262   3.001   6.874   9.723 -0.5789  0.4356 -0.0645
   52CHL1    C6 6263   2.958   6.984   9.660  0.0834 -0.0565 -0.1540
   52CHL1    H6 6264   2.930   7.072   9.720  0.2809 -0.1071  0.0142
   52CHL1    C7 6265   2.938   6.980   9.511  0.2064 -0.1956  0.5646
   52CHL1   H7A 6266   2.842   7.031   9.488 -0.4118 -0.9044  1.4475
   52CHL1   H7B 6267   3.015   7.047   9.468 -0.2948  0.2227  0.3169
   52CHL1    C8 6268   2.952   6.840   9.444  0.8725 -0.2036  0.6134
   52CHL1    H8 6269   2.853   6.790   9.448  0.6764  0.2531  3.2727
   52CHL1   C14 6270   2.985   6.848   9.290  0.7614 -0.4831  0.3850
   52CHL1   H14 6271   3.082   6.901   9.283  0.8272 -0.7381 -0.7956
   52CHL1   C15 6272   2.898   6.933   9.199  0.4842  0.1842  0.4574
   52CHL1  H15A 6273   2.790   6.914   9.219  0.7558  0.6038  2.4824
   52CHL1  H15B 6274   2.905   7.037   9.237  1.8495  0.8350 -1.4341
   52CHL1   C16 6275   2.957   6.911   9.057  0.5268  1.0742  0.6380
   52CHL1  H16A 6276   2.867   6.907   8.991  2.0600  1.7358 -1.6074
   52CHL1  H16B 6277   3.029   6.993   9.043  2.1201 -0.5189 -1.0293
   52CHL1   C17 6278   3.037   6.778   9.077 -0.5716 -0.1624  0.1278
   52CHL1   H17 6279   3.144   6.803   9.096 -0.7858 -0.2296  1.5091
   52CHL1   C13 6280   3.009   6.715   9.213  0.1546  0.3929  0.4992
   52CHL1   C18 6281   2.871   6.637   9.209  0.8097 -0.2106 -0.0803
   52CHL1  H18A 6282   2.887   6.545   9.148  2.1832 -0.0490  0.0135
   52CHL1  H18B 6283   2.845   6.605   9.312 -2.0134 -0.4259 -0.7660
   52CHL1  H18C 6284   2.786   6.697   9.169 -0.7246 -1.6261  0.9163
   52CHL1   C12 6285   3.117   6.633   9.283  0.7547  0.1175 -0.0914
   52CHL1  H12A 6286   3.120   6.528   9.247  0.9830 -0.0268  0.3457
   52CHL1  H12B 6287   3.215   6.681   9.261  0.1568  0.8020 -1.3585
   52CHL1   C11 6288   3.094   6.627   9.435 -0.6500  0.2175  0.6359
   52CHL1  H11A 6289   3.026   6.541   9.454  0.2701 -0.9361 -1.0274
   52CHL1  H11B 6290   3.192   6.588   9.469 -0.7447  1.7666  2.8849
   52CHL1    C9 6291   3.059   6.758   9.511 -0.6457 -0.3088  0.5482
   52CHL1    H9 6292   3.154   6.814   9.516  0.8562 -2.6872  6.5172
   52CHL1   C10 6293   3.036   6.739   9.665  0.8328 -0.2557  0.3188
   52CHL1   C19 6294   2.910   6.652   9.684  0.0709  0.0746 -0.4081
   52CHL1  H19A 6295   2.891   6.638   9.793 -0.5764 -0.0935 -0.5391
   52CHL1  H19B 6296   2.817   6.690   9.638  0.1486  0.1443 -0.5083
   52CHL1  H19C 6297   2.927   6.550   9.645  0.1046 -0.5462  1.1430
   52CHL1    C1 6298   3.160   6.677   9.727 -0.4248 -0.5495 -0.6072
   52CHL1   H1A 6299   3.166   6.568   9.707 -0.7927 -0.9852  1.4313
   52CHL1   H1B 6300   3.250   6.735   9.697 -1.1327  0.5436 -0.6822
   52CHL1    C2 6301   3.163   6.677   9.890 -0.1512 -0.5840  0.8889
   52CHL1   H2A 6302   3.260   6.634   9.921  0.7369 -1.2935 -2.4637
   52CHL1   H2B 6303   3.082   6.616   9.936 -1.3197 -1.0691 -1.6190
   52CHL1   C20 6304   3.046   6.670   8.962 -0.5530 -0.5740  0.1871
   52CHL1   H20 6305   3.098   6.574   8.979 -0.3286 -0.8584 -1.8155
   52CHL1   C21 6306   3.153   6.728   8.871  0.1020 -0.1086  0.3042
   52CHL1  H21A 6307   3.245   6.735   8.932 -0.8070  0.0720  1.7055
   52CHL1  H21B 6308   3.126   6.829   8.832  1.4493  0.1162 -0.0914
   52CHL1  H21C 6309   3.182   6.662   8.786 -2.3760 -2.4867  1.1551
   52CHL1   C22 6310   2.917   6.655   8.881  0.0430  1.1736  0.1333
   52CHL1  H22A 6311   2.827   6.639   8.944  0.4938  2.2735  1.1059
   52CHL1  H22B 6312   2.897   6.753   8.833  0.9771  1.5056  0.3903
   52CHL1   C23 6313   2.923   6.543   8.776 -0.1803  0.2132 -0.6740
   52CHL1  H23A 6314   3.016   6.553   8.715  0.7117 -0.4853  0.5214
   52CHL1  H23B 6315   2.940   6.447   8.829 -0.0945  0.5799 -0.0206
   52CHL1   C24 6316   2.804   6.541   8.678  0.1039 -0.6286  0.7649
   52CHL1  H24A 6317   2.712   6.542   8.740 -0.0071 -1.0006  0.6057
   52CHL1  H24B 6318   2.796   6.628   8.610  3.5651 -0.3472  0.5456
   52CHL1   C25 6319   2.797   6.413   8.593 -0.6063 -0.3905  0.7599
   52CHL1   H25 6320   2.837   6.328   8.652 -1.3614 -1.2779  0.0037
   52CHL1   C26 6321   2.652   6.396   8.548  0.4263  0.5173 -0.3042
   52CHL1  H26A 6322   2.628   6.481   8.481 -0.1866  1.0419  0.5708
   52CHL1  H26B 6323   2.637   6.303   8.489  1.3730  1.2896 -1.8657
   52CHL1  H26C 6324   2.588   6.402   8.638  1.8815  0.5168  0.7766
   52CHL1   C27 6325   2.901   6.431   8.475  0.3780  0.8719  0.3347
   52CHL1  H27A 6326   3.002   6.459   8.514  0.9084  0.2932 -0.5969
   52CHL1  H27B 6327   2.911   6.345   8.406 -0.2904  1.2765 -0.2693
   52CHL1  H27C 6328   2.866   6.514   8.410 -0.6635 -0.0723 -0.3462
   53CHL1    C3 6329   3.674   6.407  10.183  0.3601 -0.2038  0.7811
   53CHL1    H3 6330   3.651   6.514  10.164 -0.5667 -0.2597  1.5096
   53CHL1    O3 6331   3.679   6.399  10.318 -0.1707 -0.6749  0.3399
   53CHL1   H3' 6332   3.763   6.363  10.348 -0.1157  0.0560  1.0726
   53CHL1    C4 6333   3.560   6.314  10.129 -0.2883  0.2085  0.0239
   53CHL1   H4A 6334   3.562   6.211  10.171  0.4290  1.0473  2.1959
   53CHL1   H4B 6335   3.467   6.360  10.168  0.3001  1.1697  0.3314
   53CHL1    C5 6336   3.554   6.312   9.976 -0.2590 -0.0071  0.2094
   53CHL1    C6 6337   3.443   6.352   9.908 -0.9964  0.3628 -0.8695
   53CHL1    H6 6338   3.361   6.393   9.968  0.4041  1.1830  0.5420
   53CHL1    C7 6339   3.425   6.366   9.759 -0.1752  0.4618 -0.0814
   53CHL1   H7A 6340   3.329   6.323   9.722  0.5024  1.3027 -3.1050
   53CHL1   H7B 6341   3.425   6.474   9.732 -0.6274  0.2175 -1.1194
   53CHL1    C8 6342   3.546   6.287   9.691  0.4584 -0.0742  0.0203
   53CHL1    H8 6343   3.527   6.179   9.707 -0.9528  0.0005 -0.9039
   53CHL1   C14 6344   3.547   6.323   9.543  0.4953  0.2791 -0.6701
   53CHL1   H14 6345   3.570   6.430   9.532  0.9803  0.0928 -1.4941
   53CHL1   C15 6346   3.417   6.302   9.465  0.4179  0.8892  0.5083
   53CHL1  H15A 6347   3.364   6.208   9.494  1.4489 -0.0159 -0.4242
   53CHL1  H15B 6348   3.352   6.392   9.469 -0.2981  0.4908 -1.0562
   53CHL1   C16 6349   3.460   6.290   9.313  0.8654 -0.0891 -0.7428
   53CHL1  H16A 6350   3.422   6.201   9.259 -0.7171  0.3995 -0.4951
   53CHL1  H16B 6351   3.418   6.383   9.270 -1.6252  0.7983  3.0595
   53CHL1   C17 6352   3.617   6.298   9.327 -0.1340  0.4040 -0.0476
   53CHL1   H17 6353   3.652   6.403   9.315  1.7718 -0.2224 -0.3342
   53CHL1   C13 6354   3.653   6.246   9.465 -0.7573  0.1160  0.2529
   53CHL1   C18 6355   3.631   6.089   9.476 -0.2431  0.3845  0.0407
   53CHL1  H18A 6356   3.532   6.054   9.440 -0.7405  1.4487  0.3403
   53CHL1  H18B 6357   3.716   6.044   9.419 -1.2091  0.9565 -1.9500
   53CHL1  H18C 6358   3.619   6.053   9.580 -0.8042 -0.0747 -0.1746
   53CHL1   C12 6359   3.792   6.284   9.528  0.3444  0.0228  0.1230
   53CHL1  H12A 6360   3.881   6.241   9.476 -0.1630 -0.2114 -0.5699
   53CHL1  H12B 6361   3.805   6.395   9.522 -0.0685  0.0764  0.2051
   53CHL1   C11 6362   3.807   6.252   9.675 -0.4501 -0.3779 -0.4979
   53CHL1  H11A 6363   3.799   6.142   9.680 -0.9455 -0.3620 -0.9595
   53CHL1  H11B 6364   3.905   6.269   9.727  0.1533  0.2592 -1.7952
   53CHL1    C9 6365   3.689   6.321   9.756 -0.5323  0.5516  0.5371
   53CHL1    H9 6366   3.699   6.430   9.737 -1.7285  0.2002 -3.0221
   53CHL1   C10 6367   3.692   6.285   9.911 -0.3333 -0.3569 -0.1324
   53CHL1   C19 6368   3.732   6.137   9.925  0.1639  0.3530 -0.3542
   53CHL1  H19A 6369   3.667   6.069   9.866 -1.1907  1.5456 -0.2885
   53CHL1  H19B 6370   3.838   6.114   9.901  0.2012  0.6102 -0.4402
   53CHL1  H19C 6371   3.735   6.108  10.032 -2.1358  0.2519 -0.2814
   53CHL1    C1 6372   3.801   6.377   9.974  0.3694  0.5248 -0.6660
   53CHL1   H1A 6373   3.904   6.360   9.937  1.3034  1.5524  1.2980
   53CHL1   H1B 6374   3.785   6.484   9.949 -1.3619  0.0566 -1.7367
   53CHL1    C2 6375   3.810   6.366  10.122 -0.3822 -0.2363  0.7725
   53CHL1   H2A 6376   3.883   6.438  10.167 -0.5889 -0.6046  1.7207
   53CHL1   H2B 6377   3.834   6.266  10.163  0.0814  0.4282  2.1859
   53CHL1   C20 6378   3.680   6.231   9.203 -0.7291 -0.0507 -0.7155
   53CHL1   H20 6379   3.657   6.122   9.204 -2.2066  0.2485  0.1343
   53CHL1   C21 6380   3.837   6.243   9.205 -0.4256 -0.1032  0.2681
   53CHL1  H21A 6381   3.895   6.204   9.118  0.8228 -0.5716  1.2768
   53CHL1  H21B 6382   3.877   6.174   9.283  1.3701  1.6905  1.0153
   53CHL1  H21C 6383   3.876   6.346   9.219  0.0080  0.1846 -2.4569
   53CHL1   C22 6384   3.624   6.297   9.067 -0.2496  0.1511 -0.0805
   53CHL1  H22A 6385   3.514   6.288   9.057 -0.2184  0.3729 -0.6743
   53CHL1  H22B 6386   3.655   6.403   9.070  0.4190 -0.0380 -0.0007
   53CHL1   C23 6387   3.682   6.232   8.937 -0.0044 -0.1945 -0.1700
   53CHL1  H23A 6388   3.783   6.189   8.954  0.4177  0.9852  0.3834
   53CHL1  H23B 6389   3.605   6.155   8.913 -1.1333  1.1715 -1.1090
   53CHL1   C24 6390   3.684   6.336   8.824 -0.0041  0.2809  0.5983
   53CHL1  H24A 6391   3.733   6.433   8.848 -2.7257  1.7387  0.6867
   53CHL1  H24B 6392   3.747   6.290   8.744  0.0687  0.2433  0.6781
   53CHL1   C25 6393   3.551   6.360   8.756  0.3336 -0.4874 -0.2058
   53CHL1   H25 6394   3.495   6.264   8.764 -0.0190 -0.1488  1.8851
   53CHL1   C26 6395   3.465   6.474   8.820 -0.1421  0.1385  0.4956
   53CHL1  H26A 6396   3.382   6.505   8.754  0.6664  0.3332 -0.4540
   53CHL1  H26B 6397   3.418   6.428   8.910 -0.8376  0.0595  0.0936
   53CHL1  H26C 6398   3.508   6.571   8.851 -1.7589  0.3798  2.1443
   53CHL1   C27 6399   3.582   6.398   8.602 -0.1432 -0.7910  0.0562
   53CHL1  H27A 6400   3.656   6.481   8.591 -0.9457 -0.3454 -2.9451
   53CHL1  H27B 6401   3.627   6.309   8.554  0.8949 -0.5335  0.5183
   53CHL1  H27C 6402   3.486   6.428   8.556  0.2200 -1.4910 -1.1917
   54CHL1    C3 6403   1.606   6.166  10.067  0.1950 -0.2911 -0.6575
   54CHL1    H3 6404   1.507   6.129  10.101  1.2540 -0.4503  2.6551
   54CHL1    O3 6405   1.665   6.201  10.193  0.4403 -0.5326  0.0397
   54CHL1   H3' 6406   1.711   6.283  10.179  0.2650  0.1358  2.8118
   54CHL1    C4 6407   1.684   6.042  10.013 -0.5904 -0.4055  0.1123
   54CHL1   H4A 6408   1.784   6.086   9.994 -0.8421  0.1548  0.0492
   54CHL1   H4B 6409   1.695   5.958  10.084  1.0987  0.3901  0.8512
   54CHL1    C5 6410   1.635   6.002   9.876  0.7802  0.0056 -0.2935
   54CHL1    C6 6411   1.600   5.873   9.849 -0.2822 -0.2088 -0.0400
   54CHL1    H6 6412   1.615   5.801   9.930 -0.9409  0.3280  0.5680
   54CHL1    C7 6413   1.559   5.818   9.715  0.8067 -0.4169 -0.1933
   54CHL1   H7A 6414   1.637   5.743   9.691  1.0978 -1.1864  2.7526
   54CHL1   H7B 6415   1.460   5.768   9.709  1.7829 -2.2689 -1.7441
   54CHL1    C8 6416   1.565   5.928   9.603  0.5992 -0.1063 -0.2196
   54CHL1    H8 6417   1.671   5.927   9.571  0.1867 -2.0921 -1.7457
   54CHL1   C14 6418   1.485   5.892   9.473  0.2736  0.2591  0.0809
   54CHL1   H14 6419   1.380   5.900   9.508 -0.5814 -2.9023 -1.4085
   54CHL1   C15 6420   1.509   5.756   9.420  0.2394  0.0563 -0.0915
   54CHL1  H15A 6421   1.614   5.720   9.415 -0.5407 -2.3109 -1.0584
   54CHL1  H15B 6422   1.449   5.688   9.484 -0.6742  0.6416 -0.3055
   54CHL1   C16 6423   1.443   5.759   9.283 -0.1931 -0.1308  0.3355
   54CHL1  H16A 6424   1.519   5.710   9.219  0.7607  1.7456 -0.0403
   54CHL1  H16B 6425   1.346   5.705   9.273 -0.6178  0.8741 -1.6239
   54CHL1   C17 6426   1.417   5.909   9.246 -0.2646 -0.3454 -0.8826
   54CHL1   H17 6427   1.311   5.928   9.271  0.2901  0.1252  1.2606
   54CHL1   C13 6428   1.502   5.985   9.353  0.6518  0.0851  0.2369
   54CHL1   C18 6429   1.655   5.995   9.308  0.3555 -0.7270  0.4108
   54CHL1  H18A 6430   1.723   6.028   9.390  0.9219 -0.3391 -0.2026
   54CHL1  H18B 6431   1.680   5.899   9.258  0.2540 -1.0813  1.0291
   54CHL1  H18C 6432   1.666   6.073   9.230  2.8315 -0.7417  0.6643
   54CHL1   C12 6433   1.449   6.119   9.408  0.4586  0.1141 -0.7675
   54CHL1  H12A 6434   1.450   6.201   9.333 -1.9850  0.5068 -0.4445
   54CHL1  H12B 6435   1.339   6.103   9.417  0.1106  2.4993 -0.1936
   54CHL1   C11 6436   1.518   6.174   9.535  0.2841 -0.1775  0.4928
   54CHL1  H11A 6437   1.614   6.221   9.507 -0.8369  0.5486 -2.5337
   54CHL1  H11B 6438   1.465   6.263   9.575  2.0917  0.7887  0.8253
   54CHL1    C9 6439   1.527   6.068   9.656  0.0986  0.4173 -0.0929
   54CHL1    H9 6440   1.423   6.064   9.695 -0.3812 -1.3915 -1.4183
   54CHL1   C10 6441   1.613   6.119   9.772 -0.0919 -0.0901  0.0467
   54CHL1   C19 6442   1.753   6.170   9.724  0.8939  0.6934  0.4686
   54CHL1  H19A 6443   1.791   6.087   9.661 -1.1075 -0.1050  0.2560
   54CHL1  H19B 6444   1.743   6.258   9.657 -1.3722 -0.0287 -0.2161
   54CHL1  H19C 6445   1.822   6.202   9.805  0.9858  2.0909 -0.1339
   54CHL1    C1 6446   1.545   6.238   9.840  0.3284  0.1486  0.5066
   54CHL1   H1A 6447   1.539   6.325   9.771  1.3347  0.4996  0.8482
   54CHL1   H1B 6448   1.440   6.213   9.867 -1.3036  3.2192 -2.2057
   54CHL1    C2 6449   1.600   6.287   9.976  0.3486  0.2595 -0.2341
   54CHL1   H2A 6450   1.538   6.375  10.005  0.4092  1.2854 -2.9431
   54CHL1   H2B 6451   1.704   6.321   9.956  0.5010  0.3732  0.7167
   54CHL1   C20 6452   1.443   5.942   9.100  0.6128 -0.0725 -0.1017
   54CHL1   H20 6453   1.551   5.952   9.078  0.6266  1.0856  0.4270
   54CHL1   C21 6454   1.378   6.082   9.087 -0.3710 -0.5662 -0.6134
   54CHL1  H21A 6455   1.268   6.074   9.103 -0.7197  0.2774 -2.3450
   54CHL1  H21B 6456   1.376   6.123   8.984 -2.5522 -0.1867 -0.4764
   54CHL1  H21C 6457   1.427   6.156   9.153 -1.9809 -0.4818  0.5708
   54CHL1   C22 6458   1.379   5.838   9.002  0.4718  0.4142 -0.1624
   54CHL1  H22A 6459   1.400   5.730   9.016  0.7380  0.6397  1.4059
   54CHL1  H22B 6460   1.269   5.837   9.012  0.6356 -0.9493  2.3408
   54CHL1   C23 6461   1.416   5.883   8.855 -0.4360  0.4809 -0.0113
   54CHL1  H23A 6462   1.389   5.990   8.836  1.6896  0.8149 -1.5372
   54CHL1  H23B 6463   1.525   5.877   8.834  0.0651  1.5098  2.0384
   54CHL1   C24 6464   1.341   5.791   8.755 -0.2521 -1.1850 -0.0552
   54CHL1  H24A 6465   1.390   5.694   8.779  0.9654 -0.7659 -0.7889
   54CHL1  H24B 6466   1.234   5.793   8.785 -0.0176  0.8761  0.7677
   54CHL1   C25 6467   1.367   5.829   8.604  0.3301 -0.7472  0.0435
   54CHL1   H25 6468   1.355   5.939   8.595  0.8287 -0.7496 -0.7596
   54CHL1   C26 6469   1.511   5.798   8.555  1.0758  0.0965  0.4922
   54CHL1  H26A 6470   1.573   5.878   8.601  1.5443 -1.1653  2.1390
   54CHL1  H26B 6471   1.549   5.699   8.590 -1.9681 -1.7096 -0.8901
   54CHL1  H26C 6472   1.516   5.803   8.444 -2.2128  0.1993  0.2536
   54CHL1   C27 6473   1.267   5.754   8.512 -0.2443 -0.3602  0.1357
   54CHL1  H27A 6474   1.289   5.758   8.403 -2.9034 -1.9888 -0.5595
   54CHL1  H27B 6475   1.249   5.652   8.553 -0.6416 -0.1112  0.5945
   54CHL1  H27C 6476   1.164   5.792   8.532 -0.9300 -1.5272 -1.0278
   55CHL1    C3 6477   5.296   4.221  10.147  0.3855  0.0220 -0.2780
   55CHL1    H3 6478   5.233   4.309  10.124  0.0400 -0.4688 -1.2240
   55CHL1    O3 6479   5.332   4.217  10.289  0.7089 -0.5415  0.5036
   55CHL1   H3' 6480   5.413   4.167  10.295  1.5036  0.7216  0.7053
   55CHL1    C4 6481   5.218   4.097  10.105 -0.6824  0.1937  0.3589
   55CHL1   H4A 6482   5.282   4.010  10.130  2.6140  2.5697  0.8806
   55CHL1   H4B 6483   5.126   4.106  10.166 -0.5019 -0.8130  0.7913
   55CHL1    C5 6484   5.187   4.110   9.961  0.5838 -0.1061  0.7236
   55CHL1    C6 6485   5.063   4.101   9.909  0.1185 -0.8022 -0.4794
   55CHL1    H6 6486   4.976   4.072   9.969  0.6658 -1.1633  0.1580
   55CHL1    C7 6487   5.023   4.106   9.762  0.4015 -0.1192 -0.5955
   55CHL1   H7A 6488   4.952   4.024   9.741  0.1694 -0.8163  2.3946
   55CHL1   H7B 6489   4.962   4.195   9.737  0.8869  0.1302 -0.9101
   55CHL1    C8 6490   5.147   4.093   9.669  0.1984  0.7630 -0.5364
   55CHL1    H8 6491   5.171   3.985   9.656  1.5501  0.8305  1.0386
   55CHL1   C14 6492   5.110   4.146   9.530 -0.6564 -0.4332  0.3292
   55CHL1   H14 6493   5.096   4.255   9.543 -1.5569 -0.4233 -0.6156
   55CHL1   C15 6494   4.980   4.107   9.460 -0.2000 -0.0833 -0.7281
   55CHL1  H15A 6495   4.944   4.003   9.470 -1.5018  0.3483 -0.7841
   55CHL1  H15B 6496   4.897   4.159   9.513  0.9322 -0.8843  2.0199
   55CHL1   C16 6497   5.005   4.147   9.317  0.5541  0.0449  0.8664
   55CHL1  H16A 6498   4.986   4.053   9.261  1.8768 -0.3289  1.0085
   55CHL1  H16B 6499   4.926   4.218   9.287  0.3125 -1.2288 -1.7446
   55CHL1   C17 6500   5.150   4.197   9.305  1.0165 -0.4764  0.3372
   55CHL1   H17 6501   5.159   4.306   9.328  3.7890 -0.5511 -0.0245
   55CHL1   C13 6502   5.220   4.123   9.428 -0.7626 -0.0262 -0.0885
   55CHL1   C18 6503   5.258   3.978   9.398 -0.5469  0.2619  0.0638
   55CHL1  H18A 6504   5.169   3.915   9.376 -1.4372  1.0858  1.1925
   55CHL1  H18B 6505   5.332   3.966   9.316 -2.6626 -0.4060 -1.8474
   55CHL1  H18C 6506   5.307   3.927   9.484  0.0702 -1.3511 -1.1906
   55CHL1   C12 6507   5.345   4.194   9.478  0.1100  0.4808  0.7579
   55CHL1  H12A 6508   5.425   4.169   9.405 -0.2112 -2.4903  1.3000
   55CHL1  H12B 6509   5.336   4.304   9.470 -2.7119  0.1636 -2.6148
   55CHL1   C11 6510   5.386   4.145   9.620 -0.2972 -0.3271 -0.0999
   55CHL1  H11A 6511   5.411   4.037   9.621  0.6136 -0.1750  2.8174
   55CHL1  H11B 6512   5.477   4.191   9.665 -0.4857 -0.1664  0.1264
   55CHL1    C9 6513   5.268   4.160   9.722  0.1646  0.0995  0.7135
   55CHL1    H9 6514   5.240   4.267   9.728 -1.4078 -0.3722  2.8224
   55CHL1   C10 6515   5.304   4.129   9.871 -0.7475 -0.2979  0.0655
   55CHL1   C19 6516   5.380   3.992   9.874  0.1679  0.1301 -0.0791
   55CHL1  H19A 6517   5.371   3.944   9.974  0.0613  1.3059  0.4891
   55CHL1  H19B 6518   5.332   3.924   9.800 -0.0759 -0.4716  0.6149
   55CHL1  H19C 6519   5.487   4.004   9.847 -0.3314  0.5803 -1.9561
   55CHL1    C1 6520   5.398   4.247   9.925 -1.0935  0.2689  0.1532
   55CHL1   H1A 6521   5.497   4.256   9.875 -1.3194  0.7619 -0.2084
   55CHL1   H1B 6522   5.339   4.340   9.911 -0.0003  0.9220 -0.3004
   55CHL1    C2 6523   5.430   4.237  10.075 -0.0138  0.3105 -0.2190
   55CHL1   H2A 6524   5.493   4.322  10.110 -0.0944  0.7666 -1.1484
   55CHL1   H2B 6525   5.505   4.159  10.099  0.4046  0.7919  0.0572
   55CHL1   C20 6526   5.209   4.186   9.156  0.6277 -0.6077 -0.4770
   55CHL1   H20 6527   5.225   4.079   9.133  1.0280 -1.2420  2.3595
   55CHL1   C21 6528   5.338   4.265   9.132  0.2878 -0.8008 -0.3218
   55CHL1  H21A 6529   5.423   4.224   9.190 -0.0851 -2.6017 -0.9731
   55CHL1  H21B 6530   5.329   4.369   9.171  3.0079 -1.3108  1.9788
   55CHL1  H21C 6531   5.372   4.270   9.026  0.5483 -2.8684 -0.3763
   55CHL1   C22 6532   5.094   4.232   9.044 -0.0655  0.6304 -0.5549
   55CHL1  H22A 6533   5.014   4.155   9.051 -0.8177  1.4973  1.3216
   55CHL1  H22B 6534   5.046   4.330   9.068 -1.1044 -0.5774  2.8497
   55CHL1   C23 6535   5.152   4.230   8.901  0.4410 -0.2673 -0.1289
   55CHL1  H23A 6536   5.224   4.313   8.886 -0.5765  0.2392 -2.7167
   55CHL1  H23B 6537   5.215   4.139   8.897  0.1541 -0.6720  2.5227
   55CHL1   C24 6538   5.049   4.246   8.794  0.0980 -0.2330  0.9750
   55CHL1  H24A 6539   4.961   4.178   8.802 -2.0065  2.0302 -1.0168
   55CHL1  H24B 6540   5.005   4.347   8.813  1.1979  1.0123 -2.3287
   55CHL1   C25 6541   5.100   4.253   8.641 -0.1317 -0.3813  0.2587
   55CHL1   H25 6542   5.143   4.159   8.602 -0.9397  0.4783 -3.0369
   55CHL1   C26 6543   4.988   4.293   8.550 -0.0645  0.3333 -0.2451
   55CHL1  H26A 6544   5.004   4.288   8.440 -2.0905  2.2206 -0.6851
   55CHL1  H26B 6545   4.903   4.226   8.573  1.1526 -1.1185  0.2064
   55CHL1  H26C 6546   4.961   4.395   8.584  1.1506  0.5668  0.0770
   55CHL1   C27 6547   5.215   4.353   8.618  0.2322 -0.2607  0.2860
   55CHL1  H27A 6548   5.256   4.360   8.515  0.3569 -0.6556  0.3064
   55CHL1  H27B 6549   5.189   4.456   8.652  0.2354 -0.7669  1.8885
   55CHL1  H27C 6550   5.298   4.325   8.686 -0.0044  1.9693  1.5965
   56CHL1    C3 6551   1.579   2.984  10.307 -0.0336 -0.4803  0.3156
   56CHL1    H3 6552   1.577   3.092  10.283 -0.0454 -0.2868  1.1306
   56CHL1    O3 6553   1.608   2.966  10.442 -0.3401  0.5848 -0.0672
   56CHL1   H3' 6554   1.611   2.870  10.452  0.8598  0.6351  0.2056
   56CHL1    C4 6555   1.435   2.923  10.287 -0.1138 -0.3524  0.2446
   56CHL1   H4A 6556   1.432   2.823  10.335 -1.6349 -0.3434  0.2174
   56CHL1   H4B 6557   1.369   2.983  10.352 -0.1374  0.4284 -0.4908
   56CHL1    C5 6558   1.397   2.910  10.140  0.3914 -0.2788  0.1062
   56CHL1    C6 6559   1.274   2.962  10.112  0.1774  0.0453 -0.1888
   56CHL1    H6 6560   1.209   3.002  10.192 -0.1782 -3.5002  1.5090
   56CHL1    C7 6561   1.215   2.949   9.971 -0.4080 -0.2760  0.2411
   56CHL1   H7A 6562   1.109   2.914   9.976 -0.1196 -1.5869 -1.6567
   56CHL1   H7B 6563   1.210   3.051   9.928  0.5573 -0.0553  0.6283
   56CHL1    C8 6564   1.300   2.859   9.876 -0.1524  0.1921  0.2217
   56CHL1    H8 6565   1.269   2.757   9.910 -1.3623 -0.2150 -1.9135
   56CHL1   C14 6566   1.262   2.873   9.728 -0.9600 -0.0980  0.1403
   56CHL1   H14 6567   1.304   2.974   9.706  0.8277 -0.6324  0.9224
   56CHL1   C15 6568   1.113   2.879   9.686  0.2011 -0.0527 -0.9615
   56CHL1  H15A 6569   1.068   2.792   9.736 -1.8018  1.0058 -0.8293
   56CHL1  H15B 6570   1.070   2.980   9.705  1.2966  0.5609 -1.6347
   56CHL1   C16 6571   1.122   2.846   9.532  0.0619  0.1457 -0.2932
   56CHL1  H16A 6572   1.061   2.754   9.516  2.4280 -1.8640  1.4251
   56CHL1  H16B 6573   1.083   2.929   9.470 -3.9018 -1.5821 -0.4282
   56CHL1   C17 6574   1.270   2.818   9.502 -0.2657 -0.2199 -0.8446
   56CHL1   H17 6575   1.316   2.915   9.475 -0.3889  0.7384  2.0320
   56CHL1   C13 6576   1.335   2.778   9.634  0.3525  0.2400 -0.6490
   56CHL1   C18 6577   1.306   2.634   9.672  0.3156  0.1283  0.2397
   56CHL1  H18A 6578   1.307   2.602   9.778  1.4276  1.5478  0.6946
   56CHL1  H18B 6579   1.203   2.615   9.636  0.7575 -0.4511 -0.7632
   56CHL1  H18C 6580   1.375   2.568   9.615  1.4216  1.1088  0.4123
   56CHL1   C12 6581   1.483   2.807   9.649 -0.0802  0.2923  0.3291
   56CHL1  H12A 6582   1.552   2.743   9.591 -1.3388 -1.0708  0.2681
   56CHL1  H12B 6583   1.499   2.914   9.622 -1.3811 -0.2247 -2.8846
   56CHL1   C11 6584   1.535   2.792   9.789  0.2170 -0.2786 -0.0872
   56CHL1  H11A 6585   1.522   2.686   9.818 -2.2776 -0.5981 -1.9598
   56CHL1  H11B 6586   1.645   2.803   9.792  0.1120  0.6543  0.8371
   56CHL1    C9 6587   1.455   2.876   9.894 -0.0077 -0.6066 -0.3840
   56CHL1    H9 6588   1.472   2.983   9.870  1.0464 -0.8728 -0.8973
   56CHL1   C10 6589   1.499   2.846  10.043 -0.0949  0.4674  0.3909
   56CHL1   C19 6590   1.491   2.692  10.076 -0.0504  0.3011 -0.2676
   56CHL1  H19A 6591   1.527   2.686  10.181 -0.4782  2.1956  0.0270
   56CHL1  H19B 6592   1.385   2.659  10.074  0.4177 -1.4722  1.3889
   56CHL1  H19C 6593   1.555   2.635  10.007 -1.4643  0.5706 -1.8655
   56CHL1    C1 6594   1.637   2.909  10.075 -0.4073  0.6047 -0.7186
   56CHL1   H1A 6595   1.708   2.851  10.011 -0.8376  1.5694 -2.0925
   56CHL1   H1B 6596   1.630   3.017  10.049 -0.0577  0.5375 -1.1002
   56CHL1    C2 6597   1.687   2.912  10.219 -0.3604 -0.2372 -0.5385
   56CHL1   H2A 6598   1.784   2.962  10.240 -0.1407 -0.7383 -0.3275
   56CHL1   H2B 6599   1.709   2.805  10.242  3.7187  0.1267 -1.8859
   56CHL1   C20 6600   1.292   2.724   9.381  0.1366  0.3821 -0.1266
   56CHL1   H20 6601   1.253   2.623   9.406  1.3142  0.1487  0.8781
   56CHL1   C21 6602   1.435   2.686   9.343 -0.2970 -0.4936  0.1818
   56CHL1  H21A 6603   1.503   2.665   9.428  0.6054 -0.5819 -0.5568
   56CHL1  H21B 6604   1.464   2.774   9.282  0.4332 -0.7094  0.2173
   56CHL1  H21C 6605   1.436   2.597   9.277  0.4424  1.1197 -2.1352
   56CHL1   C22 6606   1.208   2.777   9.271  0.4635 -0.7669  0.4108
   56CHL1  H22A 6607   1.102   2.763   9.300  0.5679 -0.4244  0.9898
   56CHL1  H22B 6608   1.218   2.885   9.248  0.0533 -0.6353  0.8247
   56CHL1   C23 6609   1.231   2.707   9.134  0.0490 -0.3920 -0.2228
   56CHL1  H23A 6610   1.336   2.725   9.103  0.3510 -1.3464  0.2091
   56CHL1  H23B 6611   1.214   2.599   9.149  0.0224 -0.3216  0.2774
   56CHL1   C24 6612   1.138   2.745   9.004 -0.0829 -1.2842 -0.5021
   56CHL1  H24A 6613   1.034   2.718   9.029 -0.9301  2.0187  0.1088
   56CHL1  H24B 6614   1.145   2.856   8.993 -1.1587 -1.2712 -1.2559
   56CHL1   C25 6615   1.172   2.684   8.865 -0.4356  0.1555  0.4448
   56CHL1   H25 6616   1.146   2.577   8.875  2.9670 -0.9565 -1.0794
   56CHL1   C26 6617   1.080   2.752   8.753 -0.3160 -0.0908 -0.2035
   56CHL1  H26A 6618   1.095   2.704   8.654  0.4792 -1.5991  0.6152
   56CHL1  H26B 6619   0.972   2.745   8.777 -0.5088 -1.1724 -1.3017
   56CHL1  H26C 6620   1.106   2.860   8.745  2.6252 -0.5313  1.7623
   56CHL1   C27 6621   1.320   2.691   8.837 -0.2070  0.3703 -0.0033
   56CHL1  H27A 6622   1.385   2.641   8.912  0.4518 -1.1120 -1.4983
   56CHL1  H27B 6623   1.350   2.640   8.743 -0.0088 -2.6588  1.5818
   56CHL1  H27C 6624   1.360   2.793   8.852 -0.3558  0.0968  2.7924
   57CHL1    C3 6625   6.299   4.865  10.559 -0.1359  0.3665 -1.1137
   57CHL1    H3 6626   6.290   4.755  10.546 -1.9553  0.4859 -1.0954
   57CHL1    O3 6627   6.287   4.907  10.695  0.1434 -0.0243 -0.2420
   57CHL1   H3' 6628   6.329   4.993  10.701  0.0303 -0.0457  1.1860
   57CHL1    C4 6629   6.445   4.910  10.517  0.6855  0.0336 -0.0271
   57CHL1   H4A 6630   6.466   5.015  10.547 -0.3030  0.9215 -2.1868
   57CHL1   H4B 6631   6.521   4.847  10.568  0.3291 -1.2969 -1.0899
   57CHL1    C5 6632   6.459   4.886  10.367  0.8360  0.1113  0.6159
   57CHL1    C6 6633   6.553   4.806  10.311  0.6405  1.0169 -0.1162
   57CHL1    H6 6634   6.627   4.761  10.378  0.2485  0.5154 -0.0122
   57CHL1    C7 6635   6.573   4.779  10.161 -0.2935 -0.5876  0.1340
   57CHL1   H7A 6636   6.681   4.801  10.142 -0.6627 -1.1465 -3.2625
   57CHL1   H7B 6637   6.558   4.669  10.147 -0.4339 -1.0454  3.1248
   57CHL1    C8 6638   6.495   4.874  10.076  0.6762 -0.7101  1.0065
   57CHL1    H8 6639   6.551   4.970  10.080 -0.1684 -0.1493 -0.1018
   57CHL1   C14 6640   6.490   4.820   9.930  0.0844 -0.4835 -0.5616
   57CHL1   H14 6641   6.440   4.721   9.934 -0.6579 -0.1058 -0.2667
   57CHL1   C15 6642   6.623   4.785   9.852 -0.0747 -0.0668 -0.0482
   57CHL1  H15A 6643   6.690   4.873   9.853 -1.2565  0.9558 -2.4449
   57CHL1  H15B 6644   6.668   4.696   9.900 -1.6155  0.9992  3.7697
   57CHL1   C16 6645   6.578   4.754   9.712 -0.2427 -0.0213  0.8041
   57CHL1  H16A 6646   6.643   4.803   9.637 -1.3306  1.8017  0.9819
   57CHL1  H16B 6647   6.576   4.645   9.691 -1.9012 -0.4795  2.9841
   57CHL1   C17 6648   6.437   4.820   9.705  0.4025  0.6347  0.0868
   57CHL1   H17 6649   6.369   4.732   9.718 -0.6201  1.0680 -1.8351
   57CHL1   C13 6650   6.409   4.906   9.825 -0.2637  0.3106 -0.8963
   57CHL1   C18 6651   6.469   5.038   9.809  0.4651 -0.2898 -0.2987
   57CHL1  H18A 6652   6.498   5.098   9.898 -1.0363  1.8746 -1.1844
   57CHL1  H18B 6653   6.561   5.030   9.747  0.2422  0.5726 -0.7409
   57CHL1  H18C 6654   6.404   5.111   9.758 -2.3083 -1.9269  0.6821
   57CHL1   C12 6655   6.262   4.911   9.877  0.1572  0.5600  0.1655
   57CHL1  H12A 6656   6.212   4.990   9.818 -0.5168 -0.7204 -1.0403
   57CHL1  H12B 6657   6.203   4.817   9.871  0.8359  0.1537 -0.2482
   57CHL1   C11 6658   6.257   4.964  10.025 -0.4332 -0.4331  0.0514
   57CHL1  H11A 6659   6.275   5.074  10.020 -0.0750 -0.4913  0.0467
   57CHL1  H11B 6660   6.150   4.942  10.046 -0.2587  0.6919  2.4681
   57CHL1    C9 6661   6.353   4.901  10.130 -0.2046  0.2179  0.3559
   57CHL1    H9 6662   6.317   4.796  10.134  1.7317 -0.4415  3.1515
   57CHL1   C10 6663   6.340   4.948  10.274 -0.5364  0.3460 -0.6889
   57CHL1   C19 6664   6.358   5.103  10.282  0.5549  0.0861  0.9055
   57CHL1  H19A 6665   6.310   5.142  10.375 -3.1940 -1.2425 -0.2860
   57CHL1  H19B 6666   6.466   5.124  10.294  0.8793 -0.2674 -1.1161
   57CHL1  H19C 6667   6.313   5.160  10.198 -0.9900 -0.0682  1.5873
   57CHL1    C1 6668   6.196   4.914  10.324 -0.0340  0.1243 -0.5730
   57CHL1   H1A 6669   6.118   4.979  10.279 -1.7344 -0.4251  1.4252
   57CHL1   H1B 6670   6.161   4.813  10.292  1.5808 -0.2935 -1.1845
   57CHL1    C2 6671   6.174   4.920  10.478 -0.2268  0.2854 -0.3424
   57CHL1   H2A 6672   6.087   4.854  10.498 -1.1974  1.0529 -1.8739
   57CHL1   H2B 6673   6.147   5.024  10.507 -3.1336 -0.3913 -0.3434
   57CHL1   C20 6674   6.393   4.867   9.564 -0.1739 -0.1936  0.3951
   57CHL1   H20 6675   6.314   4.943   9.578  0.3608  0.8991 -2.0074
   57CHL1   C21 6676   6.353   4.749   9.478  0.3189 -0.4796 -0.3600
   57CHL1  H21A 6677   6.436   4.676   9.492  1.2176  0.3192 -1.3013
   57CHL1  H21B 6678   6.359   4.763   9.368 -1.1011  0.3594 -0.3516
   57CHL1  H21C 6679   6.253   4.708   9.503  0.7090  0.5768  3.6964
   57CHL1   C22 6680   6.505   4.941   9.485 -0.0947  0.2870  0.5319
   57CHL1  H22A 6681   6.556   5.010   9.555  1.1679  2.0712 -2.0099
   57CHL1  H22B 6682   6.585   4.879   9.438  1.6516  2.2655  0.7659
   57CHL1   C23 6683   6.447   5.037   9.383  0.4915  0.5416  1.0211
   57CHL1  H23A 6684   6.363   4.990   9.327  0.7878  1.7271 -0.4721
   57CHL1  H23B 6685   6.392   5.114   9.441 -0.6036  1.4033 -1.0452
   57CHL1   C24 6686   6.555   5.080   9.287  0.2122 -0.6746  0.2547
   57CHL1  H24A 6687   6.635   5.132   9.344 -0.0131 -1.2735  1.1456
   57CHL1  H24B 6688   6.600   4.998   9.227  1.2395  1.3498 -1.9263
   57CHL1   C25 6689   6.519   5.182   9.175 -0.5796  0.5856  0.2611
   57CHL1   H25 6690   6.493   5.273   9.233 -1.0343  1.5191 -1.3526
   57CHL1   C26 6691   6.647   5.204   9.091  0.0083 -0.0167 -0.3888
   57CHL1  H26A 6692   6.651   5.125   9.013 -1.4961 -0.8120  0.2820
   57CHL1  H26B 6693   6.658   5.303   9.042  1.8654  1.8415  3.3755
   57CHL1  H26C 6694   6.734   5.190   9.159 -0.4986 -0.6450  0.1478
   57CHL1   C27 6695   6.397   5.148   9.084 -0.1694  0.2525  0.5915
   57CHL1  H27A 6696   6.313   5.104   9.143  0.0483  0.5410  1.1233
   57CHL1  H27B 6697   6.362   5.238   9.028  0.4130  0.0654 -0.0866
   57CHL1  H27C 6698   6.423   5.075   9.004 -0.2173  0.3909  0.4494
   58CHL1    C3 6699   0.797   3.040  10.036  0.7725  0.6628  0.4986
   58CHL1    H3 6700   0.895   2.990  10.040  0.3840 -0.1238  0.3404
   58CHL1    O3 6701   0.735   3.040  10.161  0.0165 -0.1251 -0.0206
   58CHL1   H3' 6702   0.702   3.130  10.166  0.5988  0.3895 -3.2606
   58CHL1    C4 6703   0.810   3.186   9.974 -0.2079  0.5080  0.0375
   58CHL1   H4A 6704   0.710   3.227  10.000 -0.1218  0.0284  1.2235
   58CHL1   H4B 6705   0.890   3.241  10.028 -0.0781 -0.2311  0.6305
   58CHL1    C5 6706   0.831   3.204   9.827 -0.2315  0.1178  0.1841
   58CHL1    C6 6707   0.946   3.264   9.792 -0.2809 -0.4374 -0.8618
   58CHL1    H6 6708   1.018   3.292   9.870  0.3848 -1.1740 -1.2033
   58CHL1    C7 6709   0.975   3.291   9.645 -0.4630 -0.0674 -0.0105
   58CHL1   H7A 6710   1.019   3.392   9.638 -0.0525 -0.2486 -0.0740
   58CHL1   H7B 6711   1.058   3.222   9.620 -0.2258  0.0559  0.4362
   58CHL1    C8 6712   0.863   3.255   9.551  0.0803  0.4159  0.2224
   58CHL1    H8 6713   0.780   3.329   9.547 -2.0054 -1.8300 -3.5352
   58CHL1   C14 6714   0.913   3.227   9.408  0.3037  0.3084  0.2180
   58CHL1   H14 6715   0.988   3.144   9.410  0.3947  0.1919 -2.8691
   58CHL1   C15 6716   0.994   3.332   9.337 -0.4741  0.0630  0.4939
   58CHL1  H15A 6717   0.941   3.428   9.353 -1.9606 -0.2152 -2.2052
   58CHL1  H15B 6718   1.092   3.340   9.389  0.4135  2.8599 -1.4165
   58CHL1   C16 6719   0.990   3.299   9.192 -0.1519  0.6710 -0.2153
   58CHL1  H16A 6720   0.970   3.399   9.147  0.8140  0.5683 -0.9219
   58CHL1  H16B 6721   1.081   3.259   9.141 -0.2219  1.7957 -1.2746
   58CHL1   C17 6722   0.881   3.194   9.176 -0.0579  0.1318 -0.8031
   58CHL1   H17 6723   0.932   3.096   9.166 -0.5576 -0.1306 -0.7401
   58CHL1   C13 6724   0.807   3.188   9.310  0.4602 -0.5554  0.3341
   58CHL1   C18 6725   0.692   3.295   9.290  0.3615  0.8175  0.1411
   58CHL1  H18A 6726   0.639   3.321   9.385 -0.9645 -2.0767  0.2991
   58CHL1  H18B 6727   0.742   3.387   9.253  0.1138  1.9096  2.3219
   58CHL1  H18C 6728   0.613   3.258   9.222  0.8514 -0.1077  0.0654
   58CHL1   C12 6729   0.744   3.052   9.352  0.5536  0.5710  0.3306
   58CHL1  H12A 6730   0.682   3.002   9.275  0.2305  1.0754  0.2621
   58CHL1  H12B 6731   0.829   2.982   9.367 -0.6461 -1.0871 -0.2977
   58CHL1   C11 6732   0.683   3.067   9.497 -0.4141  0.0626  0.6398
   58CHL1  H11A 6733   0.594   3.133   9.488 -2.9941 -3.3473 -1.6838
   58CHL1  H11B 6734   0.641   2.967   9.521  1.0726 -0.2411  2.1803
   58CHL1    C9 6735   0.789   3.127   9.594  0.2758  0.5836 -0.4733
   58CHL1    H9 6736   0.865   3.046   9.599  0.5726  0.9137  3.6430
   58CHL1   C10 6737   0.739   3.129   9.742 -0.2131  0.1804  0.0910
   58CHL1   C19 6738   0.601   3.205   9.747 -0.0888  0.1171 -0.0025
   58CHL1  H19A 6739   0.559   3.207   9.850 -1.2431  0.9244 -0.4679
   58CHL1  H19B 6740   0.616   3.313   9.728  0.4165 -0.0870 -0.7756
   58CHL1  H19C 6741   0.523   3.155   9.686 -1.5703  0.8749  1.1938
   58CHL1    C1 6742   0.727   2.978   9.795 -0.4922 -0.5189  0.0160
   58CHL1   H1A 6743   0.648   2.934   9.730  0.1732 -0.0278 -1.1494
   58CHL1   H1B 6744   0.827   2.939   9.768  0.7842  2.2695  0.3979
   58CHL1    C2 6745   0.697   2.959   9.947  0.0771 -0.3136 -0.0027
   58CHL1   H2A 6746   0.701   2.849   9.961  1.0149 -0.4854 -1.4178
   58CHL1   H2B 6747   0.593   2.995   9.958  0.5975  1.2052  0.0963
   58CHL1   C20 6748   0.819   3.208   9.037  0.0732 -0.1115 -0.5306
   58CHL1   H20 6749   0.760   3.302   9.036  0.6072  0.2280 -0.9866
   58CHL1   C21 6750   0.718   3.090   9.012 -0.2264 -0.4985 -0.0191
   58CHL1  H21A 6751   0.633   3.093   9.083  0.8851 -1.2476  1.3963
   58CHL1  H21B 6752   0.762   2.988   9.013 -1.8347 -1.2268  0.2826
   58CHL1  H21C 6753   0.669   3.102   8.912  0.3786  0.1843 -0.2373
   58CHL1   C22 6754   0.922   3.208   8.931  0.6793  0.0652 -0.3011
   58CHL1  H22A 6755   0.992   3.293   8.942  0.1587  0.5483 -0.6355
   58CHL1  H22B 6756   0.969   3.108   8.942 -1.2355 -0.8701 -0.2157
   58CHL1   C23 6757   0.874   3.231   8.782 -0.9788 -0.4417 -0.2095
   58CHL1  H23A 6758   0.796   3.156   8.758 -1.0546 -0.3577 -0.2255
   58CHL1  H23B 6759   0.812   3.321   8.765 -2.9224 -1.6420  0.2021
   58CHL1   C24 6760   1.001   3.214   8.690  0.2000  0.1554 -0.1462
   58CHL1  H24A 6761   1.062   3.307   8.697  0.5753  0.1183 -2.1642
   58CHL1  H24B 6762   1.052   3.125   8.732  0.2399  0.2598  0.0280
   58CHL1   C25 6763   0.968   3.191   8.544  0.1635 -0.2943  0.7451
   58CHL1   H25 6764   0.910   3.274   8.497  2.4658 -0.2193 -2.2587
   58CHL1   C26 6765   1.092   3.199   8.448 -0.7239  0.6747  0.0598
   58CHL1  H26A 6766   1.052   3.183   8.346  0.5571  0.7744 -0.4725
   58CHL1  H26B 6767   1.150   3.294   8.455  0.9562 -0.3019  0.0918
   58CHL1  H26C 6768   1.169   3.119   8.455 -0.5877  0.6360 -1.5485
   58CHL1   C27 6769   0.882   3.060   8.519 -0.6302 -0.0079 -0.2849
   58CHL1  H27A 6770   0.784   3.070   8.570  0.3401  1.0757  1.4719
   58CHL1  H27B 6771   0.855   3.041   8.413 -3.7071  1.6712  0.0740
   58CHL1  H27C 6772   0.944   2.975   8.552  0.9556  0.6362 -1.4563
   59CHL1    C3 6773   0.375   3.671  10.357  0.3690 -0.7222  0.4645
   59CHL1    H3 6774   0.349   3.583  10.295 -1.9148  0.4879 -0.4695
   59CHL1    O3 6775   0.393   3.623  10.485 -0.5091 -0.3024 -0.1533
   59CHL1   H3' 6776   0.370   3.702  10.535  0.7366  1.4131 -2.1708
   59CHL1    C4 6777   0.515   3.734  10.306  0.4399 -0.3369 -0.0064
   59CHL1   H4A 6778   0.557   3.802  10.383  1.3660 -1.7503  0.7824
   59CHL1   H4B 6779   0.583   3.646  10.309 -0.8288 -1.3682 -0.4088
   59CHL1    C5 6780   0.498   3.803  10.174 -0.2006 -0.0623 -0.0946
   59CHL1    C6 6781   0.571   3.759  10.069  0.4495  0.3183 -0.8586
   59CHL1    H6 6782   0.648   3.681  10.082  2.3738  1.6242 -3.4383
   59CHL1    C7 6783   0.560   3.816   9.929  0.3269 -0.3915 -0.2356
   59CHL1   H7A 6784   0.659   3.805   9.881  0.8992  1.2024  0.5046
   59CHL1   H7B 6785   0.496   3.750   9.867  1.0514  0.2101 -1.6543
   59CHL1    C8 6786   0.500   3.957   9.939  0.0209 -0.2756 -0.1999
   59CHL1    H8 6787   0.575   4.026   9.984 -0.6192 -0.9214  1.9548
   59CHL1   C14 6788   0.470   3.996   9.795 -0.1094 -0.0063 -0.4220
   59CHL1   H14 6789   0.392   3.923   9.766 -2.2494  2.6296 -1.7685
   59CHL1   C15 6790   0.579   3.981   9.688  0.4290  0.1211  0.4880
   59CHL1  H15A 6791   0.676   4.016   9.727 -0.2474 -0.8735  3.3094
   59CHL1  H15B 6792   0.582   3.879   9.644  1.5775 -0.3090  1.5230
   59CHL1   C16 6793   0.541   4.082   9.578  0.9390  0.1391  0.3546
   59CHL1  H16A 6794   0.611   4.167   9.565 -0.8696  1.4782 -1.0966
   59CHL1  H16B 6795   0.523   4.026   9.483 -1.1278 -0.9289  1.3055
   59CHL1   C17 6796   0.402   4.135   9.613  0.6799 -0.1782 -0.0462
   59CHL1   H17 6797   0.328   4.062   9.575 -0.4637  0.1099  1.5081
   59CHL1   C13 6798   0.397   4.125   9.769 -0.1309 -0.2032  0.4522
   59CHL1   C18 6799   0.471   4.239   9.843  0.0465 -0.4031  0.0170
   59CHL1  H18A 6800   0.580   4.231   9.821 -0.1373 -2.9642 -0.2420
   59CHL1  H18B 6801   0.432   4.338   9.812 -1.0208 -1.0674 -0.8637
   59CHL1  H18C 6802   0.462   4.244   9.953  1.3467  1.3747  0.0938
   59CHL1   C12 6803   0.257   4.112   9.837 -0.1353 -0.1176 -0.1636
   59CHL1  H12A 6804   0.204   4.209   9.841  0.2092  0.0424  0.6565
   59CHL1  H12B 6805   0.190   4.042   9.782 -3.5560  3.1813 -0.5598
   59CHL1   C11 6806   0.267   4.068   9.991  0.2460  0.0291 -0.2598
   59CHL1  H11A 6807   0.295   4.165  10.038 -1.6807  0.6377 -0.2535
   59CHL1  H11B 6808   0.162   4.057  10.027 -0.0741  1.7594 -0.5646
   59CHL1    C9 6809   0.368   3.952  10.025 -0.5472 -0.2356  0.9795
   59CHL1    H9 6810   0.324   3.864   9.973  1.1789 -0.5463 -0.0218
   59CHL1   C10 6811   0.390   3.913  10.168 -0.5703 -0.0424  0.3506
   59CHL1   C19 6812   0.431   4.037  10.250 -0.6933  0.9985 -0.0838
   59CHL1  H19A 6813   0.470   4.011  10.350  2.0709  0.3922 -1.2092
   59CHL1  H19B 6814   0.510   4.100  10.203  0.3128 -0.4832 -0.4285
   59CHL1  H19C 6815   0.335   4.094  10.249 -0.4098  1.5084 -1.7042
   59CHL1    C1 6816   0.258   3.844  10.221 -0.5290 -0.0935  0.8727
   59CHL1   H1A 6817   0.189   3.930  10.235  0.0622  0.4654  0.4536
   59CHL1   H1B 6818   0.223   3.780  10.137  0.7203 -0.3918  0.5623
   59CHL1    C2 6819   0.259   3.768  10.354  0.4017 -1.1645 -0.4889
   59CHL1   H2A 6820   0.162   3.721  10.379  0.1144 -0.5376 -0.4132
   59CHL1   H2B 6821   0.266   3.853  10.427 -0.3456 -0.9466 -0.6659
   59CHL1   C20 6822   0.373   4.270   9.549 -0.8673 -0.3333  0.2322
   59CHL1   H20 6823   0.437   4.348   9.596  0.3297  0.3829 -2.4057
   59CHL1   C21 6824   0.226   4.305   9.565 -0.2058  0.5298  0.0974
   59CHL1  H21A 6825   0.207   4.323   9.673 -1.6167 -0.0985 -0.0255
   59CHL1  H21B 6826   0.150   4.235   9.524 -0.9687  0.9165  0.8266
   59CHL1  H21C 6827   0.202   4.401   9.514  1.0677  1.0414  0.4226
   59CHL1   C22 6828   0.406   4.274   9.398 -0.0236  0.1746  0.4501
   59CHL1  H22A 6829   0.511   4.241   9.380  0.0569  1.1212 -0.9379
   59CHL1  H22B 6830   0.337   4.213   9.338  2.8655 -1.4161 -1.4912
   59CHL1   C23 6831   0.411   4.416   9.335  0.0347  0.0756 -0.8162
   59CHL1  H23A 6832   0.319   4.474   9.359 -0.9549 -1.1848 -1.4221
   59CHL1  H23B 6833   0.496   4.470   9.383 -0.8395  0.5533  0.2332
   59CHL1   C24 6834   0.424   4.408   9.186  0.2621  0.3265 -0.0635
   59CHL1  H24A 6835   0.520   4.364   9.151 -1.2189 -2.1720 -1.2103
   59CHL1  H24B 6836   0.344   4.343   9.144  0.2296  0.7439 -0.6791
   59CHL1   C25 6837   0.408   4.541   9.108 -0.0336  0.6678 -0.8737
   59CHL1   H25 6838   0.307   4.581   9.132 -0.3063 -0.6072  0.1748
   59CHL1   C26 6839   0.515   4.648   9.162  0.0715 -0.0439 -0.3661
   59CHL1  H26A 6840   0.509   4.670   9.270  1.3462 -1.1923 -0.0240
   59CHL1  H26B 6841   0.616   4.631   9.118 -0.7005  0.9281 -2.6704
   59CHL1  H26C 6842   0.502   4.749   9.118  1.2160  0.0552 -0.5103
   59CHL1   C27 6843   0.425   4.535   8.955 -1.0106 -0.5810 -0.4519
   59CHL1  H27A 6844   0.373   4.624   8.912  0.9249  1.1177  0.5180
   59CHL1  H27B 6845   0.530   4.538   8.920 -0.9838 -1.2856 -0.4303
   59CHL1  H27C 6846   0.379   4.442   8.915  2.0873 -2.4585  0.0735
   60CHL1    C3 6847   3.060   5.540  10.166 -0.6958 -0.5268 -0.1458
   60CHL1    H3 6848   3.000   5.461  10.116 -0.9868  0.8099 -2.0536
   60CHL1    O3 6849   3.054   5.524  10.305  0.3927 -0.0349  0.1296
   60CHL1   H3' 6850   3.094   5.438  10.318 -1.9926 -1.2787 -0.1939
   60CHL1    C4 6851   3.211   5.546  10.110 -0.8126 -0.4301 -0.2123
   60CHL1   H4A 6852   3.270   5.630  10.152  1.5015 -1.9949 -0.1185
   60CHL1   H4B 6853   3.265   5.454  10.143  0.1800 -0.6322 -2.2591
   60CHL1    C5 6854   3.215   5.549   9.961  0.6476 -0.7757  0.6053
   60CHL1    C6 6855   3.257   5.448   9.894  0.7297  0.1378 -0.8215
   60CHL1    H6 6856   3.307   5.368   9.951  0.1462  0.5934  0.3588
   60CHL1    C7 6857   3.254   5.444   9.747  0.1501  0.4108 -1.3336
   60CHL1   H7A 6858   3.356   5.423   9.708  1.6555  2.1159  1.3011
   60CHL1   H7B 6859   3.185   5.363   9.715  0.5913  0.1101 -1.5395
   60CHL1    C8 6860   3.219   5.579   9.675 -0.7372  0.4822 -0.2782
   60CHL1    H8 6861   3.307   5.646   9.682 -0.9235  0.8889 -1.5699
   60CHL1   C14 6862   3.188   5.557   9.524 -0.3621  0.2504  0.3395
   60CHL1   H14 6863   3.095   5.495   9.527 -0.4136  0.3538  2.2092
   60CHL1   C15 6864   3.284   5.484   9.436  0.3150  0.4219  0.1982
   60CHL1  H15A 6865   3.380   5.534   9.460  0.1589  0.2775  1.1600
   60CHL1  H15B 6866   3.297   5.375   9.455 -1.7035 -0.1007 -1.1353
   60CHL1   C16 6867   3.246   5.519   9.296 -0.6940 -0.3448  0.3828
   60CHL1  H16A 6868   3.335   5.570   9.253 -0.9391 -0.7625 -0.6475
   60CHL1  H16B 6869   3.214   5.429   9.239  1.9921 -1.4631  0.4638
   60CHL1   C17 6870   3.132   5.624   9.303  0.4398 -0.5338 -0.3542
   60CHL1   H17 6871   3.030   5.581   9.314 -0.6651  2.2737  1.7586
   60CHL1   C13 6872   3.148   5.690   9.452  0.4154  0.9789  0.8370
   60CHL1   C18 6873   3.260   5.792   9.444  0.2404 -0.3459  0.1861
   60CHL1  H18A 6874   3.209   5.885   9.412  0.3274 -1.1071 -2.3533
   60CHL1  H18B 6875   3.308   5.813   9.542 -0.3012 -0.6957  0.5292
   60CHL1  H18C 6876   3.339   5.775   9.367  1.2453  0.0604  1.0974
   60CHL1   C12 6877   3.025   5.747   9.522 -0.5584 -0.5022  0.0100
   60CHL1  H12A 6878   2.994   5.845   9.480 -2.4575 -1.6642 -1.4346
   60CHL1  H12B 6879   2.948   5.670   9.501 -0.4603 -0.0312 -2.3474
   60CHL1   C11 6880   3.042   5.771   9.670  0.0801  0.1317 -0.1241
   60CHL1  H11A 6881   3.114   5.855   9.676 -0.6017  0.8953 -1.8681
   60CHL1  H11B 6882   2.950   5.815   9.713 -2.1541 -1.5355 -2.8162
   60CHL1    C9 6883   3.107   5.643   9.751  0.2378 -0.4878 -0.6581
   60CHL1    H9 6884   3.028   5.566   9.757  2.1340 -2.4016  1.4196
   60CHL1   C10 6885   3.139   5.674   9.899 -0.2369  0.6139  0.5357
   60CHL1   C19 6886   3.231   5.795   9.911 -0.2815  0.3418 -0.1122
   60CHL1  H19A 6887   3.311   5.784   9.835  0.1563  1.8067  0.0974
   60CHL1  H19B 6888   3.171   5.886   9.887 -0.6762  0.4589  1.2616
   60CHL1  H19C 6889   3.275   5.826  10.008 -1.7449  1.8441  0.1273
   60CHL1    C1 6890   3.009   5.702   9.979  0.0371  0.0918  0.3622
   60CHL1   H1A 6891   2.965   5.803   9.963 -1.4080 -0.4216  0.8434
   60CHL1   H1B 6892   2.934   5.634   9.933 -0.4429  1.4820 -1.0007
   60CHL1    C2 6893   3.006   5.678  10.131 -0.2552 -0.5148 -0.2461
   60CHL1   H2A 6894   2.901   5.669  10.165  0.1011 -1.2282  0.7174
   60CHL1   H2B 6895   3.051   5.755  10.197 -1.7720 -0.8565  1.2563
   60CHL1   C20 6896   3.134   5.719   9.184 -0.4278  0.7690  0.0652
   60CHL1   H20 6897   3.214   5.796   9.191  0.8525 -0.6163  1.0962
   60CHL1   C21 6898   3.012   5.814   9.184  0.6465  1.0413  0.2972
   60CHL1  H21A 6899   2.989   5.863   9.280 -4.5733 -0.4800  0.1449
   60CHL1  H21B 6900   2.925   5.746   9.169  0.6767  1.4239 -2.1226
   60CHL1  H21C 6901   3.012   5.885   9.098  1.2825 -0.3286 -0.8831
   60CHL1   C22 6902   3.148   5.644   9.050 -0.0130  0.8274  0.1193
   60CHL1  H22A 6903   3.153   5.723   8.972  1.6923  0.3346 -0.3088
   60CHL1  H22B 6904   3.247   5.593   9.048  1.0612  2.8148 -1.4125
   60CHL1   C23 6905   3.029   5.551   9.004 -0.3368  0.3084 -0.5023
   60CHL1  H23A 6906   3.028   5.475   9.085  0.0518 -0.6666 -1.3852
   60CHL1  H23B 6907   2.933   5.607   9.004  1.2512  3.2677  1.2586
   60CHL1   C24 6908   3.055   5.469   8.873 -0.3460 -0.0571  0.3759
   60CHL1  H24A 6909   3.160   5.447   8.843 -0.1099  0.8508  0.4923
   60CHL1  H24B 6910   3.005   5.370   8.879  0.4384 -0.4058  1.5604
   60CHL1   C25 6911   3.000   5.544   8.747  0.1404 -0.1256  0.6589
   60CHL1   H25 6912   3.030   5.651   8.747 -2.7958  0.7653  1.1868
   60CHL1   C26 6913   3.053   5.474   8.613  0.0363  0.2736 -0.2861
   60CHL1  H26A 6914   3.164   5.478   8.608  0.0356 -0.7306 -1.9088
   60CHL1  H26B 6915   3.027   5.366   8.613 -0.2524  0.2593 -3.1161
   60CHL1  H26C 6916   3.013   5.525   8.522  0.1567 -1.0556 -1.1047
   60CHL1   C27 6917   2.844   5.536   8.735 -0.1471 -0.0121  0.1512
   60CHL1  H27A 6918   2.810   5.430   8.741  0.8630 -0.3634 -0.1759
   60CHL1  H27B 6919   2.797   5.594   8.817  0.9076 -1.6419  1.9998
   60CHL1  H27C 6920   2.810   5.583   8.641  0.3411 -0.6793 -0.3710
   61CHL1    C3 6921   5.305   1.892  10.286  0.3863  0.5279  0.6564
   61CHL1    H3 6922   5.408   1.932  10.273 -0.3325  3.3228  2.5724
   61CHL1    O3 6923   5.301   1.834  10.418 -0.4088  0.3282  0.1073
   61CHL1   H3' 6924   5.257   1.895  10.477 -1.6108 -0.4173  0.0257
   61CHL1    C4 6925   5.186   1.995  10.273  0.0938 -0.8949 -0.4064
   61CHL1   H4A 6926   5.091   1.956  10.316  0.9699  1.4101  4.3587
   61CHL1   H4B 6927   5.205   2.082  10.340  0.8954 -1.2146 -0.2065
   61CHL1    C5 6928   5.170   2.051  10.135  0.0574  0.2029 -0.0029
   61CHL1    C6 6929   5.170   2.181  10.110 -0.1286  0.1248 -0.2316
   61CHL1    H6 6930   5.166   2.249  10.197  0.4231  0.3198 -0.3513
   61CHL1    C7 6931   5.166   2.250   9.970  0.8078 -0.0297  0.2079
   61CHL1   H7A 6932   5.097   2.336   9.978 -0.7501 -1.1890 -0.3444
   61CHL1   H7B 6933   5.263   2.292   9.936 -0.6219  2.0719 -1.5652
   61CHL1    C8 6934   5.115   2.146   9.868 -0.5212  0.2770  0.0629
   61CHL1    H8 6935   5.006   2.131   9.884 -0.9663  2.6172 -0.3917
   61CHL1   C14 6936   5.132   2.192   9.724  0.3850 -0.7687  0.4345
   61CHL1   H14 6937   5.242   2.201   9.711  0.2191 -0.8445 -1.3503
   61CHL1   C15 6938   5.077   2.338   9.687 -0.4204 -0.5813  0.1743
   61CHL1  H15A 6939   4.976   2.327   9.733 -0.4520  0.1462  0.2966
   61CHL1  H15B 6940   5.137   2.418   9.736  0.8534 -1.6171  0.3398
   61CHL1   C16 6941   5.053   2.339   9.533 -0.0285 -0.1786  0.1303
   61CHL1  H16A 6942   4.944   2.352   9.515  0.0157  2.1146  1.1296
   61CHL1  H16B 6943   5.097   2.433   9.493 -2.5090  1.1878  0.4363
   61CHL1   C17 6944   5.110   2.199   9.487  0.2349 -0.4423 -0.4312
   61CHL1   H17 6945   5.221   2.194   9.484  0.1843 -2.1312 -0.5933
   61CHL1   C13 6946   5.090   2.101   9.611 -0.1080 -0.4598 -0.3899
   61CHL1   C18 6947   4.943   2.058   9.631 -0.5151  0.2011  0.4839
   61CHL1  H18A 6948   4.910   1.998   9.543  1.8657  0.2027 -0.4631
   61CHL1  H18B 6949   4.920   1.993   9.718  1.7703 -0.3354  0.7360
   61CHL1  H18C 6950   4.882   2.151   9.632 -0.1896  0.4119  0.7089
   61CHL1   C12 6951   5.174   1.968   9.621 -0.2477 -0.2447 -0.9563
   61CHL1  H12A 6952   5.141   1.899   9.541 -2.1093 -0.8983  0.3010
   61CHL1  H12B 6953   5.283   1.989   9.613 -0.1370 -0.1803  0.4808
   61CHL1   C11 6954   5.162   1.907   9.763 -0.1663  0.6741  1.1037
   61CHL1  H11A 6955   5.060   1.862   9.765 -0.7528  1.9457  0.8201
   61CHL1  H11B 6956   5.233   1.822   9.763 -0.4897  0.3616 -0.4085
   61CHL1    C9 6957   5.192   2.007   9.878 -0.2302  0.3667 -0.6620
   61CHL1    H9 6958   5.300   2.025   9.860 -0.2871  1.0755 -0.3661
   61CHL1   C10 6959   5.177   1.942  10.023  0.3926 -0.6756 -0.8540
   61CHL1   C19 6960   5.040   1.866  10.032 -0.7658 -0.1624  0.4025
   61CHL1  H19A 6961   5.025   1.811  10.127  1.1126 -0.8618  0.3282
   61CHL1  H19B 6962   4.957   1.934  10.002  1.0541  1.7270 -0.5709
   61CHL1  H19C 6963   5.055   1.787   9.956 -0.5888  1.3137 -1.1684
   61CHL1    C1 6964   5.287   1.839  10.039 -0.1314 -0.3797 -1.0705
   61CHL1   H1A 6965   5.277   1.750   9.973 -2.8672 -0.8776 -0.1209
   61CHL1   H1B 6966   5.382   1.895  10.032 -1.6541  2.4881 -0.5115
   61CHL1    C2 6967   5.291   1.777  10.182 -0.3374 -0.0054  0.1232
   61CHL1   H2A 6968   5.375   1.706  10.193  1.4189  1.9730  0.0443
   61CHL1   H2B 6969   5.197   1.720  10.200 -0.7099  1.0302  1.7271
   61CHL1   C20 6970   5.070   2.150   9.347 -0.0950  0.1073  0.2542
   61CHL1   H20 6971   5.081   2.040   9.337 -0.6996  0.1274 -0.8902
   61CHL1   C21 6972   5.177   2.209   9.246  0.1364  0.1852  0.0248
   61CHL1  H21A 6973   5.141   2.311   9.223  1.6344  0.4726 -1.1999
   61CHL1  H21B 6974   5.167   2.144   9.156 -1.6101 -1.2438  1.1637
   61CHL1  H21C 6975   5.285   2.208   9.273 -0.0023 -2.0736  0.7615
   61CHL1   C22 6976   4.926   2.172   9.302  0.2123  0.0225  0.4227
   61CHL1  H22A 6977   4.858   2.140   9.383  0.1774  2.0112  1.2276
   61CHL1  H22B 6978   4.899   2.279   9.284 -0.8002 -0.3462 -0.3120
   61CHL1   C23 6979   4.890   2.069   9.184 -0.3503  0.4273 -0.2571
   61CHL1  H23A 6980   4.968   2.076   9.105  0.7567  1.1601  0.8528
   61CHL1  H23B 6981   4.902   1.972   9.237  0.0682  0.3364 -0.5056
   61CHL1   C24 6982   4.746   2.075   9.128  0.1993  0.3467 -0.7420
   61CHL1  H24A 6983   4.672   2.077   9.211  0.4046  1.7387 -0.5699
   61CHL1  H24B 6984   4.733   2.172   9.076 -1.8674  0.3666 -0.2702
   61CHL1   C25 6985   4.709   1.970   9.025  0.0514 -0.1687  0.2630
   61CHL1   H25 6986   4.599   1.983   9.013 -0.0519  0.0621  1.3627
   61CHL1   C26 6987   4.765   1.999   8.888 -0.4644  0.2873  0.0689
   61CHL1  H26A 6988   4.875   1.991   8.901 -0.3040  1.9024 -0.1998
   61CHL1  H26B 6989   4.723   1.918   8.823 -0.7681  1.8414 -1.7539
   61CHL1  H26C 6990   4.733   2.101   8.858  1.5286  1.0300  0.3427
   61CHL1   C27 6991   4.732   1.821   9.068 -0.0851  0.3259 -0.0916
   61CHL1  H27A 6992   4.712   1.737   8.997  0.6011 -2.7880  3.1408
   61CHL1  H27B 6993   4.840   1.820   9.091 -0.3255  1.2961  1.1387
   61CHL1  H27C 6994   4.680   1.785   9.159 -1.3464 -0.3597 -1.0375
   62CHL1    C3 6995   4.837   5.606  10.127 -0.3950  0.1400  0.3798
   62CHL1    H3 6996   4.821   5.716  10.123 -2.9428 -0.1098  1.3738
   62CHL1    O3 6997   4.848   5.586  10.261 -0.5393  0.3229  0.5701
   62CHL1   H3' 6998   4.926   5.531  10.267 -1.6360 -1.5009 -1.1226
   62CHL1    C4 6999   4.703   5.542  10.069  0.1079  0.0854  0.2009
   62CHL1   H4A 7000   4.699   5.438  10.109  2.6850 -0.6089 -1.1228
   62CHL1   H4B 7001   4.623   5.600  10.118 -0.0985 -0.4889  0.5531
   62CHL1    C5 7002   4.691   5.553   9.914  0.5652  0.5485 -0.9569
   62CHL1    C6 7003   4.585   5.606   9.858  0.1739 -0.2369  0.8449
   62CHL1    H6 7004   4.508   5.627   9.933  0.6751 -0.3161  1.3873
   62CHL1    C7 7005   4.566   5.625   9.709  0.1155 -0.4075 -0.6883
   62CHL1   H7A 7006   4.473   5.576   9.674 -0.1167 -0.0918 -0.5276
   62CHL1   H7B 7007   4.565   5.734   9.686  2.0171 -0.4015 -0.9183
   62CHL1    C8 7008   4.666   5.543   9.626  0.5372  0.4842 -0.0257
   62CHL1    H8 7009   4.629   5.439   9.617  2.3773 -0.0112 -3.2703
   62CHL1   C14 7010   4.672   5.607   9.490 -0.3665 -0.0611  0.0695
   62CHL1   H14 7011   4.723   5.704   9.504 -0.4090  0.2068 -1.5090
   62CHL1   C15 7012   4.542   5.648   9.424 -0.2459  0.1182  1.0697
   62CHL1  H15A 7013   4.465   5.571   9.442  1.4469 -1.5361  1.5219
   62CHL1  H15B 7014   4.498   5.749   9.440  0.7396  0.8021 -0.2949
   62CHL1   C16 7015   4.589   5.643   9.271  0.3774  0.1709 -0.2519
   62CHL1  H16A 7016   4.543   5.562   9.211  0.2678  2.7112 -3.8870
   62CHL1  H16B 7017   4.565   5.741   9.224  2.0936 -0.0932 -1.7491
   62CHL1   C17 7018   4.743   5.621   9.263  0.0821 -0.4706  0.6723
   62CHL1   H17 7019   4.797   5.717   9.280  1.6296 -0.5930 -2.7004
   62CHL1   C13 7020   4.767   5.542   9.394 -0.2646  0.7255  0.1002
   62CHL1   C18 7021   4.720   5.396   9.366 -0.0540  0.2234  0.0688
   62CHL1  H18A 7022   4.720   5.341   9.463 -1.7226  2.2212  1.2746
   62CHL1  H18B 7023   4.620   5.390   9.318  0.0057  0.6883 -0.1181
   62CHL1  H18C 7024   4.783   5.341   9.292 -2.2736  2.0468 -3.4401
   62CHL1   C12 7025   4.912   5.556   9.456  0.5771  0.2958 -0.3794
   62CHL1  H12A 7026   4.979   5.485   9.403 -0.4157 -2.3141  1.6098
   62CHL1  H12B 7027   4.931   5.665   9.456 -3.3306  1.1492  0.4661
   62CHL1   C11 7028   4.912   5.498   9.599  0.9513 -0.3438  0.7110
   62CHL1  H11A 7029   4.896   5.391   9.574  3.0196 -0.1750 -1.6748
   62CHL1  H11B 7030   5.018   5.511   9.631  1.3430 -1.1414 -0.2198
   62CHL1    C9 7031   4.805   5.557   9.688  0.5688 -0.3770  0.9646
   62CHL1    H9 7032   4.826   5.666   9.685 -0.4995 -0.1668  0.6307
   62CHL1   C10 7033   4.818   5.513   9.835  0.1828  0.2674 -0.8030
   62CHL1   C19 7034   4.832   5.361   9.846  0.1349 -0.2418 -0.1102
   62CHL1  H19A 7035   4.935   5.328   9.822 -0.1428  0.1304 -1.9611
   62CHL1  H19B 7036   4.789   5.327   9.942 -0.9058  2.4219  0.4537
   62CHL1  H19C 7037   4.775   5.308   9.766 -0.2545  0.6079 -0.4078
   62CHL1    C1 7038   4.934   5.597   9.902  0.1271 -0.1816 -0.0647
   62CHL1   H1A 7039   5.028   5.585   9.845  0.5436 -1.9729  0.9429
   62CHL1   H1B 7040   4.909   5.705   9.895  3.0805  0.7739  2.2176
   62CHL1    C2 7041   4.956   5.562  10.047 -0.7056  0.0941 -0.6085
   62CHL1   H2A 7042   5.047   5.619  10.077 -1.2184  0.8974 -0.5554
   62CHL1   H2B 7043   4.985   5.456  10.059  2.0487  0.7139 -1.1289
   62CHL1   C20 7044   4.782   5.559   9.124  0.2749 -0.7073 -0.3765
   62CHL1   H20 7045   4.756   5.452   9.115 -0.0284 -0.7472  0.8034
   62CHL1   C21 7046   4.940   5.562   9.126  0.4032  0.2537 -0.5846
   62CHL1  H21A 7047   4.979   5.503   9.211 -0.1523  2.0122  0.9585
   62CHL1  H21B 7048   4.978   5.666   9.123  2.3924 -0.4090 -0.1181
   62CHL1  H21C 7049   4.968   5.519   9.027 -1.1700 -0.8661 -0.5855
   62CHL1   C22 7050   4.734   5.637   9.001 -0.1968 -0.8026  0.0597
   62CHL1  H22A 7051   4.630   5.668   9.025 -0.3916 -0.5320 -1.0680
   62CHL1  H22B 7052   4.796   5.724   8.973 -1.0329 -0.4450 -0.7556
   62CHL1   C23 7053   4.711   5.551   8.875  0.1001 -0.2166 -0.9994
   62CHL1  H23A 7054   4.800   5.503   8.830 -0.4078 -0.1429 -2.0979
   62CHL1  H23B 7055   4.636   5.473   8.901 -0.0833 -0.1876 -1.4268
   62CHL1   C24 7056   4.646   5.646   8.772  0.3257 -0.3824  0.3096
   62CHL1  H24A 7057   4.561   5.702   8.817  1.2794  0.8930  0.6119
   62CHL1  H24B 7058   4.712   5.729   8.739 -0.9223  0.4286 -0.2295
   62CHL1   C25 7059   4.601   5.575   8.639 -0.7130  0.4218 -1.3052
   62CHL1   H25 7060   4.546   5.484   8.669 -0.3234  0.5699 -0.0735
   62CHL1   C26 7061   4.515   5.672   8.557  0.7330  0.3219 -0.0049
   62CHL1  H26A 7062   4.566   5.770   8.544 -0.9639  1.3918  1.0174
   62CHL1  H26B 7063   4.488   5.632   8.457  0.1169 -0.3760  0.4296
   62CHL1  H26C 7064   4.417   5.704   8.597  0.1318  0.9885 -1.9391
   62CHL1   C27 7065   4.722   5.532   8.550  0.4738 -0.2142 -0.0679
   62CHL1  H27A 7066   4.753   5.627   8.501 -1.6831  0.7816  0.3540
   62CHL1  H27B 7067   4.807   5.487   8.605  1.9630  1.6350 -0.7378
   62CHL1  H27C 7068   4.680   5.470   8.468 -2.1283 -0.9755  1.7341
   63CHL1    C3 7069   4.811   2.285  10.498  0.4442 -0.2672 -0.8309
   63CHL1    H3 7070   4.877   2.373  10.490  0.1758 -0.2088 -2.7309
   63CHL1    O3 7071   4.825   2.246  10.634 -0.4585 -0.4088 -0.2958
   63CHL1   H3' 7072   4.762   2.299  10.683  0.0547  0.9371 -1.0506
   63CHL1    C4 7073   4.661   2.328  10.479 -0.6911  0.2890 -0.1708
   63CHL1   H4A 7074   4.599   2.256  10.535 -0.9740 -1.3716 -2.4937
   63CHL1   H4B 7075   4.640   2.426  10.529 -4.5048 -0.6845  0.3904
   63CHL1    C5 7076   4.627   2.348  10.334  0.3527  0.0226 -0.2510
   63CHL1    C6 7077   4.578   2.467  10.291  0.7866  0.2790  0.2300
   63CHL1    H6 7078   4.571   2.550  10.363  0.0752  1.1109 -0.7777
   63CHL1    C7 7079   4.534   2.491  10.148  0.6115 -0.6368  0.5739
   63CHL1   H7A 7080   4.428   2.521  10.145  0.9308  0.5532 -2.4861
   63CHL1   H7B 7081   4.601   2.559  10.092 -1.8901  0.0044 -1.8359
   63CHL1    C8 7082   4.528   2.359  10.066 -0.3772  0.2748 -0.2157
   63CHL1    H8 7083   4.430   2.312  10.090 -1.6301  2.8041 -0.0869
   63CHL1   C14 7084   4.534   2.380   9.913 -0.0480  0.4034  0.4167
   63CHL1   H14 7085   4.636   2.420   9.890 -0.1544  0.6393  0.3422
   63CHL1   C15 7086   4.448   2.500   9.850  0.3511 -0.6774 -0.7029
   63CHL1  H15A 7087   4.346   2.490   9.892  1.2150  2.1176  2.4337
   63CHL1  H15B 7088   4.488   2.600   9.875 -0.3706 -0.6041  0.1786
   63CHL1   C16 7089   4.447   2.466   9.700  0.3523  0.1574 -0.8328
   63CHL1  H16A 7090   4.343   2.468   9.662 -1.2422 -2.1645  2.8792
   63CHL1  H16B 7091   4.488   2.547   9.636  0.8013  0.4666 -0.1667
   63CHL1   C17 7092   4.527   2.336   9.679 -0.0933  0.5721  0.2798
   63CHL1   H17 7093   4.636   2.361   9.675 -0.2427  1.6114  1.8466
   63CHL1   C13 7094   4.512   2.264   9.815  0.8133  0.4468 -0.3539
   63CHL1   C18 7095   4.362   2.213   9.839 -0.3128  0.6226 -0.1499
   63CHL1  H18A 7096   4.361   2.156   9.934 -0.1586 -0.4208 -0.7602
   63CHL1  H18B 7097   4.291   2.297   9.855  0.1440  1.0683 -0.4294
   63CHL1  H18C 7098   4.330   2.144   9.758 -2.5554 -1.3081  2.2207
   63CHL1   C12 7099   4.629   2.167   9.854 -0.0747  0.3812 -0.1503
   63CHL1  H12A 7100   4.625   2.067   9.805  0.3790  0.4170 -0.2673
   63CHL1  H12B 7101   4.726   2.211   9.821 -0.9533  1.6389 -1.1324
   63CHL1   C11 7102   4.631   2.136  10.005  0.1614 -0.4429 -0.4904
   63CHL1  H11A 7103   4.542   2.074  10.028 -1.1630  1.2331 -0.8682
   63CHL1  H11B 7104   4.718   2.074  10.036  0.5241  0.1034 -0.3822
   63CHL1    C9 7105   4.642   2.261  10.094  0.4544  1.2387 -0.8716
   63CHL1    H9 7106   4.726   2.331  10.075 -0.5244  2.6811 -0.0720
   63CHL1   C10 7107   4.662   2.232  10.238 -0.7844  0.0198  0.0705
   63CHL1   C19 7108   4.577   2.114  10.281 -0.0433 -0.1030 -0.0042
   63CHL1  H19A 7109   4.610   2.019  10.232 -0.2023 -0.0090 -0.2938
   63CHL1  H19B 7110   4.575   2.093  10.390  0.8294 -1.0042 -0.1395
   63CHL1  H19C 7111   4.473   2.134  10.249 -0.1510 -1.4387 -0.5509
   63CHL1    C1 7112   4.816   2.193  10.257 -0.0397  0.3700  1.1263
   63CHL1   H1A 7113   4.841   2.103  10.197  1.8831  1.0598  0.8079
   63CHL1   H1B 7114   4.881   2.276  10.220 -0.4588 -0.6218 -2.2176
   63CHL1    C2 7115   4.851   2.163  10.409  0.2132 -0.2367 -0.8855
   63CHL1   H2A 7116   4.959   2.145  10.427  0.2288 -0.7280 -1.4305
   63CHL1   H2B 7117   4.803   2.066  10.435  1.7167 -0.2166  2.4415
   63CHL1   C20 7118   4.486   2.265   9.546 -0.7039 -0.3457 -0.1647
   63CHL1   H20 7119   4.414   2.187   9.579 -1.1744  0.8789  1.8297
   63CHL1   C21 7120   4.610   2.188   9.490 -1.3075  0.6143 -0.3774
   63CHL1  H21A 7121   4.677   2.261   9.440 -0.6289 -0.8793 -1.7430
   63CHL1  H21B 7122   4.572   2.119   9.412 -1.3869 -0.7416  0.8261
   63CHL1  H21C 7123   4.657   2.128   9.571 -1.7593  1.0800  0.2376
   63CHL1   C22 7124   4.430   2.355   9.429  0.7806 -0.5484 -0.6883
   63CHL1  H22A 7125   4.332   2.397   9.459  0.7486 -0.3227 -1.1116
   63CHL1  H22B 7126   4.502   2.439   9.432 -0.7695  0.8601 -1.6937
   63CHL1   C23 7127   4.428   2.297   9.285 -0.0311  0.5011  0.6382
   63CHL1  H23A 7128   4.528   2.254   9.267  0.3489  2.0481 -1.2885
   63CHL1  H23B 7129   4.356   2.213   9.279 -0.7915  1.1616  0.3549
   63CHL1   C24 7130   4.403   2.394   9.174 -0.0261  0.7296 -0.2677
   63CHL1  H24A 7131   4.323   2.466   9.201 -1.0180 -0.5424  0.2951
   63CHL1  H24B 7132   4.501   2.445   9.162  1.2967 -2.0119 -2.2742
   63CHL1   C25 7133   4.355   2.324   9.054  0.2803 -0.2574 -0.9472
   63CHL1   H25 7134   4.282   2.247   9.087 -0.0652  1.2449  2.1011
   63CHL1   C26 7135   4.276   2.415   8.964 -0.4495 -0.1191 -0.1972
   63CHL1  H26A 7136   4.342   2.502   8.946  0.3481 -0.7278 -0.2629
   63CHL1  H26B 7137   4.264   2.369   8.863  0.9863  0.7576 -0.7970
   63CHL1  H26C 7138   4.173   2.438   9.001 -1.0561 -0.7915 -1.4016
   63CHL1   C27 7139   4.462   2.248   8.977  0.6351 -0.2125  0.2139
   63CHL1  H27A 7140   4.557   2.306   8.969  1.1972 -0.8053  2.0305
   63CHL1  H27B 7141   4.491   2.161   9.039 -0.3900 -0.4963  0.3023
   63CHL1  H27C 7142   4.434   2.219   8.874  0.8364 -0.1125  0.1293
   64CHL1    C3 7143   5.334   5.359  10.052  0.0932 -0.5326 -0.1290
   64CHL1    H3 7144   5.231   5.318  10.053  0.0018 -0.3336 -1.0654
   64CHL1    O3 7145   5.353   5.361  10.198  0.3082  0.1225 -0.0749
   64CHL1   H3' 7146   5.440   5.395  10.216 -0.2507  0.0748  3.1809
   64CHL1    C4 7147   5.435   5.262   9.991 -0.1434 -0.0086  0.4813
   64CHL1   H4A 7148   5.539   5.295  10.009 -0.4950  2.0574 -0.9302
   64CHL1   H4B 7149   5.419   5.163  10.039 -1.2699 -0.5469 -0.9309
   64CHL1    C5 7150   5.409   5.244   9.841 -0.0957 -0.6268  0.8610
   64CHL1    C6 7151   5.389   5.128   9.785  0.3100 -0.2123 -0.0894
   64CHL1    H6 7152   5.382   5.037   9.847  1.6869 -0.8207 -0.7562
   64CHL1    C7 7153   5.381   5.112   9.633 -0.7122  0.6234  0.1569
   64CHL1   H7A 7154   5.457   5.041   9.595 -2.1854 -0.4064 -1.0181
   64CHL1   H7B 7155   5.285   5.073   9.593 -0.9050 -1.0143  2.0772
   64CHL1    C8 7156   5.416   5.245   9.559 -0.8142 -0.5508 -0.6813
   64CHL1    H8 7157   5.526   5.258   9.551 -1.0201  0.1628 -3.1277
   64CHL1   C14 7158   5.354   5.253   9.422  0.1156  0.2987 -0.1706
   64CHL1   H14 7159   5.245   5.246   9.443  0.5742 -0.0753  2.3428
   64CHL1   C15 7160   5.391   5.130   9.333 -0.2962 -0.5922 -0.8966
   64CHL1  H15A 7161   5.497   5.103   9.351 -1.1706 -3.2245  0.7947
   64CHL1  H15B 7162   5.327   5.041   9.352 -1.0806  0.3434  1.1518
   64CHL1   C16 7163   5.353   5.179   9.191  0.4327  0.4786 -0.1062
   64CHL1  H16A 7164   5.445   5.150   9.135  1.7529  0.1068  2.1422
   64CHL1  H16B 7165   5.272   5.119   9.144  1.0197  0.0380 -0.5811
   64CHL1   C17 7166   5.322   5.330   9.192 -0.0781  0.6979  0.4957
   64CHL1   H17 7167   5.211   5.332   9.198 -0.0945  1.1464  0.0425
   64CHL1   C13 7168   5.376   5.377   9.329  0.1117  0.3447 -0.7467
   64CHL1   C18 7169   5.531   5.416   9.327  0.5177 -1.1708 -0.2616
   64CHL1  H18A 7170   5.537   5.510   9.268  1.4127 -0.2463  1.2462
   64CHL1  H18B 7171   5.565   5.445   9.428  1.1748  0.2957 -0.8811
   64CHL1  H18C 7172   5.590   5.334   9.281  4.2708  0.5538  1.0821
   64CHL1   C12 7173   5.289   5.488   9.398  0.1514 -0.0991 -0.1914
   64CHL1  H12A 7174   5.304   5.583   9.343  0.8497  0.2250  0.5317
   64CHL1  H12B 7175   5.183   5.457   9.388  0.4241 -0.4331 -2.4767
   64CHL1   C11 7176   5.335   5.498   9.541  0.3724 -0.8059 -0.3786
   64CHL1  H11A 7177   5.427   5.561   9.550 -0.9975  1.0128  2.5059
   64CHL1  H11B 7178   5.263   5.562   9.597  1.5596  0.9954 -0.8203
   64CHL1    C9 7179   5.342   5.363   9.628 -0.2089  0.2470 -0.1487
   64CHL1    H9 7180   5.240   5.328   9.653 -0.3950  1.3297  0.7069
   64CHL1   C10 7181   5.402   5.389   9.769  0.3656  1.1050 -0.2072
   64CHL1   C19 7182   5.548   5.455   9.767  0.8917  0.0414 -0.0113
   64CHL1  H19A 7183   5.608   5.431   9.857  1.4340  0.2963 -0.2988
   64CHL1  H19B 7184   5.600   5.416   9.677 -2.1751 -1.5100 -1.2630
   64CHL1  H19C 7185   5.543   5.566   9.765  1.1989  0.0520 -0.3804
   64CHL1    C1 7186   5.301   5.485   9.849 -0.1393  0.2729  0.6004
   64CHL1   H1A 7187   5.299   5.584   9.799  0.2347  0.3543  0.7380
   64CHL1   H1B 7188   5.200   5.438   9.851  0.2996 -0.6983  0.8414
   64CHL1    C2 7189   5.333   5.503   9.998  0.0998  0.2365 -0.0591
   64CHL1   H2A 7190   5.258   5.557  10.059  0.5206  0.1238  0.5714
   64CHL1   H2B 7191   5.432   5.553   9.997  0.4867 -0.4962  0.8056
   64CHL1   C20 7192   5.360   5.394   9.060 -0.2703 -0.5832  0.8097
   64CHL1   H20 7193   5.471   5.391   9.048 -0.3261 -0.4857  0.2810
   64CHL1   C21 7194   5.302   5.538   9.055 -0.3031  0.5399  0.6474
   64CHL1  H21A 7195   5.336   5.600   9.141 -1.1501  2.0832 -0.0869
   64CHL1  H21B 7196   5.191   5.536   9.064 -0.1282  0.3996  3.9932
   64CHL1  H21C 7197   5.339   5.586   8.962  0.1484 -0.6509  0.1954
   64CHL1   C22 7198   5.317   5.308   8.941  0.0165  0.2050  0.5035
   64CHL1  H22A 7199   5.377   5.214   8.933  0.5239  0.6396 -1.1792
   64CHL1  H22B 7200   5.210   5.285   8.959  0.1023 -0.6591  0.0175
   64CHL1   C23 7201   5.323   5.366   8.794  0.9927 -0.3184  0.1430
   64CHL1  H23A 7202   5.247   5.447   8.789  0.6185 -0.6417  0.5919
   64CHL1  H23B 7203   5.416   5.420   8.767 -0.0926  1.6768  0.1942
   64CHL1   C24 7204   5.293   5.260   8.682 -0.4020 -0.9053  0.5991
   64CHL1  H24A 7205   5.369   5.178   8.683 -0.3345 -0.8407  0.7911
   64CHL1  H24B 7206   5.200   5.207   8.713 -1.3954 -0.9770 -2.2188
   64CHL1   C25 7207   5.267   5.321   8.540  0.1570 -0.1124  0.6312
   64CHL1   H25 7208   5.182   5.391   8.555  0.7145  0.4899  0.9987
   64CHL1   C26 7209   5.400   5.387   8.480  0.1871 -0.4274 -0.5493
   64CHL1  H26A 7210   5.466   5.309   8.437  0.7299  1.2493 -2.9227
   64CHL1  H26B 7211   5.371   5.461   8.402  0.9109 -1.7000 -2.0703
   64CHL1  H26C 7212   5.444   5.446   8.564 -3.9713 -0.0573  1.6322
   64CHL1   C27 7213   5.217   5.209   8.438  0.7003 -0.6767  0.3860
   64CHL1  H27A 7214   5.226   5.233   8.330  0.1918  0.1463  0.5128
   64CHL1  H27B 7215   5.283   5.120   8.447 -0.4048 -1.4761  0.7957
   64CHL1  H27C 7216   5.110   5.180   8.449  0.5910 -1.2875 -1.8730
   65CHL1    C3 7217   6.718   1.854  10.173  0.6327 -0.1430 -0.3154
   65CHL1    H3 7218   6.795   1.782  10.138  1.3278  0.2890  0.3027
   65CHL1    O3 7219   6.701   1.841  10.311  0.3681 -0.1864  0.2765
   65CHL1   H3' 7220   6.677   1.748  10.318  1.0642 -0.4923 -1.0657
   65CHL1    C4 7221   6.763   1.993  10.124  0.2991  0.0444 -0.0495
   65CHL1   H4A 7222   6.699   2.081  10.151  0.9763  1.6373 -3.2229
   65CHL1   H4B 7223   6.859   2.005  10.179  0.9461  0.4563 -1.2405
   65CHL1    C5 7224   6.777   1.989   9.970  0.5486 -0.4496 -0.5928
   65CHL1    C6 7225   6.892   2.025   9.908  0.1168 -0.2690 -0.2365
   65CHL1    H6 7226   6.976   2.054   9.972 -0.5622  1.4500 -0.0786
   65CHL1    C7 7227   6.897   2.051   9.757  0.2093 -0.0616  0.4999
   65CHL1   H7A 7228   6.949   2.148   9.742  1.3412 -0.5993  0.8209
   65CHL1   H7B 7229   6.968   1.975   9.719  1.1959  1.5168 -0.9741
   65CHL1    C8 7230   6.762   2.054   9.684 -0.0199 -0.6199  0.0799
   65CHL1    H8 7231   6.699   2.143   9.710 -0.2366 -0.7788  0.1062
   65CHL1   C14 7232   6.778   2.052   9.535  0.0406  0.2442  0.3474
   65CHL1   H14 7233   6.848   1.967   9.518 -1.4573 -0.5823 -2.0629
   65CHL1   C15 7234   6.847   2.168   9.466  0.7558 -0.7081  0.2346
   65CHL1  H15A 7235   6.812   2.262   9.512  1.0489  1.0575 -2.8389
   65CHL1  H15B 7236   6.958   2.163   9.475  0.7003 -1.3470  0.6334
   65CHL1   C16 7237   6.794   2.156   9.319  0.2518  0.8932 -0.7289
   65CHL1  H16A 7238   6.728   2.240   9.287  0.8108  1.0764 -1.4209
   65CHL1  H16B 7239   6.884   2.138   9.256 -2.0305 -3.1450 -3.2854
   65CHL1   C17 7240   6.703   2.030   9.316  0.1480 -0.3486 -0.0283
   65CHL1   H17 7241   6.771   1.942   9.315 -0.5042 -0.8686  0.5275
   65CHL1   C13 7242   6.651   2.029   9.462  0.0596 -0.4031 -0.3768
   65CHL1   C18 7243   6.569   2.153   9.473  0.6042  0.5357  0.4605
   65CHL1  H18A 7244   6.614   2.244   9.429  2.0221 -1.2425 -1.9953
   65CHL1  H18B 7245   6.474   2.152   9.414 -0.2047  2.3797  1.6182
   65CHL1  H18C 7246   6.539   2.172   9.578 -1.0001  0.5170  0.0445
   65CHL1   C12 7247   6.579   1.895   9.512 -0.2182 -0.3294  0.5262
   65CHL1  H12A 7248   6.494   1.873   9.444 -0.7095 -0.6882  1.2404
   65CHL1  H12B 7249   6.649   1.809   9.502  0.1561 -0.2371  2.0980
   65CHL1   C11 7250   6.541   1.906   9.658 -0.6205 -0.4697  0.8158
   65CHL1  H11A 7251   6.480   1.996   9.679 -1.1737 -0.6896  0.1798
   65CHL1  H11B 7252   6.492   1.819   9.706 -0.6441 -0.1625  1.3565
   65CHL1    C9 7253   6.673   1.936   9.745 -0.6587  0.7497  0.3930
   65CHL1    H9 7254   6.739   1.847   9.741 -1.0721  0.3981  1.0880
   65CHL1   C10 7255   6.641   1.952   9.899 -0.8059  0.1634 -0.3589
   65CHL1   C19 7256   6.542   2.068   9.928 -0.0642  0.1912 -0.6944
   65CHL1  H19A 7257   6.445   2.064   9.873 -0.9485  1.0442  0.7479
   65CHL1  H19B 7258   6.506   2.061  10.033 -1.1389 -0.7513 -1.1058
   65CHL1  H19C 7259   6.587   2.169   9.921 -3.0340  1.6786 -0.0336
   65CHL1    C1 7260   6.585   1.820   9.964  0.4792 -0.0898  0.7550
   65CHL1   H1A 7261   6.483   1.817   9.921  0.5188 -1.0739  0.7141
   65CHL1   H1B 7262   6.649   1.740   9.922  1.8391  0.9597  0.7567
   65CHL1    C2 7263   6.584   1.819  10.114  0.6012 -0.0441 -0.9992
   65CHL1   H2A 7264   6.560   1.714  10.140  1.9764 -0.3596 -0.9157
   65CHL1   H2B 7265   6.507   1.887  10.156  2.3067  2.3780 -1.5572
   65CHL1   C20 7266   6.599   2.029   9.188 -0.9539 -0.5657 -0.0725
   65CHL1   H20 7267   6.518   2.099   9.220 -0.8483 -0.8486  0.8628
   65CHL1   C21 7268   6.532   1.893   9.173  0.4594  0.1112  0.7885
   65CHL1  H21A 7269   6.470   1.893   9.081  0.9826  2.8519  0.3452
   65CHL1  H21B 7270   6.454   1.866   9.247 -2.5063 -2.6121 -2.9669
   65CHL1  H21C 7271   6.601   1.807   9.164 -0.0745 -0.1542 -1.1246
   65CHL1   C22 7272   6.677   2.081   9.059 -0.9239 -0.4111 -0.8147
   65CHL1  H22A 7273   6.722   2.181   9.076 -0.8686 -0.6954  0.8828
   65CHL1  H22B 7274   6.754   2.001   9.052 -1.7495 -1.2568 -0.6400
   65CHL1   C23 7275   6.592   2.093   8.937 -0.4773 -0.0530 -0.0836
   65CHL1  H23A 7276   6.546   1.995   8.912 -0.7459  0.2486 -0.8122
   65CHL1  H23B 7277   6.507   2.153   8.975 -1.3943 -2.0219  1.1030
   65CHL1   C24 7278   6.670   2.161   8.828 -0.3272 -0.6860  0.5947
   65CHL1  H24A 7279   6.742   2.240   8.857 -0.6835 -0.5258  1.0527
   65CHL1  H24B 7280   6.728   2.086   8.770  2.9451  3.4173 -2.0021
   65CHL1   C25 7281   6.571   2.224   8.728 -0.6762  0.5467  0.7306
   65CHL1   H25 7282   6.489   2.156   8.696  0.5834 -0.3744 -0.6948
   65CHL1   C26 7283   6.502   2.355   8.785 -0.0634 -0.2579 -0.3552
   65CHL1  H26A 7284   6.446   2.342   8.880  0.9764 -0.9891  0.1716
   65CHL1  H26B 7285   6.568   2.442   8.801 -1.0517  0.6567 -1.1545
   65CHL1  H26C 7286   6.428   2.389   8.710  0.4116 -0.4896 -0.9423
   65CHL1   C27 7287   6.642   2.266   8.597  0.7548  0.4705  0.8830
   65CHL1  H27A 7288   6.691   2.181   8.545  0.0402  0.2269  0.5840
   65CHL1  H27B 7289   6.560   2.296   8.528  0.3219 -1.9520  0.2497
   65CHL1  H27C 7290   6.723   2.338   8.620  0.7926  0.4376  0.8506
   66CHL1    C3 7291   5.566   1.197  10.419  0.8661  0.1330  0.0148
   66CHL1    H3 7292   5.673   1.190  10.394  0.8909  0.3379  0.0585
   66CHL1    O3 7293   5.545   1.143  10.552  0.1025  0.0573  0.1426
   66CHL1   H3' 7294   5.450   1.139  10.562 -0.4387 -1.0833 -3.6601
   66CHL1    C4 7295   5.517   1.348  10.406  0.7339  0.4836  0.3463
   66CHL1   H4A 7296   5.413   1.338  10.443  0.2293  0.8672 -0.9281
   66CHL1   H4B 7297   5.576   1.411  10.477 -1.5176  0.5960  2.2187
   66CHL1    C5 7298   5.535   1.392  10.255 -0.3212  0.5411  0.7358
   66CHL1    C6 7299   5.616   1.502  10.230 -0.1930  0.1607 -0.2835
   66CHL1    H6 7300   5.675   1.552  10.309  0.6392 -0.6854 -0.3501
   66CHL1    C7 7301   5.638   1.551  10.093 -1.4073  0.0961  0.9455
   66CHL1   H7A 7302   5.634   1.662  10.101 -0.7330  0.0920  1.5675
   66CHL1   H7B 7303   5.742   1.516  10.077 -1.3467  0.2492  0.9987
   66CHL1    C8 7304   5.541   1.499   9.991  0.6699 -0.5020  0.7410
   66CHL1    H8 7305   5.440   1.546  10.001  1.0705  0.1463  1.8414
   66CHL1   C14 7306   5.594   1.536   9.851 -0.0447  0.0595 -0.0276
   66CHL1   H14 7307   5.697   1.497   9.841  0.6823  1.9122 -0.0427
   66CHL1   C15 7308   5.623   1.687   9.813  0.3690  0.3557  0.2189
   66CHL1  H15A 7309   5.533   1.742   9.848 -0.1820  1.7521 -3.0199
   66CHL1  H15B 7310   5.708   1.740   9.860  0.5358  0.2130  0.0821
   66CHL1   C16 7311   5.618   1.695   9.658  0.1649 -0.4481  0.0086
   66CHL1  H16A 7312   5.539   1.761   9.619  2.6019  1.8348 -1.3561
   66CHL1  H16B 7313   5.721   1.728   9.633 -0.0932  0.2964 -0.0753
   66CHL1   C17 7314   5.593   1.549   9.615 -0.5163  0.0696 -0.1655
   66CHL1   H17 7315   5.695   1.506   9.604 -0.0058  1.3022 -0.4035
   66CHL1   C13 7316   5.516   1.482   9.734 -0.2742  0.0171 -0.1414
   66CHL1   C18 7317   5.376   1.544   9.733  0.4897 -0.1370  0.0900
   66CHL1  H18A 7318   5.330   1.493   9.646  0.3472  0.7215 -0.3414
   66CHL1  H18B 7319   5.310   1.533   9.822 -1.6677  2.0366 -1.1185
   66CHL1  H18C 7320   5.386   1.652   9.712 -1.6560 -0.4228 -2.8943
   66CHL1   C12 7321   5.521   1.329   9.761  0.6054 -0.6308  0.0355
   66CHL1  H12A 7322   5.466   1.273   9.682  0.1984 -1.0725  0.6228
   66CHL1  H12B 7323   5.628   1.297   9.761  0.6366 -0.5275  0.5239
   66CHL1   C11 7324   5.451   1.291   9.891  0.6113  0.8067 -0.8090
   66CHL1  H11A 7325   5.345   1.325   9.897 -0.0673 -1.0675 -1.3804
   66CHL1  H11B 7326   5.444   1.181   9.897 -0.4830  0.8862 -0.1357
   66CHL1    C9 7327   5.525   1.348  10.007  0.1862  0.0958 -0.8232
   66CHL1    H9 7328   5.625   1.299  10.010  0.0354 -0.4531 -2.8539
   66CHL1   C10 7329   5.464   1.310  10.143  0.2583 -0.4437  0.6262
   66CHL1   C19 7330   5.308   1.325  10.156  0.3424  0.3980  0.0185
   66CHL1  H19A 7331   5.266   1.258  10.078  0.3515  2.1437 -1.5666
   66CHL1  H19B 7332   5.282   1.291  10.258  3.1679  1.7967  1.3281
   66CHL1  H19C 7333   5.266   1.428  10.155 -0.3427  0.1896  2.3700
   66CHL1    C1 7334   5.508   1.159  10.174  0.6996  0.6663  0.2348
   66CHL1   H1A 7335   5.441   1.101  10.108 -1.0354  2.2541  0.5143
   66CHL1   H1B 7336   5.609   1.131  10.138 -0.6815 -0.9314 -2.7951
   66CHL1    C2 7337   5.484   1.112  10.324 -0.2664 -0.1837  0.2501
   66CHL1   H2A 7338   5.520   1.007  10.329  0.6177  0.0577 -0.7018
   66CHL1   H2B 7339   5.374   1.120  10.336 -0.1784  1.1112  0.3035
   66CHL1   C20 7340   5.531   1.553   9.469  0.0235  0.1635  0.0278
   66CHL1   H20 7341   5.442   1.620   9.471  0.8462  1.4608 -2.3618
   66CHL1   C21 7342   5.485   1.414   9.423 -0.4542  0.0555 -0.0442
   66CHL1  H21A 7343   5.402   1.379   9.488 -1.0148  0.4799 -0.5259
   66CHL1  H21B 7344   5.573   1.346   9.432  1.4227  2.2820 -0.6307
   66CHL1  H21C 7345   5.448   1.401   9.319 -0.2826  0.2039 -0.1244
   66CHL1   C22 7346   5.637   1.604   9.362 -0.3431 -0.1249 -0.1015
   66CHL1  H22A 7347   5.689   1.693   9.404  1.4200 -1.4193  0.5563
   66CHL1  H22B 7348   5.714   1.526   9.350 -0.6940 -0.6158  0.7593
   66CHL1   C23 7349   5.565   1.643   9.222  0.3838  0.0004 -0.6123
   66CHL1  H23A 7350   5.507   1.556   9.184 -1.5459 -1.0188  3.9166
   66CHL1  H23B 7351   5.487   1.711   9.261 -0.7201 -0.4342 -2.0128
   66CHL1   C24 7352   5.652   1.712   9.111  0.0589 -0.6893 -0.1560
   66CHL1  H24A 7353   5.585   1.756   9.034 -1.7424  1.5787  2.5007
   66CHL1  H24B 7354   5.705   1.792   9.167 -0.7944 -0.8225  0.8765
   66CHL1   C25 7355   5.767   1.621   9.057 -0.1647 -0.5420 -0.2848
   66CHL1   H25 7356   5.820   1.572   9.142  0.1267  0.4232  0.1049
   66CHL1   C26 7357   5.725   1.502   8.972 -0.0321  0.0685  1.0094
   66CHL1  H26A 7358   5.818   1.450   8.943 -0.0446  1.0404 -0.9839
   66CHL1  H26B 7359   5.652   1.432   9.018 -1.6192  0.0400 -1.3838
   66CHL1  H26C 7360   5.674   1.547   8.884  1.0565  2.5510  1.5798
   66CHL1   C27 7361   5.869   1.704   8.980  0.5118  0.6892 -0.0421
   66CHL1  H27A 7362   5.923   1.771   9.051 -0.3525 -0.7174  2.0503
   66CHL1  H27B 7363   5.948   1.643   8.931  0.6965  1.6078 -0.9153
   66CHL1  H27C 7364   5.818   1.769   8.907 -0.9883  0.1666  0.5050
   67CHL1    C3 7365   1.191   0.295   9.998 -0.6331  0.2695 -0.0057
   67CHL1    H3 7366   1.143   0.395  10.006  1.6831  1.5978 -1.6398
   67CHL1    O3 7367   1.256   0.277  10.125 -0.1229 -0.4027 -0.1175
   67CHL1   H3' 7368   1.337   0.329  10.120 -0.4981  0.0766 -1.5722
   67CHL1    C4 7369   1.089   0.180   9.992  0.3858  0.3697  0.5462
   67CHL1   H4A 7370   1.143   0.084  10.003 -0.6282 -0.1953  0.7383
   67CHL1   H4B 7371   1.026   0.189  10.083  0.0945 -0.7810  0.4703
   67CHL1    C5 7372   1.016   0.173   9.855  0.6053 -0.5162 -0.4157
   67CHL1    C6 7373   0.883   0.179   9.840 -0.3683  0.4201  0.1221
   67CHL1    H6 7374   0.816   0.176   9.927 -0.3087  1.4997  0.2237
   67CHL1    C7 7375   0.813   0.160   9.714 -0.0721 -0.0296  0.2431
   67CHL1   H7A 7376   0.736   0.079   9.722  0.7161 -0.6144  2.4836
   67CHL1   H7B 7377   0.759   0.250   9.678 -0.8042 -1.2508 -1.8979
   67CHL1    C8 7378   0.901   0.127   9.590 -1.2495  0.6706 -0.2976
   67CHL1    H8 7379   0.924   0.019   9.589 -0.3830  0.8469 -0.8264
   67CHL1   C14 7380   0.838   0.163   9.453 -0.2692 -0.2509  0.0651
   67CHL1   H14 7381   0.827   0.273   9.450  0.0363 -0.0837  2.6573
   67CHL1   C15 7382   0.695   0.114   9.432 -0.2718 -0.2106 -0.2418
   67CHL1  H15A 7383   0.683   0.012   9.475 -1.6025 -0.5009 -1.2484
   67CHL1  H15B 7384   0.618   0.179   9.480  0.4697  0.7364 -0.3000
   67CHL1   C16 7385   0.671   0.125   9.282  0.5437 -0.3614  0.1773
   67CHL1  H16A 7386   0.660   0.022   9.242  0.3027 -0.5499  0.7129
   67CHL1  H16B 7387   0.581   0.175   9.240  0.6432 -0.2094  0.1444
   67CHL1   C17 7388   0.806   0.188   9.227  0.3649  0.1204  0.0524
   67CHL1   H17 7389   0.800   0.298   9.242  2.7245  0.1542  1.1292
   67CHL1   C13 7390   0.915   0.140   9.327 -0.6673  0.0152 -0.0942
   67CHL1   C18 7391   0.949  -0.007   9.309  0.3355 -0.0672 -0.2303
   67CHL1  H18A 7392   0.852  -0.062   9.306  0.5063 -0.3333 -1.9642
   67CHL1  H18B 7393   1.007  -0.027   9.216  1.0552  1.4863 -0.1475
   67CHL1  H18C 7394   1.009  -0.045   9.395  0.7022  3.2655  1.1386
   67CHL1   C12 7395   1.039   0.236   9.345  0.1780 -1.3666  0.0507
   67CHL1  H12A 7396   1.091   0.225   9.248 -0.7994  0.7418 -0.7807
   67CHL1  H12B 7397   0.997   0.339   9.353  0.6567 -0.9876 -1.8302
   67CHL1   C11 7398   1.119   0.197   9.474 -0.1841  0.3534  0.4259
   67CHL1  H11A 7399   1.156   0.093   9.456  0.4261  0.7364 -0.6208
   67CHL1  H11B 7400   1.202   0.270   9.477  0.5197 -0.4507  0.9355
   67CHL1    C9 7401   1.033   0.200   9.609  0.6349  0.4608  0.2522
   67CHL1    H9 7402   1.000   0.306   9.612 -0.1467  0.2528 -0.5115
   67CHL1   C10 7403   1.111   0.179   9.734  0.2424  0.8976 -0.5949
   67CHL1   C19 7404   1.178   0.037   9.724 -0.0116 -0.1852 -0.3730
   67CHL1  H19A 7405   1.104  -0.046   9.719 -0.2683 -0.0193  0.4640
   67CHL1  H19B 7406   1.242   0.044   9.633 -1.8932  2.9913 -1.6078
   67CHL1  H19C 7407   1.227   0.003   9.818  0.9591 -0.3809 -0.9296
   67CHL1    C1 7408   1.218   0.278   9.752 -0.0266  0.0565  0.3612
   67CHL1   H1A 7409   1.293   0.261   9.672  0.5127 -1.4692  1.1518
   67CHL1   H1B 7410   1.179   0.381   9.741  1.1550  0.4732 -0.1557
   67CHL1    C2 7411   1.296   0.282   9.887  0.4222 -0.5027 -0.3924
   67CHL1   H2A 7412   1.373   0.362   9.893  0.0122 -0.2519  2.8642
   67CHL1   H2B 7413   1.341   0.182   9.906  0.2163 -0.2327  1.7245
   67CHL1   C20 7414   0.832   0.156   9.077  0.1136 -0.2024 -0.0330
   67CHL1   H20 7415   0.852   0.047   9.078  1.6520 -0.0196 -2.7382
   67CHL1   C21 7416   0.946   0.234   9.011  0.6453  1.0670 -0.2146
   67CHL1  H21A 7417   0.932   0.340   9.042 -2.6093 -0.1069  2.9519
   67CHL1  H21B 7418   0.951   0.217   8.902  4.2001 -1.1609  0.1152
   67CHL1  H21C 7419   1.049   0.208   9.045  0.4262 -2.6678 -1.8516
   67CHL1   C22 7420   0.701   0.173   8.999  0.1706  0.3176  0.1528
   67CHL1  H22A 7421   0.634   0.088   9.023  0.1941 -0.7362 -3.0532
   67CHL1  H22B 7422   0.656   0.269   9.033 -0.3577  1.0449 -2.3992
   67CHL1   C23 7423   0.702   0.180   8.842 -1.0487 -0.0971  0.1510
   67CHL1  H23A 7424   0.763   0.267   8.808 -0.6666 -0.4960 -0.2049
   67CHL1  H23B 7425   0.748   0.084   8.809 -1.0774 -1.0573  2.6875
   67CHL1   C24 7426   0.563   0.185   8.787 -0.5100 -0.0891  0.1760
   67CHL1  H24A 7427   0.499   0.105   8.829 -1.0310  1.3206  2.2305
   67CHL1  H24B 7428   0.508   0.270   8.833 -2.5662 -1.6147  0.6641
   67CHL1   C25 7429   0.553   0.174   8.630  0.5950  0.3370 -0.0234
   67CHL1   H25 7430   0.613   0.085   8.599  1.2993  1.6498 -2.7789
   67CHL1   C26 7431   0.407   0.161   8.595 -0.0743  0.1071  0.0459
   67CHL1  H26A 7432   0.351   0.245   8.641  0.4294  0.7062 -0.4089
   67CHL1  H26B 7433   0.396   0.171   8.485 -2.5578  2.1238  0.3826
   67CHL1  H26C 7434   0.384   0.059   8.633  1.7011 -0.7435 -1.0257
   67CHL1   C27 7435   0.623   0.295   8.562  0.6648  0.4362 -0.4930
   67CHL1  H27A 7436   0.724   0.322   8.601  0.4904  0.7579 -0.2571
   67CHL1  H27B 7437   0.637   0.284   8.452 -0.7539 -0.0045 -0.6369
   67CHL1  H27C 7438   0.560   0.385   8.580  1.3624  1.5464 -3.0621
   68CHL1    C3 7439   5.787   2.090  10.382  0.2577  0.4045 -0.5575
   68CHL1    H3 7440   5.891   2.055  10.365 -0.4544 -2.6885  0.7205
   68CHL1    O3 7441   5.755   2.092  10.523 -0.3900  0.4599  0.1990
   68CHL1   H3' 7442   5.659   2.087  10.532 -0.2999  1.1970  2.0322
   68CHL1    C4 7443   5.769   2.230  10.332  0.0563 -0.6173  0.3238
   68CHL1   H4A 7444   5.673   2.267  10.374 -0.6392  2.5833 -3.5028
   68CHL1   H4B 7445   5.844   2.303  10.370  0.5799  1.0618 -3.4791
   68CHL1    C5 7446   5.774   2.252  10.181  0.4128  0.5313 -0.4170
   68CHL1    C6 7447   5.863   2.324  10.113  0.6247 -0.5875  0.3772
   68CHL1    H6 7448   5.946   2.371  10.167  1.0873 -0.6754 -0.2469
   68CHL1    C7 7449   5.854   2.346   9.960  0.2716 -0.3006 -0.0260
   68CHL1   H7A 7450   5.861   2.450   9.921  0.6117 -0.2104  0.2633
   68CHL1   H7B 7451   5.942   2.289   9.926  0.3333 -0.3878  0.2727
   68CHL1    C8 7452   5.734   2.278   9.892 -0.6050 -0.2316 -0.5095
   68CHL1    H8 7453   5.641   2.336   9.913  0.8590  2.5234 -1.2156
   68CHL1   C14 7454   5.755   2.256   9.743  0.5909  0.4830 -0.5539
   68CHL1   H14 7455   5.848   2.195   9.737 -0.1291 -0.9593  1.8735
   68CHL1   C15 7456   5.774   2.383   9.662  0.7868 -0.4669 -0.1330
   68CHL1  H15A 7457   5.691   2.453   9.684  0.4576 -0.8739 -0.0727
   68CHL1  H15B 7458   5.868   2.431   9.698 -0.7278  0.3387  3.1088
   68CHL1   C16 7459   5.759   2.343   9.512 -0.8094 -0.0937 -0.2383
   68CHL1  H16A 7460   5.690   2.412   9.459 -0.2981  0.6427  0.0496
   68CHL1  H16B 7461   5.857   2.343   9.461 -0.9941  0.4370 -0.6053
   68CHL1   C17 7462   5.704   2.198   9.517  0.2513  0.3052  0.1112
   68CHL1   H17 7463   5.794   2.133   9.517 -0.0649 -0.1786  1.8369
   68CHL1   C13 7464   5.644   2.182   9.667  0.1692 -0.1881  0.1479
   68CHL1   C18 7465   5.507   2.258   9.675 -0.1462 -0.2101  0.4967
   68CHL1  H18A 7466   5.435   2.198   9.616  3.1932 -2.5408 -1.6154
   68CHL1  H18B 7467   5.472   2.256   9.781  0.4999 -0.5389  0.7107
   68CHL1  H18C 7468   5.511   2.363   9.639  1.6669 -0.8407 -1.3811
   68CHL1   C12 7469   5.634   2.040   9.719  0.4738  0.1321  0.5366
   68CHL1  H12A 7470   5.543   1.994   9.675  0.9548 -2.2967  1.8886
   68CHL1  H12B 7471   5.719   1.982   9.679 -0.6284 -0.9837 -0.2643
   68CHL1   C11 7472   5.608   2.048   9.871  0.1208 -0.6806  1.5025
   68CHL1  H11A 7473   5.504   2.085   9.880 -0.0395 -0.8703  0.5577
   68CHL1  H11B 7474   5.606   1.945   9.915  1.6128 -2.0013 -1.2836
   68CHL1    C9 7475   5.707   2.136   9.953  0.0403 -0.3789  0.0843
   68CHL1    H9 7476   5.806   2.087   9.940 -1.2777 -3.8612  2.0432
   68CHL1   C10 7477   5.684   2.147  10.101  0.6796  0.1838  0.4292
   68CHL1   C19 7478   5.525   2.187  10.114  0.4008  0.2601 -0.1785
   68CHL1  H19A 7479   5.498   2.276  10.053  0.0859  1.1866  1.2606
   68CHL1  H19B 7480   5.465   2.096  10.095  0.8083 -0.3421  1.2520
   68CHL1  H19C 7481   5.510   2.220  10.219  1.6180 -0.0361  0.1000
   68CHL1    C1 7482   5.716   2.007  10.159 -0.6419 -0.1091  0.0291
   68CHL1   H1A 7483   5.635   1.950  10.108 -0.9210  1.5726 -1.5231
   68CHL1   H1B 7484   5.820   1.973  10.141 -0.1346  1.0709  0.6355
   68CHL1    C2 7485   5.699   1.997  10.310 -0.1424  0.1304  0.5362
   68CHL1   H2A 7486   5.718   1.896  10.353  0.4026  0.7412  1.7824
   68CHL1   H2B 7487   5.596   2.035  10.328  0.0521  0.8615  0.1607
   68CHL1   C20 7488   5.623   2.155   9.388 -0.5184  0.0598 -0.7404
   68CHL1   H20 7489   5.520   2.197   9.393 -0.9676 -0.9546 -1.1476
   68CHL1   C21 7490   5.614   2.001   9.370  0.0359 -0.9579  0.5797
   68CHL1  H21A 7491   5.516   1.987   9.320  0.2072  0.5877 -0.2365
   68CHL1  H21B 7492   5.613   1.954   9.471 -0.1703  1.0379  1.5453
   68CHL1  H21C 7493   5.694   1.976   9.296  0.2863 -0.4109  0.6631
   68CHL1   C22 7494   5.683   2.215   9.255  0.0172  0.5209  0.1834
   68CHL1  H22A 7495   5.684   2.326   9.252  1.7961  0.5324 -1.0645
   68CHL1  H22B 7496   5.787   2.175   9.254 -0.7869 -1.7754  1.5608
   68CHL1   C23 7497   5.601   2.180   9.125 -0.1420 -0.0462 -0.1605
   68CHL1  H23A 7498   5.614   2.072   9.107  0.4867 -0.1349  0.7721
   68CHL1  H23B 7499   5.499   2.219   9.150  0.6397  1.7287  0.4404
   68CHL1   C24 7500   5.642   2.256   9.000 -0.2766  0.0947 -0.2023
   68CHL1  H24A 7501   5.628   2.365   9.014  0.7391  0.0795  1.0920
   68CHL1  H24B 7502   5.752   2.241   9.002 -0.4233 -1.0450  1.3685
   68CHL1   C25 7503   5.571   2.203   8.870  0.3749  0.6113 -1.1263
   68CHL1   H25 7504   5.554   2.094   8.870  0.3925  0.5708  0.8398
   68CHL1   C26 7505   5.431   2.271   8.849  0.2715  0.6578 -0.9480
   68CHL1  H26A 7506   5.363   2.241   8.931  1.3949 -0.4124 -0.3774
   68CHL1  H26B 7507   5.451   2.379   8.863 -1.9250  0.9362  0.6236
   68CHL1  H26C 7508   5.394   2.262   8.744 -0.4847  0.8309 -0.7089
   68CHL1   C27 7509   5.662   2.241   8.752  0.1460 -0.1136 -0.1764
   68CHL1  H27A 7510   5.762   2.192   8.751  0.2310  0.0540 -0.0072
   68CHL1  H27B 7511   5.612   2.214   8.657  3.0122 -1.8109 -1.3301
   68CHL1  H27C 7512   5.661   2.350   8.729 -2.2043  0.6044  2.6336
   69CHL1    C3 7513   4.189   6.595   6.987 -0.4897  0.4719  0.1820
   69CHL1    H3 7514   4.185   6.697   7.031  0.1279  1.0654 -1.0915
   69CHL1    O3 7515   4.152   6.608   6.850  0.3228  0.2659  0.2274
   69CHL1   H3' 7516   4.065   6.647   6.857  0.8199  1.1095  2.8338
   69CHL1    C4 7517   4.326   6.530   6.998  0.7402 -0.1441 -1.0741
   69CHL1   H4A 7518   4.313   6.425   6.965 -3.2028  0.4961 -2.0016
   69CHL1   H4B 7519   4.408   6.586   6.948  1.3681  1.2756  1.3323
   69CHL1    C5 7520   4.368   6.514   7.146 -0.9061 -0.4227 -0.6313
   69CHL1    C6 7521   4.490   6.550   7.195 -0.8077 -0.3074  0.2697
   69CHL1    H6 7522   4.570   6.591   7.133 -0.2785 -1.1439  0.3895
   69CHL1    C7 7523   4.535   6.529   7.338  0.0031 -0.5900 -0.5773
   69CHL1   H7A 7524   4.642   6.500   7.338  0.4992  0.9515 -3.0748
   69CHL1   H7B 7525   4.520   6.629   7.385 -0.5582 -1.7293  1.8374
   69CHL1    C8 7526   4.443   6.441   7.421 -0.0636 -0.1813  0.3731
   69CHL1    H8 7527   4.470   6.339   7.385 -0.0109  0.0104 -0.1437
   69CHL1   C14 7528   4.457   6.469   7.563  1.0814 -0.0809 -0.1500
   69CHL1   H14 7529   4.419   6.571   7.584  1.7767 -0.4067  3.2635
   69CHL1   C15 7530   4.602   6.468   7.618 -0.2348  0.0666 -0.5778
   69CHL1  H15A 7531   4.658   6.387   7.566 -0.5527  0.4731 -1.5851
   69CHL1  H15B 7532   4.648   6.568   7.602 -0.9401  0.3621 -0.7764
   69CHL1   C16 7533   4.571   6.438   7.770 -0.2336 -0.0800  0.2956
   69CHL1  H16A 7534   4.621   6.342   7.794  0.7649 -0.3721 -2.5406
   69CHL1  H16B 7535   4.617   6.518   7.833 -1.7485  2.1960 -1.3181
   69CHL1   C17 7536   4.416   6.418   7.788  0.0853 -0.4722  0.1096
   69CHL1   H17 7537   4.386   6.525   7.794 -1.5200 -0.6901 -2.4506
   69CHL1   C13 7538   4.374   6.372   7.652  0.7248 -0.4329 -0.2561
   69CHL1   C18 7539   4.421   6.221   7.626  0.8014 -0.0959 -0.3458
   69CHL1  H18A 7540   4.529   6.210   7.651  0.7448 -0.3158 -0.1939
   69CHL1  H18B 7541   4.368   6.151   7.694  0.3991 -0.2698 -0.8372
   69CHL1  H18C 7542   4.404   6.187   7.522  0.1756  0.9889 -0.6079
   69CHL1   C12 7543   4.226   6.389   7.623  0.0818 -0.7484 -0.1449
   69CHL1  H12A 7544   4.166   6.317   7.684 -1.4343  3.3064  3.6734
   69CHL1  H12B 7545   4.201   6.492   7.655 -1.9515 -0.9609 -0.8725
   69CHL1   C11 7546   4.204   6.375   7.476 -0.1963  0.9130  0.9571
   69CHL1  H11A 7547   4.226   6.268   7.454  0.7105  1.4800 -1.1563
   69CHL1  H11B 7548   4.098   6.401   7.454  0.2015  1.7637 -0.0961
   69CHL1    C9 7549   4.297   6.464   7.384  0.5565 -0.5736  0.5842
   69CHL1    H9 7550   4.273   6.571   7.406 -0.8346  0.1698 -3.5380
   69CHL1   C10 7551   4.271   6.443   7.233  0.2320 -0.2749  0.1411
   69CHL1   C19 7552   4.262   6.292   7.201  0.0013  0.1882 -0.3605
   69CHL1  H19A 7553   4.173   6.245   7.249  0.2148  0.0041 -0.1460
   69CHL1  H19B 7554   4.252   6.271   7.092  2.2197 -1.2092 -0.3443
   69CHL1  H19C 7555   4.355   6.241   7.232 -1.6374 -1.6244  1.9380
   69CHL1    C1 7556   4.127   6.491   7.201  0.4100 -0.2564 -0.1111
   69CHL1   H1A 7557   4.064   6.417   7.253  0.8244 -0.4473  0.1268
   69CHL1   H1B 7558   4.115   6.591   7.249  2.6765 -0.9363  2.0693
   69CHL1    C2 7559   4.085   6.504   7.049  0.0812 -0.2455 -0.9195
   69CHL1   H2A 7560   3.980   6.540   7.040 -0.2149 -0.2702  1.6720
   69CHL1   H2B 7561   4.096   6.406   6.998  1.0252 -0.8413  0.3790
   69CHL1   C20 7562   4.366   6.344   7.913 -0.0286 -0.1431 -0.3837
   69CHL1   H20 7563   4.287   6.272   7.882 -0.1836 -0.0450 -0.2190
   69CHL1   C21 7564   4.312   6.448   8.011 -0.8005 -0.7616  0.4092
   69CHL1  H21A 7565   4.230   6.511   7.968  0.5287  1.7281  1.3331
   69CHL1  H21B 7566   4.390   6.522   8.039  1.8616 -3.0307 -0.5403
   69CHL1  H21C 7567   4.280   6.398   8.105 -1.3448 -1.0021  0.1036
   69CHL1   C22 7568   4.468   6.249   7.974  0.1385 -1.0177  0.1826
   69CHL1  H22A 7569   4.513   6.194   7.889 -0.4354 -0.5296 -0.4493
   69CHL1  H22B 7570   4.550   6.306   8.022 -1.6845  1.9461  0.0141
   69CHL1   C23 7571   4.410   6.138   8.062 -0.0372 -0.1197 -0.5199
   69CHL1  H23A 7572   4.395   6.183   8.162 -1.4574  1.1114 -1.2631
   69CHL1  H23B 7573   4.324   6.084   8.019  0.0800 -1.3297  0.6698
   69CHL1   C24 7574   4.528   6.041   8.098  0.5445  0.7077 -0.2713
   69CHL1  H24A 7575   4.566   5.979   8.014 -0.6109 -1.5704  0.7832
   69CHL1  H24B 7576   4.607   6.103   8.144  3.0802 -1.9889 -0.7020
   69CHL1   C25 7577   4.494   5.933   8.208  0.0580  0.2160  0.0330
   69CHL1   H25 7578   4.482   5.984   8.306 -3.6492  0.8624 -0.5955
   69CHL1   C26 7579   4.357   5.875   8.188  0.2671 -0.4268  0.2233
   69CHL1  H26A 7580   4.339   5.789   8.255 -0.1395  0.5887  1.4738
   69CHL1  H26B 7581   4.274   5.946   8.212  0.7603  1.0848 -2.1937
   69CHL1  H26C 7582   4.342   5.848   8.082  0.4201 -1.5337  0.4789
   69CHL1   C27 7583   4.612   5.835   8.216  0.3377  0.4393 -0.1066
   69CHL1  H27A 7584   4.620   5.770   8.126 -2.7590 -0.0032 -0.1843
   69CHL1  H27B 7585   4.712   5.882   8.223 -0.0504  1.5756 -1.5621
   69CHL1  H27C 7586   4.599   5.763   8.299  0.0124  0.2279 -0.3404
   70CHL1    C3 7587   4.253   2.233   7.038  0.2755  0.2990 -0.0739
   70CHL1    H3 7588   4.171   2.158   7.035  0.4813 -0.0275  1.4606
   70CHL1    O3 7589   4.301   2.278   6.913  0.6747 -0.2420  0.0186
   70CHL1   H3' 7590   4.347   2.362   6.919  0.6496 -0.0999 -1.4426
   70CHL1    C4 7591   4.190   2.358   7.107 -0.6254  0.6659 -0.5573
   70CHL1   H4A 7592   4.264   2.441   7.107  0.2573  0.0621  3.3027
   70CHL1   H4B 7593   4.101   2.408   7.063 -2.5981  0.5858  2.9434
   70CHL1    C5 7594   4.164   2.340   7.258  0.4196  0.2492  0.2239
   70CHL1    C6 7595   4.040   2.366   7.305  0.7833 -1.0009 -0.0783
   70CHL1    H6 7596   3.957   2.400   7.242 -1.0385 -1.4284  1.9588
   70CHL1    C7 7597   4.006   2.352   7.453  0.0253  0.5718 -0.2033
   70CHL1   H7A 7598   3.965   2.445   7.498 -0.1975  0.6833 -0.6326
   70CHL1   H7B 7599   3.941   2.263   7.451 -0.1629  0.6888 -3.2163
   70CHL1    C8 7600   4.124   2.321   7.549  0.5492 -0.8769  0.0093
   70CHL1    H8 7601   4.184   2.408   7.581 -2.2114  1.0362  0.2504
   70CHL1   C14 7602   4.065   2.262   7.678 -0.4333  0.4127 -0.2758
   70CHL1   H14 7603   4.015   2.171   7.639  1.9263 -1.6615  1.2184
   70CHL1   C15 7604   3.967   2.337   7.762  0.3718  0.0497  0.2329
   70CHL1  H15A 7605   4.007   2.440   7.766  1.2124 -0.2777  0.6633
   70CHL1  H15B 7606   3.865   2.330   7.719  0.4233  0.4526  0.0409
   70CHL1   C16 7607   3.961   2.264   7.895 -0.0329  0.1454  0.9723
   70CHL1  H16A 7608   3.979   2.343   7.972 -1.1258  1.3511  0.0342
   70CHL1  H16B 7609   3.866   2.209   7.912  0.2133 -0.7745 -0.4704
   70CHL1   C17 7610   4.075   2.167   7.895  0.2223 -0.2958 -0.2808
   70CHL1   H17 7611   4.023   2.072   7.870 -0.5895 -0.2686  1.1837
   70CHL1   C13 7612   4.166   2.215   7.777 -0.4281 -0.0449  0.1707
   70CHL1   C18 7613   4.257   2.331   7.825 -0.0828 -0.7138  0.3898
   70CHL1  H18A 7614   4.326   2.371   7.748  1.9247  1.7612  3.2235
   70CHL1  H18B 7615   4.220   2.424   7.872  0.5537  0.2972 -1.0522
   70CHL1  H18C 7616   4.333   2.291   7.896  2.1109  0.4345 -1.2030
   70CHL1   C12 7617   4.243   2.108   7.699 -0.3545  0.6043  0.6293
   70CHL1  H12A 7618   4.330   2.076   7.761  0.9533  1.1119 -0.8851
   70CHL1  H12B 7619   4.174   2.025   7.674  1.8983 -1.2756  0.3673
   70CHL1   C11 7620   4.308   2.156   7.569  0.1123 -1.1858 -0.2869
   70CHL1  H11A 7621   4.378   2.234   7.607 -0.5723  0.8348 -2.9182
   70CHL1  H11B 7622   4.367   2.082   7.512  0.6902 -0.4495 -0.6631
   70CHL1    C9 7623   4.211   2.223   7.470  0.4834  0.0654 -0.3706
   70CHL1    H9 7624   4.145   2.135   7.452  0.3315 -0.2142  1.3418
   70CHL1   C10 7625   4.277   2.272   7.341 -0.2436  0.0924 -0.4900
   70CHL1   C19 7626   4.385   2.375   7.366 -0.4563  0.8617  0.2783
   70CHL1  H19A 7627   4.442   2.409   7.277  0.5065 -1.8083 -0.2169
   70CHL1  H19B 7628   4.347   2.460   7.427 -1.2460 -0.9786  2.4558
   70CHL1  H19C 7629   4.461   2.317   7.424  0.6526  1.4274 -0.5620
   70CHL1    C1 7630   4.333   2.160   7.256  0.3479 -0.4124 -0.0975
   70CHL1   H1A 7631   4.423   2.112   7.300  0.2729 -0.9107 -0.4823
   70CHL1   H1B 7632   4.257   2.080   7.241 -1.0806  1.0743 -1.1217
   70CHL1    C2 7633   4.379   2.195   7.119  0.2475  0.5753  0.0951
   70CHL1   H2A 7634   4.421   2.107   7.066  1.2472  1.3503 -0.4327
   70CHL1   H2B 7635   4.445   2.284   7.119  1.6822 -0.4356  1.2377
   70CHL1   C20 7636   4.136   2.148   8.033  0.9863 -0.1723 -0.1439
   70CHL1   H20 7637   4.176   2.247   8.063  0.9180 -0.5487  1.2421
   70CHL1   C21 7638   4.257   2.054   8.027  0.7594 -0.3291  0.8465
   70CHL1  H21A 7639   4.305   2.042   8.126 -0.9431  1.5275  1.9605
   70CHL1  H21B 7640   4.341   2.081   7.960 -0.3725  0.8890 -0.1497
   70CHL1  H21C 7641   4.227   1.956   7.984  0.4011  0.1003  0.0815
   70CHL1   C22 7642   4.036   2.102   8.137 -0.3988 -0.5767 -1.3435
   70CHL1  H22A 7643   3.955   2.178   8.144  0.1160 -0.0594 -0.8736
   70CHL1  H22B 7644   3.995   2.003   8.109 -0.6705 -0.7550 -0.3689
   70CHL1   C23 7645   4.088   2.084   8.288  0.3797 -0.0874  1.0840
   70CHL1  H23A 7646   4.152   1.993   8.289  0.5973  0.0433  0.0711
   70CHL1  H23B 7647   4.147   2.177   8.301  1.0981 -0.2287 -0.8726
   70CHL1   C24 7648   3.969   2.081   8.383 -0.3452 -0.5617 -0.0761
   70CHL1  H24A 7649   3.999   2.117   8.484 -1.1935 -0.2762  0.0854
   70CHL1  H24B 7650   3.882   2.132   8.335  0.6056  0.0782 -1.1833
   70CHL1   C25 7651   3.916   1.938   8.415  0.2279 -0.6210 -0.6817
   70CHL1   H25 7652   3.898   1.901   8.311  1.2535  2.1481 -1.9445
   70CHL1   C26 7653   4.021   1.854   8.468  0.2180  0.1469  0.4678
   70CHL1  H26A 7654   4.058   1.899   8.563 -1.7997  0.7912  0.9942
   70CHL1  H26B 7655   3.992   1.750   8.490 -1.7436  0.4975 -0.3192
   70CHL1  H26C 7656   4.110   1.837   8.404  1.6394  0.3378  2.2769
   70CHL1   C27 7657   3.790   1.944   8.497  0.0198 -0.5361 -0.1911
   70CHL1  H27A 7658   3.721   2.014   8.445 -0.3984  1.4050  2.6951
   70CHL1  H27B 7659   3.743   1.844   8.486  1.6409 -1.5449  1.4659
   70CHL1  H27C 7660   3.811   1.961   8.605 -0.4940  0.4531 -0.2318
   71CHL1    C3 7661   4.316   0.658   6.954  0.1485  0.0523  0.3094
   71CHL1    H3 7662   4.370   0.754   6.935 -1.2698  0.5015 -1.8406
   71CHL1    O3 7663   4.280   0.594   6.829  0.7632  0.0987 -0.9835
   71CHL1   H3' 7664   4.187   0.575   6.840  0.9371  0.3288  1.6299
   71CHL1    C4 7665   4.407   0.562   7.032 -0.3044  0.7695  0.3046
   71CHL1   H4A 7666   4.359   0.463   7.041  1.6756 -0.0961  2.2144
   71CHL1   H4B 7667   4.501   0.541   6.977 -0.0583 -0.1683  1.0647
   71CHL1    C5 7668   4.454   0.609   7.167 -0.3760 -0.0028 -0.6656
   71CHL1    C6 7669   4.585   0.623   7.198 -0.1774 -0.0423 -0.5651
   71CHL1    H6 7670   4.670   0.612   7.130  1.5020  2.5853  0.9340
   71CHL1    C7 7671   4.617   0.648   7.343 -0.7657  0.2092 -0.0229
   71CHL1   H7A 7672   4.707   0.591   7.375  0.2810  0.7742 -1.8060
   71CHL1   H7B 7673   4.650   0.754   7.341 -0.1779  0.0252 -1.9786
   71CHL1    C8 7674   4.500   0.635   7.439 -0.4139  0.2134 -0.0768
   71CHL1    H8 7675   4.471   0.528   7.440  1.7209 -0.4527 -2.1588
   71CHL1   C14 7676   4.534   0.683   7.584  0.4818  0.2989  0.2979
   71CHL1   H14 7677   4.560   0.790   7.567  0.8384 -0.0580 -1.6621
   71CHL1   C15 7678   4.657   0.623   7.667  0.5376  0.3806  0.1612
   71CHL1  H15A 7679   4.662   0.512   7.657 -0.8681  0.3536 -0.5864
   71CHL1  H15B 7680   4.753   0.667   7.631  1.0050 -0.7014  0.0529
   71CHL1   C16 7681   4.618   0.677   7.809 -0.1823  0.5121  0.0200
   71CHL1  H16A 7682   4.626   0.584   7.871 -2.3655  0.0433 -0.3198
   71CHL1  H16B 7683   4.701   0.741   7.846  1.1745 -0.3870 -1.3379
   71CHL1   C17 7684   4.478   0.741   7.812  0.1382  0.2995  0.1974
   71CHL1   H17 7685   4.501   0.848   7.794  2.0343 -0.2990 -1.3442
   71CHL1   C13 7686   4.410   0.691   7.683 -0.1745 -0.5166 -0.2606
   71CHL1   C18 7687   4.342   0.549   7.704 -0.3133 -0.2216 -0.5819
   71CHL1  H18A 7688   4.412   0.480   7.754 -0.8816 -0.2168  0.2405
   71CHL1  H18B 7689   4.254   0.559   7.771  1.4182  2.7226  1.4943
   71CHL1  H18C 7690   4.303   0.494   7.616 -0.4139  0.0847 -0.7328
   71CHL1   C12 7691   4.307   0.787   7.623  0.8840  0.0718  0.5845
   71CHL1  H12A 7692   4.216   0.796   7.686  1.1796  0.4623  0.9627
   71CHL1  H12B 7693   4.350   0.889   7.607  0.1665  0.1466 -1.0904
   71CHL1   C11 7694   4.261   0.733   7.483 -1.2415  0.0309 -0.4071
   71CHL1  H11A 7695   4.202   0.643   7.509 -0.6894  0.6768  3.7124
   71CHL1  H11B 7696   4.195   0.809   7.436 -0.0696  0.6726 -1.0680
   71CHL1    C9 7697   4.381   0.714   7.384  0.6486  0.4873 -0.0934
   71CHL1    H9 7698   4.415   0.816   7.357 -2.1549  1.1772 -1.3890
   71CHL1   C10 7699   4.334   0.647   7.256 -0.5750 -0.8465 -0.5018
   71CHL1   C19 7700   4.255   0.524   7.293 -0.5848  0.4957 -0.0660
   71CHL1  H19A 7701   4.238   0.449   7.213  1.6357 -0.5942  0.4111
   71CHL1  H19B 7702   4.303   0.464   7.373  1.9193  0.6404 -1.3403
   71CHL1  H19C 7703   4.153   0.548   7.329 -0.3622 -1.5796  2.2056
   71CHL1    C1 7704   4.244   0.746   7.173  0.1245 -0.4417 -0.0015
   71CHL1   H1A 7705   4.157   0.771   7.238 -1.0291 -1.6740 -1.0327
   71CHL1   H1B 7706   4.308   0.832   7.142  1.8620 -1.7713 -0.2384
   71CHL1    C2 7707   4.196   0.680   7.039  0.0114  0.2648 -0.1230
   71CHL1   H2A 7708   4.132   0.761   6.998  0.2538  0.5382  0.0342
   71CHL1   H2B 7709   4.132   0.589   7.050 -0.9836  0.8615 -0.8215
   71CHL1   C20 7710   4.394   0.726   7.938  0.0701 -0.4547 -0.0829
   71CHL1   H20 7711   4.284   0.723   7.921 -0.1647  1.2790  0.9184
   71CHL1   C21 7712   4.410   0.859   8.011 -0.1468 -0.0320  0.2849
   71CHL1  H21A 7713   4.498   0.852   8.079  0.6831  0.8812 -0.6693
   71CHL1  H21B 7714   4.320   0.886   8.072 -2.4821 -1.0579 -2.4711
   71CHL1  H21C 7715   4.421   0.948   7.945  0.7280  1.7249  2.6319
   71CHL1   C22 7716   4.420   0.601   8.036  0.2589 -0.1058 -0.2614
   71CHL1  H22A 7717   4.461   0.519   7.972  1.2097  0.1121  0.0618
   71CHL1  H22B 7718   4.497   0.624   8.112 -2.1040  0.1126  2.2317
   71CHL1   C23 7719   4.301   0.567   8.117  0.0894 -0.2512 -0.5051
   71CHL1  H23A 7720   4.291   0.650   8.191  2.4507 -0.9741  0.7200
   71CHL1  H23B 7721   4.206   0.574   8.059 -0.4445  1.7147  0.4994
   71CHL1   C24 7722   4.306   0.430   8.181  0.2203  0.3226  0.2487
   71CHL1  H24A 7723   4.210   0.408   8.231 -1.2241  3.2430 -0.9774
   71CHL1  H24B 7724   4.323   0.349   8.106 -1.2678  0.2634 -0.0456
   71CHL1   C25 7725   4.410   0.412   8.290 -0.8358 -0.1626 -0.1885
   71CHL1   H25 7726   4.505   0.457   8.255 -1.9135  0.7899 -2.0621
   71CHL1   C26 7727   4.362   0.492   8.417  0.4881  0.5202  0.5500
   71CHL1  H26A 7728   4.338   0.599   8.396  0.0251 -0.0037 -1.8269
   71CHL1  H26B 7729   4.270   0.453   8.466 -0.4715 -0.1507 -1.6736
   71CHL1  H26C 7730   4.441   0.495   8.495 -0.3932  0.2585  1.4663
   71CHL1   C27 7731   4.438   0.269   8.323  0.7373 -0.0367 -0.0919
   71CHL1  H27A 7732   4.533   0.268   8.381  1.9770 -1.2131 -2.0266
   71CHL1  H27B 7733   4.348   0.220   8.366  0.3902  0.5925 -0.0923
   71CHL1  H27C 7734   4.466   0.218   8.229 -3.2295 -1.1407 -0.8485
   72CHL1    C3 7735   6.152   4.772   6.977 -0.6815  0.2758 -0.3295
   72CHL1    H3 7736   6.095   4.836   7.047  1.8663  2.1236  0.2045
   72CHL1    O3 7737   6.166   4.850   6.861 -0.3522  0.2281 -0.2054
   72CHL1   H3' 7738   6.212   4.792   6.800  0.4869 -0.7039  1.2657
   72CHL1    C4 7739   6.282   4.733   7.045  0.6232  0.3341  0.0326
   72CHL1   H4A 7740   6.337   4.688   6.959 -0.5824 -0.0979 -0.5421
   72CHL1   H4B 7741   6.334   4.824   7.079  0.3453  0.5606 -0.1419
   72CHL1    C5 7742   6.258   4.645   7.169  0.4347 -0.2116  0.2027
   72CHL1    C6 7743   6.285   4.690   7.292  0.1937  0.1477 -0.3831
   72CHL1    H6 7744   6.330   4.788   7.313  2.4558 -0.4213 -2.1251
   72CHL1    C7 7745   6.284   4.603   7.412 -0.5210 -0.2618 -0.0620
   72CHL1   H7A 7746   6.380   4.615   7.467 -0.2837 -0.4359 -0.4392
   72CHL1   H7B 7747   6.214   4.651   7.484  1.6652  0.3284  1.7988
   72CHL1    C8 7748   6.252   4.458   7.399 -0.6427  0.4473 -0.0176
   72CHL1    H8 7749   6.345   4.404   7.371  0.4660  1.2863  1.8159
   72CHL1   C14 7750   6.199   4.390   7.518  0.3726  0.6701 -0.2650
   72CHL1   H14 7751   6.098   4.433   7.537 -0.3400  0.3210 -2.8385
   72CHL1   C15 7752   6.285   4.402   7.648 -0.1745  0.0380 -0.2823
   72CHL1  H15A 7753   6.389   4.377   7.618  0.0896  0.4285  0.2910
   72CHL1  H15B 7754   6.276   4.502   7.695 -0.9768 -0.5047  0.7671
   72CHL1   C16 7755   6.232   4.290   7.735 -0.4159 -0.5351 -0.6435
   72CHL1  H16A 7756   6.310   4.223   7.779  2.3940  1.8029 -1.7426
   72CHL1  H16B 7757   6.166   4.320   7.819 -1.8446 -0.8283 -1.6239
   72CHL1   C17 7758   6.143   4.197   7.644 -0.7394  0.5376  0.2494
   72CHL1   H17 7759   6.040   4.235   7.664 -1.1348 -0.2739 -0.2078
   72CHL1   C13 7760   6.172   4.236   7.504 -0.3151  0.2136  0.7732
   72CHL1   C18 7761   6.299   4.164   7.470  0.0870 -0.1839  0.0821
   72CHL1  H18A 7762   6.367   4.176   7.556  0.0581 -1.0600  0.2378
   72CHL1  H18B 7763   6.292   4.053   7.472 -0.1080 -0.2034 -0.9792
   72CHL1  H18C 7764   6.360   4.200   7.384  0.4231 -1.5039 -0.2567
   72CHL1   C12 7765   6.055   4.229   7.405 -0.3625 -0.3744  0.7104
   72CHL1  H12A 7766   6.020   4.128   7.374 -2.0499  0.2439  0.4713
   72CHL1  H12B 7767   5.972   4.290   7.444  1.6883  3.1303 -0.0207
   72CHL1   C11 7768   6.101   4.297   7.272 -0.1897  0.7773 -0.3791
   72CHL1  H11A 7769   6.180   4.234   7.227  0.2301  0.2173  1.0690
   72CHL1  H11B 7770   6.019   4.296   7.197 -0.5180  1.2079 -0.0339
   72CHL1    C9 7771   6.151   4.444   7.289  0.5156 -0.3528  0.3541
   72CHL1    H9 7772   6.064   4.493   7.338  0.7448 -0.3861  0.8010
   72CHL1   C10 7773   6.183   4.516   7.151 -0.2316  0.7919  0.5259
   72CHL1   C19 7774   6.269   4.418   7.064 -0.1223 -0.0606 -0.8759
   72CHL1  H19A 7775   6.268   4.480   6.972 -1.0293  2.6727  0.8417
   72CHL1  H19B 7776   6.372   4.408   7.102  0.6411  1.3200 -2.4491
   72CHL1  H19C 7777   6.222   4.320   7.040 -0.3843  0.4432 -2.5688
   72CHL1    C1 7778   6.057   4.560   7.076  0.1183 -1.3448  0.0932
   72CHL1   H1A 7779   6.005   4.466   7.050 -1.1794 -0.6930  0.2813
   72CHL1   H1B 7780   5.988   4.613   7.145  1.3504 -1.6002  1.5957
   72CHL1    C2 7781   6.074   4.643   6.948 -0.4069  0.2996 -0.1849
   72CHL1   H2A 7782   5.978   4.659   6.894 -1.0395  0.9763  1.0929
   72CHL1   H2B 7783   6.136   4.586   6.875 -1.6107  0.5064 -1.4008
   72CHL1   C20 7784   6.136   4.044   7.685 -0.5546 -0.4465  0.4961
   72CHL1   H20 7785   6.242   4.011   7.673 -1.3747 -2.9759 -0.4109
   72CHL1   C21 7786   6.045   3.974   7.592 -0.4417 -1.1273  0.9073
   72CHL1  H21A 7787   6.046   3.867   7.623  2.1659 -1.1585  0.9341
   72CHL1  H21B 7788   6.081   3.970   7.487 -2.3832  0.7308  0.1114
   72CHL1  H21C 7789   5.941   4.011   7.592  0.0557  0.4057 -0.7072
   72CHL1   C22 7790   6.088   4.015   7.831 -0.7683  0.5603 -0.1890
   72CHL1  H22A 7791   6.105   3.908   7.857 -0.3110 -0.0764 -2.8198
   72CHL1  H22B 7792   6.155   4.070   7.900  0.2566 -1.5596  0.5704
   72CHL1   C23 7793   5.950   4.048   7.866  0.5809 -0.1733 -0.4023
   72CHL1  H23A 7794   5.918   4.134   7.804  1.4117  0.9766  0.7192
   72CHL1  H23B 7795   5.891   3.958   7.837 -2.0908  2.0859 -2.4737
   72CHL1   C24 7796   5.932   4.082   8.008  0.2923 -0.7322 -0.0147
   72CHL1  H24A 7797   5.950   3.992   8.070  1.6733 -1.5742 -1.5499
   72CHL1  H24B 7798   6.009   4.156   8.039 -0.1382 -1.1324  2.1267
   72CHL1   C25 7799   5.791   4.141   8.037 -0.6238  0.4810  0.5884
   72CHL1   H25 7800   5.776   4.232   7.973 -0.4526  1.8661  2.4319
   72CHL1   C26 7801   5.686   4.032   7.993  0.2358 -0.1211 -0.2819
   72CHL1  H26A 7802   5.688   3.994   7.888  1.0187  0.6424 -0.5507
   72CHL1  H26B 7803   5.708   3.946   8.060 -1.3959 -0.4717 -0.1408
   72CHL1  H26C 7804   5.589   4.068   8.033 -0.2064 -1.0812 -0.4391
   72CHL1   C27 7805   5.771   4.180   8.183  0.2720  0.2047 -0.1680
   72CHL1  H27A 7806   5.668   4.220   8.199 -0.5285 -1.5765 -0.5593
   72CHL1  H27B 7807   5.785   4.099   8.258  1.7541  1.1561  0.6263
   72CHL1  H27C 7808   5.848   4.257   8.204  3.9067 -2.4431 -2.4944
   73CHL1    C3 7809   0.258   6.327   6.891 -0.1870  0.5140 -0.2519
   73CHL1    H3 7810   0.160   6.299   6.936 -0.8933 -0.4398 -2.2635
   73CHL1    O3 7811   0.241   6.307   6.751 -0.1826 -0.2091 -0.0416
   73CHL1   H3' 7812   0.175   6.372   6.725 -1.3914 -1.6584 -0.6933
   73CHL1    C4 7813   0.280   6.477   6.919  0.4059  0.0255 -0.8878
   73CHL1   H4A 7814   0.357   6.528   6.858  1.2511  0.2015  0.2912
   73CHL1   H4B 7815   0.181   6.519   6.891 -0.9689 -1.7316  1.0079
   73CHL1    C5 7816   0.308   6.490   7.068 -0.4584 -0.7303  0.2712
   73CHL1    C6 7817   0.235   6.580   7.140  0.1361  0.4493  0.5724
   73CHL1    H6 7818   0.153   6.632   7.087 -1.6804 -1.8827  0.9190
   73CHL1    C7 7819   0.242   6.598   7.289  0.3480  1.0243 -0.6643
   73CHL1   H7A 7820   0.237   6.706   7.318  2.5453  0.9968  0.0339
   73CHL1   H7B 7821   0.152   6.554   7.338  0.2143  0.4001 -1.4652
   73CHL1    C8 7822   0.370   6.532   7.355 -0.6413 -0.2628  0.0685
   73CHL1    H8 7823   0.454   6.600   7.329 -1.3668  0.8760  0.6468
   73CHL1   C14 7824   0.358   6.506   7.499 -0.1176  0.3744 -0.0730
   73CHL1   H14 7825   0.286   6.422   7.511  2.5842 -1.8235  2.0210
   73CHL1   C15 7826   0.298   6.623   7.576 -0.7555 -0.2041  0.1009
   73CHL1  H15A 7827   0.360   6.713   7.556 -0.1545 -0.4781  0.6984
   73CHL1  H15B 7828   0.192   6.648   7.553 -0.0981  1.9972 -0.8002
   73CHL1   C16 7829   0.321   6.580   7.719 -0.1101  0.2853 -1.5115
   73CHL1  H16A 7830   0.366   6.656   7.785  1.9613 -2.8185  0.9422
   73CHL1  H16B 7831   0.225   6.546   7.765 -0.1760  1.2778 -0.8935
   73CHL1   C17 7832   0.432   6.463   7.715  0.5655 -0.7225  0.1180
   73CHL1   H17 7833   0.367   6.376   7.736 -2.2250  0.2929 -3.3636
   73CHL1   C13 7834   0.488   6.461   7.572  0.3089 -0.1990 -0.0096
   73CHL1   C18 7835   0.596   6.566   7.549  0.3030  0.3587  0.1465
   73CHL1  H18A 7836   0.685   6.526   7.602  0.4470 -0.7220 -0.8609
   73CHL1  H18B 7837   0.620   6.582   7.441 -1.5506  2.1447 -0.0706
   73CHL1  H18C 7838   0.580   6.668   7.591 -2.2350  0.1528 -0.1547
   73CHL1   C12 7839   0.516   6.330   7.505 -0.6850  0.1735 -0.1192
   73CHL1  H12A 7840   0.606   6.278   7.543 -0.5159  1.5124  1.4226
   73CHL1  H12B 7841   0.435   6.260   7.534 -0.1396 -0.6782 -0.6243
   73CHL1   C11 7842   0.535   6.342   7.351 -0.4557  0.0947  0.6071
   73CHL1  H11A 7843   0.633   6.391   7.336  0.8327 -2.0596  1.4871
   73CHL1  H11B 7844   0.551   6.239   7.311  2.6200  0.5677  0.4464
   73CHL1    C9 7845   0.410   6.401   7.288 -0.5840 -0.5395 -0.7633
   73CHL1    H9 7846   0.331   6.334   7.327 -0.8584  0.3850  0.3224
   73CHL1   C10 7847   0.415   6.401   7.129 -0.0472  0.1118  0.5729
   73CHL1   C19 7848   0.555   6.460   7.085  0.1889 -0.3719 -0.5886
   73CHL1  H19A 7849   0.547   6.480   6.976  2.5730  0.1406 -0.7183
   73CHL1  H19B 7850   0.581   6.556   7.135  0.3906 -0.1386 -1.1364
   73CHL1  H19C 7851   0.626   6.376   7.096 -0.4827 -0.6487  2.8785
   73CHL1    C1 7852   0.399   6.257   7.082 -0.4006 -0.2576 -1.0107
   73CHL1   H1A 7853   0.490   6.199   7.110  1.5290  3.4711  1.2198
   73CHL1   H1B 7854   0.313   6.210   7.133  0.2011 -0.9535 -0.6087
   73CHL1    C2 7855   0.379   6.241   6.930  0.0816 -0.3858  0.6805
   73CHL1   H2A 7856   0.367   6.133   6.905  2.4880 -1.0975  2.2184
   73CHL1   H2B 7857   0.465   6.287   6.877 -0.1601 -0.2693  0.3804
   73CHL1   C20 7858   0.536   6.472   7.827  0.1689 -0.6577  0.5070
   73CHL1   H20 7859   0.584   6.570   7.805  0.6959 -0.8311  0.8613
   73CHL1   C21 7860   0.636   6.350   7.817  0.3568  0.5751  0.5106
   73CHL1  H21A 7861   0.706   6.332   7.900  0.2047 -2.5868  0.0656
   73CHL1  H21B 7862   0.681   6.348   7.715 -0.1237 -0.1350  0.3050
   73CHL1  H21C 7863   0.565   6.265   7.824 -1.3616  1.8745 -0.2103
   73CHL1   C22 7864   0.466   6.471   7.963 -0.0074 -0.2092 -0.2613
   73CHL1  H22A 7865   0.382   6.542   7.977 -0.3543 -0.7857  0.6755
   73CHL1  H22B 7866   0.430   6.368   7.986 -1.2849  0.2641 -0.0583
   73CHL1   C23 7867   0.549   6.509   8.089  0.2012  0.2308  0.1433
   73CHL1  H23A 7868   0.486   6.497   8.180  0.1613  3.6563  0.7170
   73CHL1  H23B 7869   0.632   6.436   8.090 -1.9194 -2.3158 -0.5489
   73CHL1   C24 7870   0.606   6.650   8.091 -0.5721 -0.3273 -0.2447
   73CHL1  H24A 7871   0.688   6.666   8.019  0.7983 -3.0573  0.5869
   73CHL1  H24B 7872   0.531   6.728   8.064 -0.1910 -0.1937 -0.9392
   73CHL1   C25 7873   0.674   6.698   8.222 -0.1395 -0.0373 -0.9310
   73CHL1   H25 7874   0.716   6.800   8.213 -1.1134  0.8291  2.5746
   73CHL1   C26 7875   0.588   6.716   8.349  0.7580 -0.3339  0.2323
   73CHL1  H26A 7876   0.498   6.781   8.338  1.7685  0.9724 -0.7831
   73CHL1  H26B 7877   0.555   6.615   8.379  0.8202 -0.2119  0.7323
   73CHL1  H26C 7878   0.649   6.769   8.426  2.2957 -0.3247 -0.9441
   73CHL1   C27 7879   0.806   6.621   8.252  0.2840  0.3831  0.0460
   73CHL1  H27A 7880   0.864   6.632   8.158 -2.8982  0.0703 -2.1393
   73CHL1  H27B 7881   0.855   6.665   8.341  2.3430  1.4110 -1.5086
   73CHL1  H27C 7882   0.773   6.516   8.267  0.3531  0.0888 -1.6325
   74CHL1    C3 7883   3.002   6.201   6.902 -0.1796  0.1909 -0.4235
   74CHL1    H3 7884   3.112   6.187   6.904 -0.2241 -1.2857 -3.4105
   74CHL1    O3 7885   2.966   6.227   6.769 -0.5875 -0.2310  0.0876
   74CHL1   H3' 7886   2.872   6.213   6.761 -0.7234  1.2334 -1.3806
   74CHL1    C4 7887   2.919   6.088   6.965  0.0601  0.4085  0.0209
   74CHL1   H4A 7888   2.809   6.099   6.954 -0.2338 -1.5521  0.5465
   74CHL1   H4B 7889   2.957   5.997   6.913  2.9594  0.9956  0.9356
   74CHL1    C5 7890   2.958   6.070   7.116 -0.0714 -0.0915  1.0980
   74CHL1    C6 7891   3.000   5.948   7.162 -0.3503  0.6139 -0.0669
   74CHL1    H6 7892   3.005   5.867   7.088 -0.9725  2.3385 -2.0765
   74CHL1    C7 7893   3.003   5.916   7.304  0.0478 -0.4581 -0.6128
   74CHL1   H7A 7894   2.945   5.824   7.329  1.6062 -0.5823  3.2265
   74CHL1   H7B 7895   3.111   5.898   7.327 -0.3459  0.1341  2.0641
   74CHL1    C8 7896   2.952   6.029   7.398  0.1971 -0.6397  0.1650
   74CHL1    H8 7897   2.842   6.021   7.409  0.2220  0.8698  2.1066
   74CHL1   C14 7898   3.016   6.023   7.532  0.7686  0.8718  0.5610
   74CHL1   H14 7899   3.123   6.038   7.506  0.4638 -0.2298 -1.5815
   74CHL1   C15 7900   3.017   5.888   7.603  0.4036 -0.1229  0.7991
   74CHL1  H15A 7901   2.923   5.833   7.582  0.8186 -0.1782 -1.0957
   74CHL1  H15B 7902   3.106   5.830   7.567 -0.0015 -0.5327  0.4418
   74CHL1   C16 7903   3.019   5.919   7.750 -0.0839 -0.8449  0.1903
   74CHL1  H16A 7904   2.919   5.893   7.791 -0.2208  2.2027  2.0439
   74CHL1  H16B 7905   3.094   5.853   7.799  1.5908 -0.3923 -1.6231
   74CHL1   C17 7906   3.048   6.070   7.765 -0.0128  0.6841  0.5047
   74CHL1   H17 7907   3.158   6.067   7.750 -0.2447 -1.7798 -1.5169
   74CHL1   C13 7908   2.979   6.119   7.638 -0.3255  0.0743  0.1449
   74CHL1   C18 7909   2.825   6.130   7.667  0.3674 -0.5715 -0.4160
   74CHL1  H18A 7910   2.814   6.195   7.756  0.3060  1.3715 -1.7860
   74CHL1  H18B 7911   2.776   6.194   7.591  0.5491  2.6824  1.9997
   74CHL1  H18C 7912   2.770   6.035   7.685 -0.9460  0.5694  2.2448
   74CHL1   C12 7913   3.029   6.253   7.586  0.4435  0.0678  0.0273
   74CHL1  H12A 7914   3.003   6.341   7.648 -1.7935 -1.2323  1.0852
   74CHL1  H12B 7915   3.139   6.257   7.576  0.2610  2.3684 -2.3706
   74CHL1   C11 7916   2.972   6.275   7.446 -0.0403  0.1252  0.3745
   74CHL1  H11A 7917   2.867   6.311   7.445  0.0057  0.2715  0.7141
   74CHL1  H11B 7918   3.031   6.352   7.391  0.0225 -1.6635 -2.2660
   74CHL1    C9 7919   2.994   6.161   7.341 -0.0992  0.0519 -0.4254
   74CHL1    H9 7920   3.105   6.156   7.335  0.4125  1.2033  4.1484
   74CHL1   C10 7921   2.940   6.190   7.201 -0.2700  0.8783  0.1278
   74CHL1   C19 7922   2.795   6.226   7.202 -0.1869  0.2485  0.1373
   74CHL1  H19A 7923   2.789   6.321   7.260  2.7002  0.1190  0.7812
   74CHL1  H19B 7924   2.749   6.252   7.104 -1.8549 -0.5413  0.6771
   74CHL1  H19C 7925   2.734   6.154   7.261  2.1065 -1.2729  0.8099
   74CHL1    C1 7926   3.015   6.308   7.133  0.1452 -0.1385 -0.0354
   74CHL1   H1A 7927   3.010   6.397   7.199  3.2704 -2.0857  3.1249
   74CHL1   H1B 7928   3.123   6.287   7.144  0.0186 -0.6056  0.3236
   74CHL1    C2 7929   2.982   6.325   6.980 -0.0468  0.5290  0.0978
   74CHL1   H2A 7930   3.043   6.408   6.939  1.6129 -0.8229 -0.2823
   74CHL1   H2B 7931   2.876   6.357   6.972 -0.7714 -1.2577  1.7418
   74CHL1   C20 7932   3.021   6.128   7.906  0.0064  0.4719  0.3029
   74CHL1   H20 7933   2.912   6.143   7.925  0.3140  0.9401  1.8769
   74CHL1   C21 7934   3.088   6.265   7.921 -0.3972  0.0339 -0.4376
   74CHL1  H21A 7935   3.040   6.343   7.858  1.1342  1.1713 -0.2552
   74CHL1  H21B 7936   3.195   6.256   7.893 -0.3430 -0.1320 -0.1765
   74CHL1  H21C 7937   3.075   6.314   8.020  0.4914  2.0753 -1.2754
   74CHL1   C22 7938   3.069   6.026   8.013  0.0118  0.2357  0.1206
   74CHL1  H22A 7939   3.015   5.929   8.005  1.8072 -0.9938  2.0252
   74CHL1  H22B 7940   3.177   6.007   7.999 -0.3843 -0.8672 -1.6950
   74CHL1   C23 7941   3.034   6.073   8.157 -0.0940 -0.0479 -0.1690
   74CHL1  H23A 7942   3.083   6.170   8.179  2.2466 -0.8828 -1.4025
   74CHL1  H23B 7943   2.924   6.090   8.150 -0.0066  1.0845  0.8654
   74CHL1   C24 7944   3.061   5.967   8.264 -0.0470 -0.0748  0.0741
   74CHL1  H24A 7945   2.997   5.881   8.234  1.6737 -1.2848 -0.3565
   74CHL1  H24B 7946   3.166   5.929   8.259 -0.0013 -0.0007  0.4627
   74CHL1   C25 7947   3.021   5.992   8.416  0.4091  0.2398  0.5703
   74CHL1   H25 7948   2.916   6.028   8.418 -0.1172 -1.0900 -1.0678
   74CHL1   C26 7949   3.003   5.852   8.479 -0.4883 -0.6142  0.8928
   74CHL1  H26A 7950   3.097   5.798   8.457 -2.5846 -3.3642 -2.4265
   74CHL1  H26B 7951   2.978   5.843   8.587 -0.3693 -2.0334  0.8208
   74CHL1  H26C 7952   2.934   5.787   8.421 -0.7881  1.8197 -1.6877
   74CHL1   C27 7953   3.107   6.084   8.496 -0.1095  0.6022 -0.0810
   74CHL1  H27A 7954   3.071   6.103   8.600 -1.8952 -0.1831 -0.5140
   74CHL1  H27B 7955   3.216   6.062   8.501 -0.3801 -1.0493 -0.9390
   74CHL1  H27C 7956   3.101   6.184   8.449 -0.8164  0.8993  0.6143
   75CHL1    C3 7957   1.958   6.146   6.689  0.1674  0.5295  0.8130
   75CHL1    H3 7958   2.055   6.196   6.709  0.7455 -1.1357  2.5640
   75CHL1    O3 7959   1.924   6.156   6.551  0.0267  0.2791  0.7905
   75CHL1   H3' 7960   1.852   6.093   6.541 -0.8182  1.1456  1.2778
   75CHL1    C4 7961   2.000   6.000   6.714 -0.2505 -0.0384 -0.3239
   75CHL1   H4A 7962   1.916   5.938   6.674 -2.3796  2.6199 -0.2334
   75CHL1   H4B 7963   2.090   5.983   6.650 -0.5298 -1.4224 -0.3884
   75CHL1    C5 7964   2.025   5.978   6.867 -0.0824  0.2641  0.0012
   75CHL1    C6 7965   2.143   5.932   6.911 -0.9789  0.3206 -0.9739
   75CHL1    H6 7966   2.228   5.920   6.842  0.3698 -1.9032  0.9045
   75CHL1    C7 7967   2.162   5.898   7.053  0.6934 -0.5440  0.4433
   75CHL1   H7A 7968   2.221   5.803   7.054  2.3498  0.3633 -1.6874
   75CHL1   H7B 7969   2.225   5.980   7.094  0.2822  0.5822 -1.1079
   75CHL1    C8 7970   2.028   5.898   7.131  0.0434  0.6687  1.1322
   75CHL1    H8 7971   1.968   5.821   7.078  1.8123  1.2790 -2.0150
   75CHL1   C14 7972   2.048   5.869   7.278  0.0140  0.4171  0.5830
   75CHL1   H14 7973   2.113   5.951   7.316  2.2892 -0.6543 -0.7565
   75CHL1   C15 7974   2.118   5.739   7.307  0.4620  0.3206  0.0590
   75CHL1  H15A 7975   2.077   5.654   7.249  1.1772 -1.6058  2.2225
   75CHL1  H15B 7976   2.227   5.731   7.288  0.0041 -0.7081 -2.6124
   75CHL1   C16 7977   2.081   5.713   7.459  0.0208  0.7235  1.4840
   75CHL1  H16A 7978   2.022   5.618   7.460 -1.5706  1.6522  0.3731
   75CHL1  H16B 7979   2.177   5.708   7.515  0.0224 -2.5023  1.4135
   75CHL1   C17 7980   1.985   5.830   7.501 -0.5048  0.6403  0.2173
   75CHL1   H17 7981   2.053   5.908   7.541 -0.8281  0.5837  0.8958
   75CHL1   C13 7982   1.925   5.877   7.369  0.0811  1.0581 -0.6674
   75CHL1   C18 7983   1.817   5.776   7.328  0.2795  0.3253 -0.1622
   75CHL1  H18A 7984   1.730   5.787   7.396  1.4814  3.2055  1.0882
   75CHL1  H18B 7985   1.791   5.792   7.222 -0.5440  1.0578  0.1357
   75CHL1  H18C 7986   1.839   5.668   7.337  1.9762  0.4512 -2.0568
   75CHL1   C12 7987   1.873   6.019   7.358 -0.3878  0.0120  0.1027
   75CHL1  H12A 7988   1.780   6.020   7.420  0.9857  1.1173  2.2645
   75CHL1  H12B 7989   1.950   6.090   7.395  0.5097 -0.3835 -0.9653
   75CHL1   C11 7990   1.848   6.061   7.211 -0.5163 -0.4751  0.3427
   75CHL1  H11A 7991   1.748   6.018   7.192 -0.0646 -0.6902 -1.7438
   75CHL1  H11B 7992   1.835   6.172   7.211  2.0209 -0.1202 -0.8977
   75CHL1    C9 7993   1.954   6.029   7.104  0.3429  0.0824  0.3071
   75CHL1    H9 7994   2.032   6.107   7.111  0.1497  0.9102 -3.8307
   75CHL1   C10 7995   1.901   6.023   6.955 -1.0513 -0.1072 -0.4172
   75CHL1   C19 7996   1.781   5.922   6.944 -0.0666 -0.1981  0.7990
   75CHL1  H19A 7997   1.745   5.934   6.839 -1.9071  1.6565  1.5658
   75CHL1  H19B 7998   1.807   5.815   6.962  0.1592 -0.3317 -0.2570
   75CHL1  H19C 7999   1.692   5.952   7.003 -0.7673 -1.0248  0.2026
   75CHL1    C1 8000   1.854   6.161   6.918  0.2510 -0.0101  0.0740
   75CHL1   H1A 8001   1.758   6.166   6.974 -1.4207 -2.8746 -2.2338
   75CHL1   H1B 8002   1.928   6.233   6.958  0.9975 -1.3340  1.1740
   75CHL1    C2 8003   1.839   6.192   6.771  0.9162 -1.0992  0.4882
   75CHL1   H2A 8004   1.831   6.302   6.754  0.4916 -1.5551 -2.9582
   75CHL1   H2B 8005   1.740   6.153   6.739  1.3637 -1.0870 -1.0180
   75CHL1   C20 8006   1.895   5.791   7.613 -0.0743  0.5468  0.0635
   75CHL1   H20 8007   1.838   5.699   7.586 -0.4939  0.9153 -0.3024
   75CHL1   C21 8008   1.790   5.893   7.645  0.0556  0.0111  0.2637
   75CHL1  H21A 8009   1.739   5.870   7.741 -2.2578  1.8437 -0.4443
   75CHL1  H21B 8010   1.713   5.888   7.565  0.5993  0.8647 -0.3279
   75CHL1  H21C 8011   1.840   5.992   7.648 -0.6685  0.4192 -0.7106
   75CHL1   C22 8012   1.990   5.753   7.736  0.1414 -0.2914  0.2092
   75CHL1  H22A 8013   2.063   5.673   7.710  1.8660  1.1881  0.2439
   75CHL1  H22B 8014   2.046   5.848   7.754  1.1220 -0.9984  1.0442
   75CHL1   C23 8015   1.919   5.708   7.864 -0.0466 -0.6743 -0.3670
   75CHL1  H23A 8016   1.854   5.793   7.893  2.7220  1.3183  0.4010
   75CHL1  H23B 8017   1.840   5.633   7.841  0.4261 -1.4729  0.5732
   75CHL1   C24 8018   2.011   5.671   7.973  0.7707 -0.4994  0.6611
   75CHL1  H24A 8019   2.028   5.561   7.970  1.9995 -0.3036 -1.4675
   75CHL1  H24B 8020   2.108   5.723   7.957  1.1378 -1.7024 -1.3537
   75CHL1   C25 8021   1.960   5.712   8.116 -0.0225 -1.1152  0.2124
   75CHL1   H25 8022   1.925   5.815   8.096  1.6703 -0.8996 -1.9461
   75CHL1   C26 8023   1.835   5.641   8.170 -0.5712 -0.5036 -0.5723
   75CHL1  H26A 8024   1.751   5.673   8.105  0.4143  0.2378 -1.5213
   75CHL1  H26B 8025   1.849   5.531   8.164  0.7904 -0.4110  0.5529
   75CHL1  H26C 8026   1.805   5.668   8.273  1.5021  2.5119 -0.6219
   75CHL1   C27 8027   2.061   5.714   8.227  0.4955  0.0710  0.0448
   75CHL1  H27A 8028   2.023   5.788   8.300  0.4161  0.3261 -0.2538
   75CHL1  H27B 8029   2.067   5.618   8.283  0.8450  0.7623  1.2163
   75CHL1  H27C 8030   2.162   5.744   8.191  1.5121 -2.6355  0.4416
   76CHL1    C3 8031   5.726   2.497   7.281 -0.2820  1.0179 -0.7140
   76CHL1    H3 8032   5.666   2.579   7.326  0.8019  2.0316 -1.0616
   76CHL1    O3 8033   5.722   2.513   7.142 -0.4285 -0.4582 -0.2104
   76CHL1   H3' 8034   5.662   2.586   7.128 -1.4881 -1.3427 -0.3779
   76CHL1    C4 8035   5.866   2.501   7.333  0.2074 -0.6902  0.2836
   76CHL1   H4A 8036   5.929   2.424   7.284  0.9110  0.5636 -0.8332
   76CHL1   H4B 8037   5.908   2.602   7.314 -2.4019  0.7090  1.4573
   76CHL1    C5 8038   5.863   2.495   7.485 -0.5181  0.2237 -0.4376
   76CHL1    C6 8039   5.902   2.594   7.566 -0.0249 -0.1183 -0.8241
   76CHL1    H6 8040   5.930   2.686   7.513 -1.3464  0.4310 -0.6086
   76CHL1    C7 8041   5.906   2.592   7.713 -0.2416 -0.4683 -0.0563
   76CHL1   H7A 8042   5.996   2.638   7.758 -0.9718  1.2058 -0.2462
   76CHL1   H7B 8043   5.815   2.642   7.752 -0.7053 -2.9073  2.2920
   76CHL1    C8 8044   5.895   2.449   7.774  0.1940 -0.9028  0.9213
   76CHL1    H8 8045   5.997   2.408   7.763  0.9576  1.4832 -1.9575
   76CHL1   C14 8046   5.848   2.449   7.920 -0.1733  0.0438  0.5183
   76CHL1   H14 8047   5.743   2.484   7.911 -0.1777  0.0287  0.5118
   76CHL1   C15 8048   5.914   2.556   8.014 -0.2559 -0.3294 -0.4804
   76CHL1  H15A 8049   6.025   2.566   8.006  0.0592 -2.5314  0.4717
   76CHL1  H15B 8050   5.872   2.657   7.996 -1.6333 -0.8596 -0.3178
   76CHL1   C16 8051   5.888   2.498   8.155  0.8491 -0.2231 -0.1216
   76CHL1  H16A 8052   5.984   2.464   8.199  0.5590  0.3558  0.9943
   76CHL1  H16B 8053   5.842   2.577   8.218  0.3723 -0.7944  0.2536
   76CHL1   C17 8054   5.794   2.381   8.133 -0.2241  0.1323  1.1922
   76CHL1   H17 8055   5.692   2.425   8.126  0.3919  1.4718  0.4877
   76CHL1   C13 8056   5.833   2.318   7.994  0.4403 -0.3843  0.6226
   76CHL1   C18 8057   5.959   2.229   8.000  0.3669  0.1438 -0.3115
   76CHL1  H18A 8058   6.031   2.276   8.070 -2.6709  2.3272  1.6548
   76CHL1  H18B 8059   5.930   2.125   8.027  5.5383 -0.8545  2.5858
   76CHL1  H18C 8060   6.011   2.237   7.902  1.3357 -1.4064  0.0490
   76CHL1   C12 8061   5.721   2.253   7.912  0.2919  0.7184  0.4963
   76CHL1  H12A 8062   5.686   2.166   7.972  0.4496  1.0899  1.1348
   76CHL1  H12B 8063   5.631   2.317   7.900  0.4614  0.7187 -0.9402
   76CHL1   C11 8064   5.763   2.226   7.760  0.1847  0.0178  0.2795
   76CHL1  H11A 8065   5.850   2.157   7.758 -0.1096 -0.3439 -0.2029
   76CHL1  H11B 8066   5.673   2.182   7.713  0.2684  0.1457 -0.0030
   76CHL1    C9 8067   5.799   2.361   7.696 -0.0230  0.5723  0.4618
   76CHL1    H9 8068   5.705   2.421   7.703  0.3715  1.1032  1.4221
   76CHL1   C10 8069   5.817   2.359   7.541  0.2249 -0.4014 -0.1145
   76CHL1   C19 8070   5.920   2.248   7.511  0.2230 -0.3994 -0.1131
   76CHL1  H19A 8071   6.018   2.272   7.556 -0.2661 -1.3060  1.5293
   76CHL1  H19B 8072   5.883   2.148   7.541 -2.3435  1.1662  2.4870
   76CHL1  H19C 8073   5.937   2.247   7.401  2.9222  0.2666  0.2262
   76CHL1    C1 8074   5.679   2.322   7.473 -0.4491 -0.2243 -0.1088
   76CHL1   H1A 8075   5.660   2.214   7.491 -1.2339 -0.1367 -0.3771
   76CHL1   H1B 8076   5.602   2.385   7.521  0.0558  0.0120  0.4056
   76CHL1    C2 8077   5.666   2.354   7.321  0.0538  0.0994  0.2137
   76CHL1   H2A 8078   5.558   2.364   7.297  0.7973  1.4163 -3.0240
   76CHL1   H2B 8079   5.726   2.272   7.276  1.3418  0.7869  0.6319
   76CHL1   C20 8080   5.809   2.284   8.243  0.2275  0.1465  0.2874
   76CHL1   H20 8081   5.916   2.255   8.244 -0.2716 -1.9069 -0.1416
   76CHL1   C21 8082   5.730   2.148   8.232  0.3645  0.5028 -0.6038
   76CHL1  H21A 8083   5.730   2.095   8.330 -0.0302  1.1814 -0.2255
   76CHL1  H21B 8084   5.777   2.086   8.153 -0.6887 -0.7609 -0.2621
   76CHL1  H21C 8085   5.623   2.166   8.209  0.0879 -0.3758 -0.0289
   76CHL1   C22 8086   5.776   2.347   8.376  0.2240  0.0047 -0.0772
   76CHL1  H22A 8087   5.796   2.267   8.451 -1.5429 -0.9121 -0.5284
   76CHL1  H22B 8088   5.854   2.424   8.394 -1.7044  1.9215  0.4006
   76CHL1   C23 8089   5.633   2.400   8.405 -0.2803 -1.0363  0.6463
   76CHL1  H23A 8090   5.575   2.313   8.367  1.2074 -1.1141 -1.6097
   76CHL1  H23B 8091   5.639   2.421   8.514  1.1710 -1.9248  0.7683
   76CHL1   C24 8092   5.578   2.527   8.338  0.7355  0.0700  0.5082
   76CHL1  H24A 8093   5.658   2.602   8.324  1.8485 -1.0563  0.6732
   76CHL1  H24B 8094   5.533   2.507   8.238  0.5240 -0.3915  0.6895
   76CHL1   C25 8095   5.476   2.584   8.439 -0.6504 -0.2049 -0.0880
   76CHL1   H25 8096   5.530   2.610   8.532  1.3671  0.7877 -1.4449
   76CHL1   C26 8097   5.423   2.723   8.378 -0.1682  0.1699 -0.5401
   76CHL1  H26A 8098   5.350   2.778   8.440  0.0844  1.0372 -1.0002
   76CHL1  H26B 8099   5.510   2.791   8.363  0.4852 -0.1699  1.4324
   76CHL1  H26C 8100   5.385   2.701   8.276 -1.2795  3.2395 -0.8842
   76CHL1   C27 8101   5.360   2.494   8.471  0.5628  0.4848 -0.6586
   76CHL1  H27A 8102   5.278   2.558   8.509  0.7643  0.1028  0.4547
   76CHL1  H27B 8103   5.312   2.457   8.377 -4.1231  3.8841  0.0443
   76CHL1  H27C 8104   5.383   2.409   8.540  2.6467 -0.3901 -2.2903
   77CHL1    C3 8105   3.379   0.161   6.996 -0.0013  0.1763 -0.0290
   77CHL1    H3 8106   3.358   0.054   7.015  1.5060  0.3534  3.3671
   77CHL1    O3 8107   3.369   0.190   6.854 -0.0070 -0.1966  0.3531
   77CHL1   H3' 8108   3.427   0.122   6.817  2.1070  0.6818  1.8060
   77CHL1    C4 8109   3.269   0.246   7.068 -0.1561 -0.3942  0.1565
   77CHL1   H4A 8110   3.290   0.354   7.051  2.7570 -1.0931 -1.5371
   77CHL1   H4B 8111   3.173   0.223   7.017 -0.2553 -0.5061  0.3947
   77CHL1    C5 8112   3.262   0.221   7.217  0.3600 -0.1856  0.2895
   77CHL1    C6 8113   3.145   0.199   7.282  0.1100  0.1881 -1.0157
   77CHL1    H6 8114   3.051   0.197   7.224 -0.5534  3.4104 -0.2184
   77CHL1    C7 8115   3.122   0.173   7.434 -0.1163  0.2231  0.9648
   77CHL1   H7A 8116   3.034   0.221   7.481 -0.0629  0.4100  0.8724
   77CHL1   H7B 8117   3.113   0.064   7.453  0.9340  0.2179  1.4780
   77CHL1    C8 8118   3.256   0.215   7.508 -0.6499 -0.1039  0.5376
   77CHL1    H8 8119   3.256   0.324   7.530  1.3124 -0.3834  2.2228
   77CHL1   C14 8120   3.254   0.145   7.647  0.0224 -0.4217 -0.2399
   77CHL1   H14 8121   3.262   0.035   7.630  1.6881 -0.6339  1.4881
   77CHL1   C15 8122   3.129   0.163   7.738 -0.0451 -0.2889 -1.1474
   77CHL1  H15A 8123   3.087   0.264   7.721  0.9559  0.3971  0.2008
   77CHL1  H15B 8124   3.043   0.096   7.717  0.0676 -0.2909 -1.5978
   77CHL1   C16 8125   3.177   0.133   7.876  0.5343 -0.2019 -0.1148
   77CHL1  H16A 8126   3.142   0.213   7.945  0.2355 -1.3312  1.0788
   77CHL1  H16B 8127   3.141   0.040   7.924 -2.3669  0.2127 -1.3004
   77CHL1   C17 8128   3.333   0.119   7.865 -0.0333 -0.4164  0.5997
   77CHL1   H17 8129   3.332   0.009   7.851  1.6263 -0.4193  0.2817
   77CHL1   C13 8130   3.369   0.190   7.733  0.0109 -0.3188 -0.4246
   77CHL1   C18 8131   3.368   0.339   7.760  0.4087  0.1550  0.3750
   77CHL1  H18A 8132   3.388   0.398   7.668  3.2006 -1.0250  0.1298
   77CHL1  H18B 8133   3.272   0.375   7.802 -0.5164  2.2733 -3.1266
   77CHL1  H18C 8134   3.458   0.372   7.816  1.8489  2.5101 -2.9863
   77CHL1   C12 8135   3.504   0.148   7.657  0.4058  0.0559 -0.4184
   77CHL1  H12A 8136   3.594   0.173   7.717 -0.1199  2.0865 -0.3914
   77CHL1  H12B 8137   3.492   0.041   7.630  0.3975  0.5466 -2.5524
   77CHL1   C11 8138   3.516   0.214   7.519 -0.3890  0.4976 -0.5501
   77CHL1  H11A 8139   3.528   0.322   7.540  0.4241  0.1785  0.7835
   77CHL1  H11B 8140   3.607   0.175   7.468  0.2475  0.6500  0.4380
   77CHL1    C9 8141   3.390   0.179   7.432  0.7833  0.7471 -0.7978
   77CHL1    H9 8142   3.378   0.069   7.429 -0.8310  0.8376  0.8176
   77CHL1   C10 8143   3.399   0.242   7.289  0.7938  0.9500  0.2497
   77CHL1   C19 8144   3.407   0.391   7.299 -0.2157  0.3341 -0.2689
   77CHL1  H19A 8145   3.405   0.446   7.202  1.9667  0.9402 -0.0241
   77CHL1  H19B 8146   3.335   0.435   7.371  0.3030  2.1054 -0.7844
   77CHL1  H19C 8147   3.507   0.423   7.335 -0.6931  0.9507  0.5301
   77CHL1    C1 8148   3.516   0.177   7.211 -0.0495  0.5043  0.5736
   77CHL1   H1A 8149   3.610   0.211   7.259  0.0527 -0.8503  1.4142
   77CHL1   H1B 8150   3.510   0.066   7.223 -1.8530  0.4779 -0.2301
   77CHL1    C2 8151   3.519   0.202   7.054  0.9771  0.6002  0.5133
   77CHL1   H2A 8152   3.597   0.146   6.999 -0.5422  0.4140 -1.6139
   77CHL1   H2B 8153   3.542   0.310   7.046 -0.0500  0.7597 -0.6182
   77CHL1   C20 8154   3.405   0.157   7.992 -0.4616 -0.0139 -0.1285
   77CHL1   H20 8155   3.391   0.266   8.008 -1.1018 -0.0061 -0.6765
   77CHL1   C21 8156   3.553   0.122   7.978 -0.5594  0.3267  0.1461
   77CHL1  H21A 8157   3.607   0.120   8.075 -0.4989  2.1890  0.1931
   77CHL1  H21B 8158   3.591   0.209   7.921 -1.5029  2.1677  2.1658
   77CHL1  H21C 8159   3.579   0.034   7.915  1.1438 -0.3005  1.6429
   77CHL1   C22 8160   3.352   0.096   8.128 -0.1235  0.3725  0.2454
   77CHL1  H22A 8161   3.403   0.143   8.214 -2.1597  1.4689  0.9141
   77CHL1  H22B 8162   3.248   0.134   8.136  0.6157  2.3365  1.1855
   77CHL1   C23 8163   3.356  -0.053   8.143 -0.3342  0.3215  0.2735
   77CHL1  H23A 8164   3.287  -0.108   8.075 -0.5972  0.3543  0.5154
   77CHL1  H23B 8165   3.461  -0.089   8.133  0.0526  0.9159  1.9626
   77CHL1   C24 8166   3.315  -0.102   8.282 -0.4672  0.4027 -0.7104
   77CHL1  H24A 8167   3.385  -0.059   8.357 -2.4515 -0.5728  1.8583
   77CHL1  H24B 8168   3.219  -0.049   8.303 -0.4500  0.3684 -0.5443
   77CHL1   C25 8169   3.288  -0.248   8.304  0.7563 -0.1069  0.1565
   77CHL1   H25 8170   3.377  -0.301   8.263 -0.6502 -1.7396 -0.9630
   77CHL1   C26 8171   3.275  -0.277   8.458 -0.1499  0.2378  0.0903
   77CHL1  H26A 8172   3.355  -0.218   8.507 -0.7876 -0.5683  2.2142
   77CHL1  H26B 8173   3.183  -0.230   8.499  0.2237  0.0931  1.1357
   77CHL1  H26C 8174   3.280  -0.386   8.482  1.2003  0.5701  1.5100
   77CHL1   C27 8175   3.169  -0.304   8.224  0.0144  0.3712 -0.2464
   77CHL1  H27A 8176   3.151  -0.264   8.122  2.6008  0.1124 -0.8658
   77CHL1  H27B 8177   3.175  -0.414   8.212 -1.4485  0.0843  1.1824
   77CHL1  H27C 8178   3.078  -0.295   8.288  0.3669 -2.2957  0.7574
   78CHL1    C3 8179   1.088   2.067   6.880 -0.8927  0.1742  0.0150
   78CHL1    H3 8180   0.986   2.029   6.899  0.1843 -2.1908  1.4637
   78CHL1    O3 8181   1.118   2.031   6.748 -0.2397 -0.2876 -0.0128
   78CHL1   H3' 8182   1.172   2.105   6.717  0.9102 -0.7626  0.7901
   78CHL1    C4 8183   1.104   2.218   6.897 -0.3282 -0.0605  0.5629
   78CHL1   H4A 8184   1.209   2.252   6.884 -0.6017  0.5771 -0.0432
   78CHL1   H4B 8185   1.047   2.265   6.814  1.1652 -0.2181 -0.5957
   78CHL1    C5 8186   1.067   2.258   7.039  0.0234  0.3513  0.1124
   78CHL1    C6 8187   0.966   2.337   7.062 -0.3550  0.5808  0.0032
   78CHL1    H6 8188   0.917   2.394   6.982 -2.4292 -0.7028  0.2928
   78CHL1    C7 8189   0.929   2.378   7.205 -0.1004 -0.2413  0.7795
   78CHL1   H7A 8190   0.903   2.486   7.198  0.3961 -0.1428  0.3576
   78CHL1   H7B 8191   0.841   2.317   7.234  0.9708 -1.5911  1.2654
   78CHL1    C8 8192   1.038   2.345   7.310 -0.5294  0.4515  0.7319
   78CHL1    H8 8193   1.120   2.418   7.291 -1.2814  1.1736  0.2315
   78CHL1   C14 8194   0.985   2.352   7.449  0.1137  0.0495 -0.1829
   78CHL1   H14 8195   0.911   2.269   7.455  0.9654 -0.8520 -1.5516
   78CHL1   C15 8196   0.927   2.493   7.487  0.1923 -0.6472 -0.4762
   78CHL1  H15A 8197   0.994   2.576   7.456 -1.0269  0.4536 -0.2460
   78CHL1  H15B 8198   0.832   2.512   7.433 -0.3055 -2.0832 -0.1523
   78CHL1   C16 8199   0.922   2.488   7.644  0.6503 -0.7286  0.3321
   78CHL1  H16A 8200   0.971   2.576   7.690  2.9007 -1.9913  0.4914
   78CHL1  H16B 8201   0.815   2.494   7.674  0.9169 -0.8701  1.3396
   78CHL1   C17 8202   0.997   2.356   7.689 -0.2117 -0.0087  0.5603
   78CHL1   H17 8203   0.913   2.284   7.702  0.7826 -1.2176  0.4199
   78CHL1   C13 8204   1.080   2.315   7.560 -1.1153  0.1584  0.0857
   78CHL1   C18 8205   1.205   2.397   7.541 -0.6176  0.3071 -0.6686
   78CHL1  H18A 8206   1.171   2.503   7.544 -0.8406  0.2489 -1.0316
   78CHL1  H18B 8207   1.266   2.360   7.626 -1.9598 -1.4278 -0.3911
   78CHL1  H18C 8208   1.252   2.366   7.445 -0.4301  1.2987 -0.9148
   78CHL1   C12 8209   1.124   2.160   7.540  0.5491 -0.7196  0.1188
   78CHL1  H12A 8210   1.207   2.126   7.606  3.1717  0.0750 -2.5289
   78CHL1  H12B 8211   1.032   2.105   7.570  0.1421 -0.0876  0.0429
   78CHL1   C11 8212   1.167   2.136   7.393 -0.8031 -0.1518 -0.4847
   78CHL1  H11A 8213   1.272   2.170   7.389 -1.0781  0.7467 -0.2268
   78CHL1  H11B 8214   1.170   2.026   7.376  0.2988 -0.3940  1.0188
   78CHL1    C9 8215   1.088   2.200   7.285 -0.9841 -0.2216 -0.1454
   78CHL1    H9 8216   0.999   2.133   7.283 -1.0899 -0.1233 -3.0349
   78CHL1   C10 8217   1.150   2.176   7.147 -0.5846  0.4859  0.0578
   78CHL1   C19 8218   1.293   2.233   7.147 -0.2298 -0.1924  0.5530
   78CHL1  H19A 8219   1.369   2.171   7.198  3.4617 -0.0783 -4.0714
   78CHL1  H19B 8220   1.327   2.245   7.042 -0.8420  2.8354  0.6218
   78CHL1  H19C 8221   1.302   2.339   7.180  4.9913 -0.3157  0.4033
   78CHL1    C1 8222   1.162   2.023   7.117 -0.2840  0.2888  0.3842
   78CHL1   H1A 8223   1.244   1.977   7.175  0.4176  1.8811  0.7091
   78CHL1   H1B 8224   1.062   1.977   7.131 -0.9522  1.6472  0.3345
   78CHL1    C2 8225   1.189   1.995   6.969  0.2378  0.2853  0.2828
   78CHL1   H2A 8226   1.182   1.884   6.964 -1.7346  0.4097 -0.7536
   78CHL1   H2B 8227   1.293   2.022   6.943  0.2590  0.1157  0.1885
   78CHL1   C20 8228   1.063   2.380   7.831  0.2490  0.5767 -0.1798
   78CHL1   H20 8229   1.144   2.457   7.833  0.9371 -0.1005 -1.0087
   78CHL1   C21 8230   1.126   2.247   7.865 -0.4157 -0.2855 -0.3491
   78CHL1  H21A 8231   1.146   2.253   7.974  1.3357 -1.3166 -0.5707
   78CHL1  H21B 8232   1.219   2.228   7.807 -0.4791  2.3896 -1.4865
   78CHL1  H21C 8233   1.054   2.166   7.841  0.6035 -1.2041 -0.3494
   78CHL1   C22 8234   0.958   2.428   7.931 -0.5012  0.2611 -0.1112
   78CHL1  H22A 8235   0.903   2.519   7.899 -4.2679 -2.1787 -1.3110
   78CHL1  H22B 8236   0.871   2.359   7.933  0.0518 -0.4961 -1.2052
   78CHL1   C23 8237   1.011   2.441   8.077 -0.2067 -0.1414  0.2038
   78CHL1  H23A 8238   1.010   2.341   8.124  1.2760 -0.6976 -0.8590
   78CHL1  H23B 8239   1.113   2.486   8.070 -0.4499  0.9107  2.4829
   78CHL1   C24 8240   0.917   2.529   8.155  0.0729 -0.1678 -0.0951
   78CHL1  H24A 8241   0.911   2.628   8.106 -2.2567 -0.5698 -0.7281
   78CHL1  H24B 8242   0.810   2.499   8.157 -0.5153  1.8156  2.1010
   78CHL1   C25 8243   0.977   2.564   8.287  1.0131 -0.5470 -0.5704
   78CHL1   H25 8244   1.086   2.585   8.281  0.8729  0.0070 -1.3342
   78CHL1   C26 8245   0.917   2.693   8.347  0.4433 -0.3557  0.0395
   78CHL1  H26A 8246   0.937   2.778   8.278 -0.3464 -1.3847 -1.5122
   78CHL1  H26B 8247   0.806   2.683   8.352  0.3291  0.5692 -0.3544
   78CHL1  H26C 8248   0.948   2.709   8.452 -0.8353 -1.6326  0.6453
   78CHL1   C27 8249   0.968   2.449   8.389  0.6407  0.1992 -0.2386
   78CHL1  H27A 8250   1.036   2.478   8.472 -1.1290 -1.6063  1.9602
   78CHL1  H27B 8251   0.871   2.443   8.442  0.8299  1.2395  0.2617
   78CHL1  H27C 8252   0.994   2.350   8.347  0.3826  0.6231 -1.4331
   79CHL1    C3 8253   0.370   3.250   6.955 -0.5580  0.1188  0.2124
   79CHL1    H3 8254   0.474   3.252   6.918 -0.7116  0.5312 -0.2057
   79CHL1    O3 8255   0.282   3.233   6.841 -0.0163  0.3253 -0.1392
   79CHL1   H3' 8256   0.195   3.234   6.881  0.1115  0.2642  0.1361
   79CHL1    C4 8257   0.349   3.132   7.040 -0.8062 -0.1010  1.0420
   79CHL1   H4A 8258   0.250   3.090   7.012  0.4283 -1.1994 -2.0431
   79CHL1   H4B 8259   0.417   3.052   7.005 -0.1365  0.4512  1.0490
   79CHL1    C5 8260   0.377   3.141   7.187 -0.5242  0.1756  0.7915
   79CHL1    C6 8261   0.454   3.051   7.255  0.2024  0.0703  0.2473
   79CHL1    H6 8262   0.498   2.965   7.203  0.1892  1.2422 -1.8038
   79CHL1    C7 8263   0.469   3.055   7.404 -0.4609 -0.1988  0.4207
   79CHL1   H7A 8264   0.444   2.954   7.445 -0.9289 -1.0691 -1.8473
   79CHL1   H7B 8265   0.574   3.086   7.423 -0.3981  1.1999 -1.8078
   79CHL1    C8 8266   0.376   3.158   7.479  0.1915 -0.1412 -0.1236
   79CHL1    H8 8267   0.272   3.119   7.487 -0.0961  0.8891  1.7444
   79CHL1   C14 8268   0.421   3.177   7.624  0.4306 -0.1573  0.9072
   79CHL1   H14 8269   0.525   3.217   7.626  1.2320 -1.9064 -1.4620
   79CHL1   C15 8270   0.425   3.049   7.709  0.1775  0.0070  0.4103
   79CHL1  H15A 8271   0.341   2.979   7.691 -1.4976  2.1945 -0.6647
   79CHL1  H15B 8272   0.519   2.996   7.684 -0.6493 -1.0649 -0.4976
   79CHL1   C16 8273   0.435   3.104   7.853  0.1996  0.1552  0.3726
   79CHL1  H16A 8274   0.357   3.048   7.908 -1.7013  1.2645 -1.0675
   79CHL1  H16B 8275   0.530   3.093   7.910  0.0982 -1.8542  0.2096
   79CHL1   C17 8276   0.404   3.254   7.838 -0.5291 -0.0290  0.3604
   79CHL1   H17 8277   0.500   3.305   7.817 -0.4655 -0.1819  0.2756
   79CHL1   C13 8278   0.337   3.275   7.694 -0.0887 -0.5400  0.1224
   79CHL1   C18 8279   0.186   3.237   7.711 -0.8045  0.3450  1.0853
   79CHL1  H18A 8280   0.126   3.229   7.618  1.5537 -2.6868 -0.3583
   79CHL1  H18B 8281   0.178   3.146   7.774 -0.7561 -0.0859  0.4813
   79CHL1  H18C 8282   0.139   3.319   7.769  0.4827  1.0799  1.1196
   79CHL1   C12 8283   0.354   3.406   7.623 -0.2184  0.6262  0.2205
   79CHL1  H12A 8284   0.280   3.479   7.662 -1.4414  0.5484 -1.8362
   79CHL1  H12B 8285   0.462   3.432   7.621  0.2068 -0.9853  0.7492
   79CHL1   C11 8286   0.311   3.397   7.475 -0.0869  0.5307 -0.6520
   79CHL1  H11A 8287   0.200   3.397   7.474 -0.1318 -0.6962  0.7349
   79CHL1  H11B 8288   0.351   3.494   7.438 -0.7700  1.4489  0.9505
   79CHL1    C9 8289   0.377   3.285   7.397 -0.3490 -0.2121 -0.0395
   79CHL1    H9 8290   0.484   3.308   7.379  0.6740 -1.0840  4.0615
   79CHL1   C10 8291   0.318   3.266   7.250  1.0017 -0.4504  0.1995
   79CHL1   C19 8292   0.168   3.248   7.247  0.7301  0.3667 -0.3024
   79CHL1  H19A 8293   0.119   3.243   7.148 -1.5156 -0.2336  0.7594
   79CHL1  H19B 8294   0.125   3.164   7.306  0.1825 -0.2600 -1.5557
   79CHL1  H19C 8295   0.118   3.341   7.280 -1.1436  0.0706 -2.1226
   79CHL1    C1 8296   0.369   3.391   7.161  0.2704 -0.2451 -0.7440
   79CHL1   H1A 8297   0.332   3.483   7.211  0.5481 -0.1768 -0.6614
   79CHL1   H1B 8298   0.477   3.399   7.182 -0.1180  2.3255  0.7480
   79CHL1    C2 8299   0.318   3.380   7.016  0.1581 -0.3231 -0.8886
   79CHL1   H2A 8300   0.345   3.467   6.953 -0.9885 -2.3394 -4.4449
   79CHL1   H2B 8301   0.208   3.377   7.002  0.5470 -1.4712 -4.9207
   79CHL1   C20 8302   0.349   3.321   7.962 -0.4128 -0.4922  0.7347
   79CHL1   H20 8303   0.249   3.278   7.983 -0.1881 -0.7587  1.2818
   79CHL1   C21 8304   0.336   3.482   7.933  0.1382  0.5516 -0.7694
   79CHL1  H21A 8305   0.254   3.494   7.859 -0.5525 -0.4350 -0.1851
   79CHL1  H21B 8306   0.429   3.513   7.881  0.9891  1.4373  1.1888
   79CHL1  H21C 8307   0.324   3.539   8.028 -0.1127  1.5964 -1.4067
   79CHL1   C22 8308   0.446   3.304   8.079 -0.3239  0.3049  0.0936
   79CHL1  H22A 8309   0.469   3.195   8.085  0.4588  0.5213  1.4533
   79CHL1  H22B 8310   0.536   3.361   8.046 -0.5412  0.0122 -1.0620
   79CHL1   C23 8311   0.386   3.353   8.214  0.1372  0.2717  0.2123
   79CHL1  H23A 8312   0.371   3.463   8.216 -1.7145  0.0506  0.7541
   79CHL1  H23B 8313   0.281   3.317   8.208  0.7377 -1.4082 -0.5282
   79CHL1   C24 8314   0.482   3.308   8.319 -0.1954  0.1372  0.3314
   79CHL1  H24A 8315   0.469   3.198   8.318 -1.9460  0.2927  1.5104
   79CHL1  H24B 8316   0.588   3.324   8.288 -0.3398  0.3940 -0.0374
   79CHL1   C25 8317   0.450   3.370   8.456  0.2041  0.3206 -0.2715
   79CHL1   H25 8318   0.465   3.479   8.443 -0.0703  0.3631 -0.2285
   79CHL1   C26 8319   0.309   3.350   8.506  0.0361 -0.3194 -0.3094
   79CHL1  H26A 8320   0.288   3.411   8.596 -0.4246  0.3934 -0.8948
   79CHL1  H26B 8321   0.233   3.371   8.427 -1.6297  0.2759  1.3800
   79CHL1  H26C 8322   0.300   3.243   8.536  4.4255 -0.7365  0.1420
   79CHL1   C27 8323   0.551   3.330   8.559 -0.0874  0.7286  0.1031
   79CHL1  H27A 8324   0.546   3.220   8.578 -1.3034  0.5385 -1.0640
   79CHL1  H27B 8325   0.653   3.354   8.523  0.2888 -0.7766  0.0775
   79CHL1  H27C 8326   0.542   3.382   8.656 -0.8966  0.0217  0.4229
   80CHL1    C3 8327   1.356   0.352   7.024  1.0565 -0.1506  0.6324
   80CHL1    H3 8328   1.373   0.446   7.081  0.3446 -0.2203  0.9692
   80CHL1    O3 8329   1.308   0.377   6.894 -0.4973 -0.0305 -0.4493
   80CHL1   H3' 8330   1.384   0.409   6.844  0.6744 -0.8159  0.7385
   80CHL1    C4 8331   1.478   0.267   7.023 -0.1177 -0.1668  0.1075
   80CHL1   H4A 8332   1.468   0.175   6.962  2.8627 -1.3406  1.1875
   80CHL1   H4B 8333   1.557   0.329   6.976 -0.7150  1.0208  0.6421
   80CHL1    C5 8334   1.516   0.215   7.160 -0.6700  0.0290  0.5053
   80CHL1    C6 8335   1.639   0.239   7.217  1.0852  0.8828 -0.3056
   80CHL1    H6 8336   1.712   0.301   7.162  0.2869  0.1593 -2.2689
   80CHL1    C7 8337   1.672   0.192   7.353 -0.1749  0.6777 -0.6511
   80CHL1   H7A 8338   1.780   0.169   7.349 -0.5836 -1.8337  0.7269
   80CHL1   H7B 8339   1.667   0.285   7.415 -2.6519 -0.1533  0.5504
   80CHL1    C8 8340   1.584   0.074   7.410 -0.4627  0.6293  0.2579
   80CHL1    H8 8341   1.613  -0.013   7.346  2.4569  0.1331  2.0537
   80CHL1   C14 8342   1.616   0.037   7.557  0.2435 -0.8314  0.2248
   80CHL1   H14 8343   1.600   0.130   7.615 -1.3377 -1.4011  0.7426
   80CHL1   C15 8344   1.759   0.010   7.581 -0.3080 -0.1306  0.9600
   80CHL1  H15A 8345   1.785  -0.070   7.508  0.0083 -0.3431  1.2968
   80CHL1  H15B 8346   1.823   0.099   7.571 -1.2128  0.4929  0.6272
   80CHL1   C16 8347   1.763  -0.052   7.720  0.5440  0.4679 -0.5798
   80CHL1  H16A 8348   1.824  -0.144   7.719  1.4620  1.0533  0.1546
   80CHL1  H16B 8349   1.809   0.019   7.792  1.9716  0.2926 -1.2875
   80CHL1   C17 8350   1.615  -0.070   7.758  0.5055 -0.2496 -0.4585
   80CHL1   H17 8351   1.583   0.028   7.800 -0.1344 -1.2199  1.4089
   80CHL1   C13 8352   1.530  -0.062   7.625 -0.3613  0.6206 -0.5045
   80CHL1   C18 8353   1.534  -0.201   7.560  0.8778  0.2013  0.1295
   80CHL1  H18A 8354   1.496  -0.198   7.456 -2.4274 -0.5430  1.1875
   80CHL1  H18B 8355   1.636  -0.247   7.563  0.4619 -0.8687 -1.0573
   80CHL1  H18C 8356   1.472  -0.276   7.613  0.7468 -0.6222 -1.1437
   80CHL1   C12 8357   1.387   0.003   7.626 -0.5450 -0.8537 -0.2050
   80CHL1  H12A 8358   1.319  -0.057   7.691 -0.6147  0.9514  1.4670
   80CHL1  H12B 8359   1.399   0.102   7.675 -1.1462 -1.0611  0.3703
   80CHL1   C11 8360   1.339   0.035   7.482  0.0481 -0.2975  0.2192
   80CHL1  H11A 8361   1.321  -0.058   7.425  0.4021  1.4843 -3.0115
   80CHL1  H11B 8362   1.240   0.085   7.488  1.0685  2.1737 -1.7805
   80CHL1    C9 8363   1.439   0.118   7.391  0.3417  0.7611 -0.2461
   80CHL1    H9 8364   1.428   0.217   7.442 -0.9381 -0.3599  1.8016
   80CHL1   C10 8365   1.405   0.147   7.243  0.3975 -1.0066 -0.2688
   80CHL1   C19 8366   1.383   0.008   7.177  0.5506 -0.8364  0.6269
   80CHL1  H19A 8367   1.363   0.008   7.068  0.8716  2.0371  0.4817
   80CHL1  H19B 8368   1.471  -0.060   7.177  0.6897 -0.6909 -0.9250
   80CHL1  H19C 8369   1.290  -0.033   7.221 -0.0260 -1.0753 -0.7743
   80CHL1    C1 8370   1.276   0.236   7.239 -0.5173  0.5216  0.5646
   80CHL1   H1A 8371   1.197   0.164   7.270  0.2765 -1.3758 -1.5804
   80CHL1   H1B 8372   1.285   0.327   7.303  0.3307  1.1115 -0.3642
   80CHL1    C2 8373   1.238   0.285   7.097 -0.4207  0.0927  0.3861
   80CHL1   H2A 8374   1.153   0.354   7.107 -0.8617 -0.5277  1.0169
   80CHL1   H2B 8375   1.191   0.215   7.024  2.9296 -0.5441 -1.3874
   80CHL1   C20 8376   1.587  -0.170   7.882  0.1540  0.4212  0.3267
   80CHL1   H20 8377   1.600  -0.273   7.841 -0.2465  0.0240  1.1643
   80CHL1   C21 8378   1.439  -0.174   7.921  0.4898 -0.1604  0.6503
   80CHL1  H21A 8379   1.406  -0.081   7.972 -0.6025 -0.4972  0.5942
   80CHL1  H21B 8380   1.413  -0.264   7.982 -1.3384  0.9978  1.6670
   80CHL1  H21C 8381   1.377  -0.173   7.829 -0.5365  1.0463  1.3223
   80CHL1   C22 8382   1.672  -0.125   8.005  0.5652  1.1533  0.6062
   80CHL1  H22A 8383   1.775  -0.107   7.968  0.7443 -0.9694 -0.0420
   80CHL1  H22B 8384   1.619  -0.031   8.031 -2.6284  0.3447 -2.1957
   80CHL1   C23 8385   1.688  -0.219   8.116 -0.0524 -0.0190 -0.2514
   80CHL1  H23A 8386   1.589  -0.252   8.152  0.4023 -0.4185  0.6620
   80CHL1  H23B 8387   1.744  -0.311   8.089 -0.8978 -0.0369 -2.0538
   80CHL1   C24 8388   1.765  -0.161   8.237  0.0026 -0.1367  0.5622
   80CHL1  H24A 8389   1.865  -0.119   8.215 -1.7044  3.8267 -0.3483
   80CHL1  H24B 8390   1.707  -0.073   8.271  0.9491  0.8025 -0.2364
   80CHL1   C25 8391   1.751  -0.268   8.356 -0.4996  0.3886 -0.0096
   80CHL1   H25 8392   1.779  -0.372   8.328  2.4051  1.6017 -2.1130
   80CHL1   C26 8393   1.849  -0.219   8.464 -0.5432 -0.0982 -0.3349
   80CHL1  H26A 8394   1.815  -0.121   8.503  0.8286 -0.0078  0.7350
   80CHL1  H26B 8395   1.864  -0.289   8.549 -1.8304 -2.2166 -1.7696
   80CHL1  H26C 8396   1.949  -0.200   8.420  0.5202  2.7086  2.8339
   80CHL1   C27 8397   1.612  -0.279   8.425 -0.0663 -0.5084  0.0272
   80CHL1  H27A 8398   1.617  -0.195   8.499 -1.2049  1.8784 -2.4281
   80CHL1  H27B 8399   1.524  -0.245   8.367  1.2260  1.6028 -0.8475
   80CHL1  H27C 8400   1.601  -0.374   8.481  0.4427 -1.2343 -1.0776
   81CHL1    C3 8401   0.712   0.638   6.845  0.6254 -0.4152  0.4031
   81CHL1    H3 8402   0.709   0.749   6.835 -2.6191 -0.4523 -0.0914
   81CHL1    O3 8403   0.666   0.605   6.718 -0.1128 -0.4607 -0.1365
   81CHL1   H3' 8404   0.718   0.650   6.652  2.7359 -1.9253  0.9017
   81CHL1    C4 8405   0.856   0.594   6.858 -0.2753  0.8015  0.6580
   81CHL1   H4A 8406   0.863   0.485   6.837 -3.0367  0.5480  0.7710
   81CHL1   H4B 8407   0.912   0.653   6.782 -0.5315  0.0962 -0.1028
   81CHL1    C5 8408   0.907   0.621   6.996 -0.2890  0.2270  0.1917
   81CHL1    C6 8409   1.018   0.694   7.009  0.4132 -0.3951  0.5765
   81CHL1    H6 8410   1.063   0.744   6.922 -0.2830  0.1027  0.4918
   81CHL1    C7 8411   1.083   0.721   7.137 -0.4861 -0.4037  0.4153
   81CHL1   H7A 8412   1.187   0.683   7.136 -0.7033 -1.0127  0.3524
   81CHL1   H7B 8413   1.097   0.829   7.160  3.7211 -0.8869  0.9090
   81CHL1    C8 8414   1.016   0.649   7.254  0.7808  0.3026  0.0246
   81CHL1    H8 8415   1.059   0.547   7.252 -0.5300 -0.2758  0.6669
   81CHL1   C14 8416   1.072   0.700   7.386 -0.8753 -0.3047 -0.2193
   81CHL1   H14 8417   1.040   0.805   7.394 -0.6541 -0.2289 -0.3100
   81CHL1   C15 8418   1.224   0.705   7.413  0.1004  0.0090 -0.0497
   81CHL1  H15A 8419   1.271   0.609   7.383  0.2306  0.8781 -2.9178
   81CHL1  H15B 8420   1.262   0.797   7.364 -2.1001  0.1126 -1.7206
   81CHL1   C16 8421   1.226   0.722   7.566  0.3439 -0.0181 -0.6044
   81CHL1  H16A 8422   1.299   0.653   7.614  0.5016 -0.1574 -1.0424
   81CHL1  H16B 8423   1.253   0.826   7.592 -2.8392  0.8743 -0.4700
   81CHL1   C17 8424   1.085   0.703   7.623  0.3020  0.4966 -0.0572
   81CHL1   H17 8425   1.027   0.797   7.619 -0.2322  0.1415 -0.9640
   81CHL1   C13 8426   1.009   0.624   7.507 -0.2083  0.7815 -0.0599
   81CHL1   C18 8427   1.057   0.473   7.515  0.7584 -0.6246  0.1092
   81CHL1  H18A 8428   0.977   0.426   7.576 -0.5346  2.3230  0.8696
   81CHL1  H18B 8429   1.055   0.420   7.417 -0.0730 -0.8998  0.2705
   81CHL1  H18C 8430   1.152   0.457   7.570 -0.5035 -0.3281  2.5274
   81CHL1   C12 8431   0.856   0.634   7.490 -0.1442  0.0565 -0.1754
   81CHL1  H12A 8432   0.808   0.584   7.577  1.1590  2.5005  2.0923
   81CHL1  H12B 8433   0.819   0.739   7.487 -4.1708 -1.1863 -0.7236
   81CHL1   C11 8434   0.801   0.574   7.365 -0.3880  0.2694  0.2622
   81CHL1  H11A 8435   0.818   0.466   7.382 -0.5953  0.5188  2.2115
   81CHL1  H11B 8436   0.691   0.587   7.357 -0.4339  0.2154  0.7905
   81CHL1    C9 8437   0.857   0.637   7.242 -0.6053  0.8188  0.3004
   81CHL1    H9 8438   0.824   0.742   7.226 -4.0440 -0.0078  0.9742
   81CHL1   C10 8439   0.821   0.565   7.111 -0.3060 -0.0797 -0.5598
   81CHL1   C19 8440   0.834   0.410   7.123  0.4068 -0.8804 -0.5600
   81CHL1  H19A 8441   0.789   0.361   7.034 -1.2483 -0.1022 -0.2012
   81CHL1  H19B 8442   0.936   0.375   7.146  0.0327 -0.8410  1.3480
   81CHL1  H19C 8443   0.765   0.373   7.202 -0.9369  1.5733 -0.4824
   81CHL1    C1 8444   0.676   0.605   7.081  0.0437  0.0874  0.0953
   81CHL1   H1A 8445   0.609   0.570   7.163  1.2087  0.6075  1.3165
   81CHL1   H1B 8446   0.666   0.714   7.100  1.3581  0.0280  1.3447
   81CHL1    C2 8447   0.617   0.582   6.947 -0.0041  0.1817 -0.0837
   81CHL1   H2A 8448   0.519   0.636   6.948  1.4991  3.1133  1.1012
   81CHL1   H2B 8449   0.596   0.476   6.919 -4.5041  0.8520 -0.0944
   81CHL1   C20 8450   1.076   0.651   7.773 -0.5266 -0.6267 -0.0936
   81CHL1   H20 8451   1.136   0.559   7.785 -0.2855 -0.3009  1.3229
   81CHL1   C21 8452   0.935   0.594   7.810 -0.0970 -0.1685 -0.6669
   81CHL1  H21A 8453   0.865   0.680   7.810  0.4458  0.3199  1.3569
   81CHL1  H21B 8454   0.953   0.560   7.914  1.1177 -2.0185 -1.4358
   81CHL1  H21C 8455   0.922   0.506   7.743 -1.9937 -0.7122  0.3447
   81CHL1   C22 8456   1.108   0.762   7.876  0.0688 -0.4717 -0.2048
   81CHL1  H22A 8457   1.205   0.815   7.867 -0.3460  0.5629  1.0664
   81CHL1  H22B 8458   1.029   0.839   7.867  0.4722  0.1260  1.0965
   81CHL1   C23 8459   1.130   0.710   8.017  0.2865 -0.5287 -0.3388
   81CHL1  H23A 8460   1.045   0.671   8.076  0.9418 -2.8785 -0.8581
   81CHL1  H23B 8461   1.199   0.623   8.015 -0.4443 -1.1016 -0.9596
   81CHL1   C24 8462   1.186   0.827   8.115 -0.4698  0.3654  0.7944
   81CHL1  H24A 8463   1.284   0.861   8.077  0.5495 -2.5999  0.5275
   81CHL1  H24B 8464   1.114   0.911   8.125 -1.1791 -0.1791  0.3422
   81CHL1   C25 8465   1.201   0.785   8.256  0.1300  0.3076 -0.1281
   81CHL1   H25 8466   1.096   0.751   8.274  0.0354 -1.0328 -2.7778
   81CHL1   C26 8467   1.309   0.679   8.281 -0.0396  0.2091  0.2897
   81CHL1  H26A 8468   1.284   0.581   8.234  1.7518  0.4853 -1.3720
   81CHL1  H26B 8469   1.404   0.721   8.242 -1.5422  2.2897 -1.3787
   81CHL1  H26C 8470   1.306   0.658   8.390 -1.8986  0.8346  0.3861
   81CHL1   C27 8471   1.232   0.912   8.352 -0.0538  0.6988  0.3208
   81CHL1  H27A 8472   1.332   0.950   8.321 -0.1651 -0.6331 -1.8096
   81CHL1  H27B 8473   1.158   0.990   8.323 -0.0022  0.8902  0.6922
   81CHL1  H27C 8474   1.220   0.892   8.461  0.6234  2.3586  0.7291
   82CHL1    C3 8475   3.430   1.741   7.166  0.0281  0.1555  0.1154
   82CHL1    H3 8476   3.540   1.738   7.184 -0.2166 -1.0657  1.5947
   82CHL1    O3 8477   3.403   1.754   7.027  0.2162  0.1756  0.4971
   82CHL1   H3' 8478   3.313   1.787   7.020  0.3369  0.4198  0.0812
   82CHL1    C4 8479   3.364   1.610   7.219 -0.3558 -0.3514  0.1652
   82CHL1   H4A 8480   3.254   1.609   7.205 -0.2466  0.6122 -0.8894
   82CHL1   H4B 8481   3.398   1.521   7.162 -1.5735  0.1854 -1.4553
   82CHL1    C5 8482   3.389   1.589   7.361  0.2377  0.2518 -0.1636
   82CHL1    C6 8483   3.452   1.482   7.417  0.6373 -0.2529 -0.7901
   82CHL1    H6 8484   3.490   1.399   7.355  1.4967 -0.3676 -0.1272
   82CHL1    C7 8485   3.482   1.480   7.564 -0.3795  0.6867  0.5862
   82CHL1   H7A 8486   3.483   1.375   7.602  2.1887  1.0852  1.8254
   82CHL1   H7B 8487   3.586   1.512   7.587  0.1305 -1.7085  1.9468
   82CHL1    C8 8488   3.387   1.564   7.655 -0.4645 -0.1851 -0.3211
   82CHL1    H8 8489   3.282   1.527   7.654  0.3600 -2.8191  1.0177
   82CHL1   C14 8490   3.440   1.551   7.793  0.1163  0.4558  0.0414
   82CHL1   H14 8491   3.547   1.583   7.796  0.7365 -1.3474 -1.2346
   82CHL1   C15 8492   3.437   1.415   7.858  0.0096  0.0159  0.1263
   82CHL1  H15A 8493   3.349   1.353   7.828 -0.2644  0.2896  0.3502
   82CHL1  H15B 8494   3.525   1.352   7.836 -0.2765  0.1059 -1.4106
   82CHL1   C16 8495   3.449   1.439   8.007 -0.3519  0.2368  0.1646
   82CHL1  H16A 8496   3.371   1.387   8.067 -2.0270  1.7204 -0.6217
   82CHL1  H16B 8497   3.548   1.398   8.034 -1.1476 -2.6946 -0.8557
   82CHL1   C17 8498   3.439   1.593   8.021  0.5671 -1.1175  0.3025
   82CHL1   H17 8499   3.544   1.630   8.021 -0.0978  0.9567  1.6119
   82CHL1   C13 8500   3.371   1.644   7.894 -0.0839 -0.2613  0.0019
   82CHL1   C18 8501   3.223   1.620   7.914  0.6294 -0.1037 -0.0546
   82CHL1  H18A 8502   3.184   1.695   7.986 -1.1512 -1.1598  0.1372
   82CHL1  H18B 8503   3.169   1.628   7.818 -0.4809  2.1310  0.6727
   82CHL1  H18C 8504   3.205   1.519   7.956  0.3271 -0.9840 -2.1585
   82CHL1   C12 8505   3.392   1.785   7.838 -0.0193 -0.2777  0.1234
   82CHL1  H12A 8506   3.356   1.867   7.904  0.2296 -0.3100  0.3003
   82CHL1  H12B 8507   3.501   1.802   7.827  0.8078 -1.9396  3.9864
   82CHL1   C11 8508   3.333   1.809   7.697  0.7594 -0.2299 -0.1195
   82CHL1  H11A 8509   3.223   1.816   7.700  0.8090  0.7102 -0.3089
   82CHL1  H11B 8510   3.365   1.912   7.672  0.3543 -0.0551  0.0828
   82CHL1    C9 8511   3.390   1.708   7.598  0.2697 -0.2460 -1.0711
   82CHL1    H9 8512   3.497   1.738   7.599  0.2611  0.1429  2.9490
   82CHL1   C10 8513   3.336   1.715   7.446 -0.3061 -0.2476 -0.0529
   82CHL1   C19 8514   3.182   1.709   7.459  0.0440 -0.0440 -0.0082
   82CHL1  H19A 8515   3.140   1.694   7.357 -0.3913  0.9569  0.0059
   82CHL1  H19B 8516   3.144   1.617   7.508 -0.2619 -0.7664 -1.5461
   82CHL1  H19C 8517   3.145   1.805   7.503  0.8427 -0.4054  1.5254
   82CHL1    C1 8518   3.384   1.848   7.385  0.1656 -0.7357  1.1761
   82CHL1   H1A 8519   3.315   1.929   7.417  0.7173  0.0787  0.3386
   82CHL1   H1B 8520   3.482   1.882   7.424  1.7672 -4.0134  0.3124
   82CHL1    C2 8521   3.370   1.862   7.230  0.1641  0.6031 -0.1471
   82CHL1   H2A 8522   3.413   1.954   7.185 -1.2223  1.6219  0.4993
   82CHL1   H2B 8523   3.260   1.864   7.212  0.3727 -0.7513 -1.6763
   82CHL1   C20 8524   3.390   1.647   8.157 -0.9839  0.1225  0.3811
   82CHL1   H20 8525   3.280   1.629   8.162 -1.1345  0.9861  0.3700
   82CHL1   C21 8526   3.391   1.803   8.169 -0.1786 -0.2491  0.5033
   82CHL1  H21A 8527   3.379   1.836   8.275 -0.3358  0.4562  0.2728
   82CHL1  H21B 8528   3.302   1.843   8.116 -0.1580 -0.6245  0.1809
   82CHL1  H21C 8529   3.482   1.846   8.123  0.0957 -0.7275  0.5895
   82CHL1   C22 8530   3.465   1.575   8.272 -0.6217 -0.6092 -0.4986
   82CHL1  H22A 8531   3.471   1.465   8.259  1.6809 -0.9058  2.1631
   82CHL1  H22B 8532   3.571   1.608   8.266 -1.2918  1.5904 -1.2947
   82CHL1   C23 8533   3.399   1.596   8.411 -0.1442 -0.0357  0.1115
   82CHL1  H23A 8534   3.415   1.704   8.433  0.8745 -0.2338  0.4167
   82CHL1  H23B 8535   3.293   1.565   8.411  0.1478 -1.0583  0.5442
   82CHL1   C24 8536   3.475   1.517   8.517  0.2769 -0.0554  0.0055
   82CHL1  H24A 8537   3.490   1.410   8.491  0.7803 -0.3303  1.3680
   82CHL1  H24B 8538   3.574   1.564   8.535 -0.1488  0.7431  0.3127
   82CHL1   C25 8539   3.405   1.516   8.657 -0.1993 -0.0763 -0.0164
   82CHL1   H25 8540   3.298   1.489   8.646 -0.8911  0.2986  4.0102
   82CHL1   C26 8541   3.479   1.427   8.752  0.2095 -0.1589 -0.2158
   82CHL1  H26A 8542   3.441   1.430   8.856  0.6485 -0.9383 -0.0216
   82CHL1  H26B 8543   3.470   1.320   8.722 -2.1079  0.1804 -0.9750
   82CHL1  H26C 8544   3.588   1.444   8.765 -0.2637  2.2399  1.1116
   82CHL1   C27 8545   3.418   1.657   8.715  0.6327  0.4490 -0.3047
   82CHL1  H27A 8546   3.372   1.735   8.650 -0.3669 -0.1553 -0.3430
   82CHL1  H27B 8547   3.359   1.674   8.808  0.3719  0.9192 -0.5527
   82CHL1  H27C 8548   3.525   1.682   8.731  0.8009 -0.0959 -0.5526
   83CHL1    C3 8549   6.814   5.960   7.179 -0.7013 -0.4045 -0.2409
   83CHL1    H3 8550   6.706   5.976   7.199 -0.9320 -1.0941 -0.8983
   83CHL1    O3 8551   6.833   5.938   7.047 -0.8287  0.0671 -0.5539
   83CHL1   H3' 8552   6.924   5.909   7.037  1.1370  4.6286  1.1991
   83CHL1    C4 8553   6.893   6.086   7.217 -0.0807 -0.5060 -0.4692
   83CHL1   H4A 8554   7.003   6.073   7.206 -0.1598 -2.2143  0.4480
   83CHL1   H4B 8555   6.863   6.170   7.151 -0.5290 -0.2806  0.0161
   83CHL1    C5 8556   6.884   6.112   7.367  0.1492  0.3359 -0.1736
   83CHL1    C6 8557   6.829   6.228   7.414 -0.1630  0.3924 -0.2305
   83CHL1    H6 8558   6.805   6.309   7.343 -1.0096 -1.0954 -1.7115
   83CHL1    C7 8559   6.806   6.258   7.564  1.0800  0.2668  0.3474
   83CHL1   H7A 8560   6.847   6.360   7.584 -0.4487  1.2381 -1.1851
   83CHL1   H7B 8561   6.698   6.269   7.591  0.9178  2.0579 -0.8151
   83CHL1    C8 8562   6.888   6.149   7.641  0.2680 -0.3421  0.0732
   83CHL1    H8 8563   6.992   6.181   7.618  0.5929 -0.9481  0.6607
   83CHL1   C14 8564   6.847   6.158   7.787  0.1907  0.4348  0.7071
   83CHL1   H14 8565   6.738   6.140   7.796  0.3251 -0.8764 -0.1327
   83CHL1   C15 8566   6.850   6.310   7.849  0.1738  0.1165  0.0279
   83CHL1  H15A 8567   6.951   6.355   7.838  0.1329  0.1649 -0.1639
   83CHL1  H15B 8568   6.774   6.375   7.801  0.2828  1.2304  1.3154
   83CHL1   C16 8569   6.835   6.279   8.001 -0.3380  0.0039  0.5703
   83CHL1  H16A 8570   6.907   6.340   8.059 -1.4082  2.2492 -0.3405
   83CHL1  H16B 8571   6.735   6.301   8.045 -1.0444 -0.7650 -0.5935
   83CHL1   C17 8572   6.849   6.123   8.018 -0.8259 -0.0186 -0.4638
   83CHL1   H17 8573   6.746   6.080   8.016  0.3447 -3.0746 -2.5282
   83CHL1   C13 8574   6.919   6.071   7.885  0.1995  0.4414 -0.0691
   83CHL1   C18 8575   7.072   6.099   7.874  0.9498  0.1337 -0.3696
   83CHL1  H18A 8576   7.128   6.034   7.945 -0.1699 -0.9788 -0.4604
   83CHL1  H18B 8577   7.113   6.065   7.776 -0.2311 -1.4166 -0.3773
   83CHL1  H18C 8578   7.087   6.205   7.903 -0.1915 -0.3542  2.2717
   83CHL1   C12 8579   6.888   5.925   7.849  0.0713  0.2800 -0.2205
   83CHL1  H12A 8580   6.955   5.858   7.907  0.2561 -0.0421 -0.7991
   83CHL1  H12B 8581   6.782   5.901   7.872 -0.2060  2.3504  0.8966
   83CHL1   C11 8582   6.913   5.891   7.697 -0.5502 -0.0847 -0.2133
   83CHL1  H11A 8583   7.023   5.879   7.688 -0.4591  1.2308 -1.2670
   83CHL1  H11B 8584   6.864   5.794   7.676 -0.2672 -0.4135  0.6025
   83CHL1    C9 8585   6.869   6.003   7.602  0.4549  0.8286  0.0140
   83CHL1    H9 8586   6.758   6.001   7.589  0.5824 -1.5661 -1.2173
   83CHL1   C10 8587   6.918   5.988   7.454 -0.8298  0.1563 -0.3223
   83CHL1   C19 8588   7.074   5.988   7.456 -0.5379 -0.0836  0.5693
   83CHL1  H19A 8589   7.112   5.899   7.512 -0.4459 -0.2509  0.2423
   83CHL1  H19B 8590   7.117   5.973   7.355 -0.5637  0.7246  0.4395
   83CHL1  H19C 8591   7.121   6.084   7.485 -1.9650  0.4230  1.3296
   83CHL1    C1 8592   6.855   5.857   7.404  0.0084 -0.3148  0.9180
   83CHL1   H1A 8593   6.905   5.772   7.455 -0.0143 -0.8634  0.0427
   83CHL1   H1B 8594   6.752   5.862   7.443 -0.0833 -1.0286  0.7750
   83CHL1    C2 8595   6.855   5.834   7.253 -0.0348 -0.3002 -0.7068
   83CHL1   H2A 8596   6.789   5.748   7.227  0.8522 -1.3549  0.3977
   83CHL1   H2B 8597   6.960   5.807   7.228 -0.3717 -0.6674 -1.7920
   83CHL1   C20 8598   6.904   6.076   8.145 -0.0426 -0.0007  0.1210
   83CHL1   H20 8599   6.918   5.966   8.132 -1.2119 -0.6184  3.2086
   83CHL1   C21 8600   6.791   6.080   8.248  0.1832  0.0529  0.1207
   83CHL1  H21A 8601   6.814   6.045   8.352 -3.4695 -1.5033  0.5589
   83CHL1  H21B 8602   6.717   6.003   8.217 -1.6817  2.2207 -1.1334
   83CHL1  H21C 8603   6.743   6.180   8.250  1.3375  0.6228  1.3191
   83CHL1   C22 8604   7.030   6.146   8.195  0.3715  0.0655 -0.2489
   83CHL1  H22A 8605   7.073   6.218   8.123  1.7568  0.3843  0.8431
   83CHL1  H22B 8606   6.994   6.204   8.283 -1.9618 -0.2922 -0.8934
   83CHL1   C23 8607   7.142   6.054   8.246  0.3500 -0.2311  0.1851
   83CHL1  H23A 8608   7.160   5.990   8.157 -1.3041 -0.1911 -0.2205
   83CHL1  H23B 8609   7.233   6.115   8.259  0.8400 -1.2294  1.6554
   83CHL1   C24 8610   7.108   5.965   8.364  0.1645 -0.4373  0.0166
   83CHL1  H24A 8611   7.083   6.028   8.452 -1.8792 -1.0546 -0.0816
   83CHL1  H24B 8612   7.009   5.920   8.343  0.4328 -0.5463 -1.0581
   83CHL1   C25 8613   7.213   5.856   8.400  0.3790  0.5009 -0.3494
   83CHL1   H25 8614   7.158   5.810   8.484 -0.9486  0.6352 -1.1123
   83CHL1   C26 8615   7.223   5.754   8.283 -0.2847 -0.2011 -0.0826
   83CHL1  H26A 8616   7.279   5.790   8.194 -0.2401  1.1549  0.4690
   83CHL1  H26B 8617   7.288   5.672   8.318  0.7005  0.5985  0.0033
   83CHL1  H26C 8618   7.123   5.722   8.246 -0.5309  0.0507  0.3491
   83CHL1   C27 8619   7.340   5.910   8.451 -0.6599  0.1136  0.0942
   83CHL1  H27A 8620   7.326   5.940   8.557  1.4453 -0.4565  0.5867
   83CHL1  H27B 8621   7.404   5.819   8.452  1.1302  1.3398  0.6150
   83CHL1  H27C 8622   7.380   5.991   8.386 -2.8497  0.6592 -0.6770
   84CHL1    C3 8623   2.987   3.523   6.658 -0.0639 -0.2601 -0.2344
   84CHL1    H3 8624   3.089   3.489   6.634  0.3414  0.3502  0.5573
   84CHL1    O3 8625   2.929   3.567   6.533  0.5202 -0.6389 -0.1976
   84CHL1   H3' 8626   2.972   3.650   6.509 -1.3071  0.1028 -1.0352
   84CHL1    C4 8627   2.900   3.409   6.712 -0.2434  0.0322 -0.1395
   84CHL1   H4A 8628   2.793   3.432   6.696 -0.4790 -1.6802 -1.3646
   84CHL1   H4B 8629   2.908   3.320   6.646 -1.1703  0.1782 -0.4602
   84CHL1    C5 8630   2.920   3.364   6.857 -0.0207 -0.0032 -0.0278
   84CHL1    C6 8631   2.939   3.233   6.891  0.7036  0.3224  0.0074
   84CHL1    H6 8632   2.930   3.157   6.812 -0.5805  0.1760  0.2798
   84CHL1    C7 8633   2.957   3.183   7.027  0.5060  0.0385  0.5279
   84CHL1   H7A 8634   2.882   3.101   7.035 -0.3880  0.8316  0.5208
   84CHL1   H7B 8635   3.061   3.150   7.042 -0.0147 -0.7752  2.6259
   84CHL1    C8 8636   2.933   3.294   7.134 -0.0326 -0.2876  0.1287
   84CHL1    H8 8637   2.822   3.291   7.134 -0.0554  0.3492 -0.0370
   84CHL1   C14 8638   2.987   3.245   7.266 -0.1771  0.7453 -0.2300
   84CHL1   H14 8639   3.095   3.233   7.244 -0.3471 -0.4233 -0.4673
   84CHL1   C15 8640   2.944   3.105   7.321  0.2998  0.2195  0.1363
   84CHL1  H15A 8641   2.844   3.071   7.285  0.6143  0.8988 -1.4650
   84CHL1  H15B 8642   3.019   3.036   7.276 -0.6409  1.3587 -3.6119
   84CHL1   C16 8643   2.944   3.120   7.482  0.6401 -0.1988  0.3926
   84CHL1  H16A 8644   2.840   3.134   7.519  0.4174  0.9077 -0.5694
   84CHL1  H16B 8645   2.987   3.032   7.533  0.5813 -2.0165 -2.4422
   84CHL1   C17 8646   3.013   3.261   7.502 -0.3106 -0.3013  0.7957
   84CHL1   H17 8647   3.122   3.242   7.492 -0.0124  1.0490  1.2734
   84CHL1   C13 8648   2.971   3.349   7.377  0.7033 -0.0223  0.4205
   84CHL1   C18 8649   2.828   3.390   7.401  0.1781  0.7972 -0.2652
   84CHL1  H18A 8650   2.761   3.326   7.461  0.4637  0.8277  0.0953
   84CHL1  H18B 8651   2.824   3.476   7.471 -0.5302  0.6460 -0.1174
   84CHL1  H18C 8652   2.766   3.416   7.313 -0.7310 -1.2183 -0.2691
   84CHL1   C12 8653   3.045   3.475   7.334  0.3503  0.2477 -0.5650
   84CHL1  H12A 8654   3.045   3.559   7.406 -0.2462 -0.5522  0.3911
   84CHL1  H12B 8655   3.151   3.444   7.320  0.1523 -1.7957  1.8907
   84CHL1   C11 8656   2.991   3.535   7.198 -0.3102  0.8827  0.1025
   84CHL1  H11A 8657   2.886   3.568   7.216 -0.2899  0.0481  1.8874
   84CHL1  H11B 8658   3.058   3.620   7.173 -1.5179  2.0861  0.8108
   84CHL1    C9 8659   2.995   3.432   7.087  0.5091  0.1889 -0.3007
   84CHL1    H9 8660   3.100   3.400   7.078  0.8052  0.8992  0.4707
   84CHL1   C10 8661   2.940   3.482   6.954 -0.4325 -0.5102  0.5235
   84CHL1   C19 8662   2.798   3.536   6.975 -0.7525 -0.8348  0.4960
   84CHL1  H19A 8663   2.744   3.551   6.879 -0.8598 -0.6416  0.5856
   84CHL1  H19B 8664   2.740   3.468   7.040 -1.3383 -0.5209  0.3097
   84CHL1  H19C 8665   2.801   3.636   7.024 -1.8968  1.2562 -3.2914
   84CHL1    C1 8666   3.025   3.601   6.888  0.9674  0.3285 -0.4544
   84CHL1   H1A 8667   3.025   3.689   6.956  0.3804 -0.0276  0.0233
   84CHL1   H1B 8668   3.130   3.566   6.876  0.9133 -1.4273  2.8838
   84CHL1    C2 8669   2.984   3.647   6.752 -0.0093  0.6598  0.5395
   84CHL1   H2A 8670   3.067   3.717   6.730  0.3555  0.0804  0.0085
   84CHL1   H2B 8671   2.883   3.691   6.736 -0.2052 -0.7499 -3.3855
   84CHL1   C20 8672   2.976   3.316   7.636  0.4309  0.8205 -0.0932
   84CHL1   H20 8673   2.870   3.348   7.644  0.6329  1.6794 -0.7201
   84CHL1   C21 8674   3.076   3.425   7.668  0.1287 -0.2753 -0.5601
   84CHL1  H21A 8675   3.060   3.479   7.764  2.3919 -2.7373  1.3463
   84CHL1  H21B 8676   3.102   3.506   7.597  1.6692  0.7238  1.0701
   84CHL1  H21C 8677   3.173   3.372   7.677  0.7250  1.1225  4.5470
   84CHL1   C22 8678   2.980   3.205   7.746  0.2721  0.7880 -0.4863
   84CHL1  H22A 8679   2.895   3.135   7.728  1.5780 -0.6926 -1.0577
   84CHL1  H22B 8680   3.075   3.149   7.735  0.6042  1.4234 -0.9306
   84CHL1   C23 8681   2.945   3.255   7.893 -0.2551  0.2776  0.4848
   84CHL1  H23A 8682   3.018   3.335   7.920  0.9305 -0.0308 -1.5535
   84CHL1  H23B 8683   2.843   3.299   7.894 -0.4516 -0.1352 -0.2938
   84CHL1   C24 8684   2.957   3.154   8.006 -0.4861  0.2434  0.0995
   84CHL1  H24A 8685   2.945   3.213   8.100 -2.1486  1.4130 -0.7939
   84CHL1  H24B 8686   2.864   3.092   8.002 -0.0955 -0.3191 -0.4720
   84CHL1   C25 8687   3.080   3.065   8.008 -0.0180  0.1870  0.1526
   84CHL1   H25 8688   3.071   2.988   7.929 -0.4927  2.7673 -2.4958
   84CHL1   C26 8689   3.206   3.149   7.975 -0.2582  0.0285  0.4514
   84CHL1  H26A 8690   3.214   3.231   8.050 -1.4360  0.1205  0.4970
   84CHL1  H26B 8691   3.291   3.077   7.974  1.3181  1.8043 -0.2936
   84CHL1  H26C 8692   3.211   3.195   7.874  2.0692  1.3791  1.1072
   84CHL1   C27 8693   3.105   3.001   8.150  0.4660  0.1894 -0.1403
   84CHL1  H27A 8694   3.195   2.939   8.129 -0.2270 -0.9284  0.1203
   84CHL1  H27B 8695   3.121   3.074   8.232  1.1262 -0.4960  0.3537
   84CHL1  H27C 8696   3.016   2.942   8.180 -1.1332  2.6613  0.3006
   85CHL1    C3 8697   0.551   1.804   6.813 -0.2820  0.7547  0.0699
   85CHL1    H3 8698   0.525   1.705   6.858 -1.2962  0.5229 -0.9762
   85CHL1    O3 8699   0.553   1.791   6.673 -0.0426 -0.0254  0.4382
   85CHL1   H3' 8700   0.613   1.859   6.642 -3.0283  2.5057 -0.2313
   85CHL1    C4 8701   0.454   1.909   6.864  0.6370 -0.2159 -0.3294
   85CHL1   H4A 8702   0.478   2.004   6.812 -2.0552  0.6244 -0.1507
   85CHL1   H4B 8703   0.349   1.885   6.836  0.6237  0.2777 -0.7092
   85CHL1    C5 8704   0.458   1.923   7.014 -0.1528  0.0084 -0.1712
   85CHL1    C6 8705   0.348   1.918   7.089 -0.2072  0.1671 -0.4471
   85CHL1    H6 8706   0.250   1.889   7.048  0.1507 -1.3982 -0.2424
   85CHL1    C7 8707   0.340   1.948   7.234 -0.0558 -0.0972  0.2060
   85CHL1   H7A 8708   0.259   2.024   7.243 -1.9891 -1.4177 -3.5701
   85CHL1   H7B 8709   0.293   1.864   7.289 -0.6796 -0.4257 -0.7965
   85CHL1    C8 8710   0.476   1.986   7.304 -0.2772 -0.0664  0.5474
   85CHL1    H8 8711   0.480   2.097   7.301  2.1805 -0.0850 -1.6857
   85CHL1   C14 8712   0.490   1.952   7.453  0.1695  0.7990  0.4646
   85CHL1   H14 8713   0.512   1.843   7.461 -0.8973  0.6446  1.5886
   85CHL1   C15 8714   0.369   1.989   7.542  0.2701 -0.2061 -0.5206
   85CHL1  H15A 8715   0.325   2.082   7.500  2.3854  1.2333  0.2505
   85CHL1  H15B 8716   0.294   1.908   7.534 -0.1263 -0.4749  3.5470
   85CHL1   C16 8717   0.432   1.978   7.685 -0.3928 -0.3181  0.2349
   85CHL1  H16A 8718   0.396   2.076   7.722 -0.3065 -0.2781  0.2133
   85CHL1  H16B 8719   0.390   1.892   7.741 -1.8661 -0.4593 -1.0382
   85CHL1   C17 8720   0.585   1.968   7.671  0.6980 -0.5205  0.1063
   85CHL1   H17 8721   0.603   1.860   7.686 -0.2333 -0.7926 -0.6111
   85CHL1   C13 8722   0.606   2.022   7.523 -0.2603  0.2173  0.5674
   85CHL1   C18 8723   0.600   2.180   7.528  0.1801 -0.4576  0.2659
   85CHL1  H18A 8724   0.606   2.221   7.425  0.5019 -3.6423 -1.0914
   85CHL1  H18B 8725   0.501   2.214   7.566 -0.1671  1.3904 -2.0902
   85CHL1  H18C 8726   0.688   2.224   7.580  1.4720 -1.3416 -1.0824
   85CHL1   C12 8727   0.738   1.972   7.450  0.2211  0.7404  0.0015
   85CHL1  H12A 8728   0.829   2.022   7.489 -0.7690  1.9955  0.8223
   85CHL1  H12B 8729   0.741   1.864   7.475 -0.6677  1.3277  3.1365
   85CHL1   C11 8730   0.726   2.008   7.302 -0.0371 -0.4110  0.2254
   85CHL1  H11A 8731   0.733   2.116   7.278 -0.4316 -0.8060 -1.8139
   85CHL1  H11B 8732   0.814   1.966   7.248  1.3759  1.6797  0.7747
   85CHL1    C9 8733   0.600   1.939   7.230  0.8500  0.0444  0.1713
   85CHL1    H9 8734   0.602   1.829   7.246 -1.7888 -0.0304  0.2996
   85CHL1   C10 8735   0.594   1.952   7.075 -0.2932 -0.9626  0.5116
   85CHL1   C19 8736   0.638   2.097   7.028 -0.5360 -0.3001  0.1953
   85CHL1  H19A 8737   0.570   2.177   7.064 -0.0119  0.0210  0.4918
   85CHL1  H19B 8738   0.744   2.122   7.050  0.1016 -0.2156 -2.5431
   85CHL1  H19C 8739   0.647   2.112   6.918  2.1592  1.8543  0.6076
   85CHL1    C1 8740   0.692   1.855   7.014  0.2153  0.0876  0.1874
   85CHL1   H1A 8741   0.795   1.885   7.043  0.0970  0.2157  0.4752
   85CHL1   H1B 8742   0.680   1.750   7.049 -0.9094  0.4670  0.9854
   85CHL1    C2 8743   0.685   1.843   6.865 -0.0152  0.9255  0.1303
   85CHL1   H2A 8744   0.764   1.769   6.836 -0.4472  0.7201 -0.5555
   85CHL1   H2B 8745   0.712   1.940   6.818  0.0467  1.5312  1.3779
   85CHL1   C20 8746   0.653   2.041   7.795 -0.4243  0.0569  0.2667
   85CHL1   H20 8747   0.629   2.150   7.793 -0.6744 -0.0080 -0.3740
   85CHL1   C21 8748   0.802   2.023   7.783  0.3675  0.0805 -0.2654
   85CHL1  H21A 8749   0.831   1.916   7.779 -2.0230 -0.6627  0.4052
   85CHL1  H21B 8750   0.859   2.066   7.868 -2.4208  0.7124  1.4000
   85CHL1  H21C 8751   0.840   2.088   7.702  2.6363 -1.3004 -0.4015
   85CHL1   C22 8752   0.610   1.981   7.928  0.0556 -0.7057 -0.0987
   85CHL1  H22A 8753   0.499   1.977   7.928 -0.1653  2.6158  0.5094
   85CHL1  H22B 8754   0.647   1.877   7.937  1.7248 -0.1397 -0.0227
   85CHL1   C23 8755   0.653   2.056   8.055 -0.2365 -0.0965  0.2573
   85CHL1  H23A 8756   0.764   2.066   8.045  0.0744 -2.5967  0.5618
   85CHL1  H23B 8757   0.601   2.153   8.069  0.2115  0.3213 -0.8776
   85CHL1   C24 8758   0.627   1.984   8.191 -0.8645  0.1326  0.6900
   85CHL1  H24A 8759   0.518   1.963   8.191 -0.6294 -1.1702  0.7083
   85CHL1  H24B 8760   0.681   1.886   8.189 -1.0111  0.0442  1.0078
   85CHL1   C25 8761   0.682   2.062   8.317  0.3096 -0.6576  0.5654
   85CHL1   H25 8762   0.633   2.162   8.325 -1.9693 -1.7728  1.6349
   85CHL1   C26 8763   0.635   1.995   8.442  0.1903  0.4890 -0.5032
   85CHL1  H26A 8764   0.526   2.014   8.460 -0.1657 -1.9714  0.3326
   85CHL1  H26B 8765   0.652   1.885   8.448 -0.4096  0.4480  1.5297
   85CHL1  H26C 8766   0.670   2.048   8.533 -2.2108  0.0097  0.8065
   85CHL1   C27 8767   0.837   2.080   8.313 -0.7462 -0.4063 -0.3709
   85CHL1  H27A 8768   0.884   2.101   8.411  0.0931  1.4879 -1.1272
   85CHL1  H27B 8769   0.889   1.993   8.267  0.1878  0.5289 -1.1328
   85CHL1  H27C 8770   0.854   2.169   8.248  2.4309  0.1158  1.0051
   86CHL1    C3 8771   2.114   1.618   6.888  0.4601  0.3082 -0.7191
   86CHL1    H3 8772   2.208   1.560   6.901  1.7730  2.1979 -1.3157
   86CHL1    O3 8773   2.075   1.614   6.752 -0.5194  0.2604  0.6120
   86CHL1   H3' 8774   1.984   1.643   6.758 -0.3764  1.1943 -1.1145
   86CHL1    C4 8775   1.998   1.563   6.976  0.0701 -0.6171  0.6559
   86CHL1   H4A 8776   1.908   1.622   6.948 -0.6759 -0.8909  2.3759
   86CHL1   H4B 8777   1.970   1.461   6.944  0.8037 -0.4245 -0.6792
   86CHL1    C5 8778   2.026   1.580   7.128 -0.3208  0.7292  0.3216
   86CHL1    C6 8779   2.030   1.475   7.210 -0.1785 -0.1480  0.3973
   86CHL1    H6 8780   2.013   1.374   7.170 -1.9984  0.8397 -1.5216
   86CHL1    C7 8781   2.050   1.491   7.359 -0.2283  0.1402 -0.4796
   86CHL1   H7A 8782   1.977   1.430   7.417 -1.6314  0.8838 -1.4204
   86CHL1   H7B 8783   2.154   1.457   7.377  0.2569  0.9369 -1.7008
   86CHL1    C8 8784   2.032   1.641   7.406 -1.4649 -0.4304  0.3679
   86CHL1    H8 8785   1.921   1.642   7.400 -1.4265 -1.3178 -0.7897
   86CHL1   C14 8786   2.094   1.652   7.544  0.9138  0.1571 -0.9280
   86CHL1   H14 8787   2.202   1.631   7.525  1.5356  2.0492  0.1525
   86CHL1   C15 8788   2.043   1.550   7.651  0.0275  0.2082 -0.5117
   86CHL1  H15A 8789   1.933   1.561   7.663  0.1625  0.2793  0.8477
   86CHL1  H15B 8790   2.073   1.444   7.633 -0.1678 -0.5701  2.9475
   86CHL1   C16 8791   2.106   1.606   7.785  0.1830 -0.2622 -0.0236
   86CHL1  H16A 8792   2.028   1.598   7.864  0.2781  1.3334  0.2777
   86CHL1  H16B 8793   2.203   1.562   7.817  0.1172 -0.4500 -0.0820
   86CHL1   C17 8794   2.149   1.759   7.744  0.2343  0.0949 -0.4366
   86CHL1   H17 8795   2.259   1.751   7.735  0.0550 -2.3910 -1.2824
   86CHL1   C13 8796   2.093   1.785   7.609 -0.4202 -0.1269 -0.2937
   86CHL1   C18 8797   1.949   1.838   7.628  0.4415 -0.0469  0.3277
   86CHL1  H18A 8798   1.893   1.778   7.703 -1.1367  0.8992 -0.0690
   86CHL1  H18B 8799   1.944   1.947   7.646 -1.6615 -0.2330  1.2176
   86CHL1  H18C 8800   1.904   1.817   7.529  1.3646  1.7936 -0.5210
   86CHL1   C12 8801   2.172   1.880   7.522  0.1293 -0.0472 -0.4341
   86CHL1  H12A 8802   2.179   1.977   7.575  0.7532  0.4410 -1.3746
   86CHL1  H12B 8803   2.276   1.841   7.521  0.6517  0.8831  3.0908
   86CHL1   C11 8804   2.120   1.885   7.376 -0.1448  0.6163  0.2196
   86CHL1  H11A 8805   2.015   1.919   7.390 -0.5338 -0.2900 -0.3941
   86CHL1  H11B 8806   2.182   1.961   7.323  1.0777 -1.5872 -1.6494
   86CHL1    C9 8807   2.110   1.739   7.312  0.4562 -0.8701  0.2288
   86CHL1    H9 8808   2.216   1.709   7.310  0.2313 -1.7081 -2.8146
   86CHL1   C10 8809   2.056   1.726   7.170  0.5581 -0.3163 -0.4571
   86CHL1   C19 8810   1.922   1.805   7.152 -0.9114  0.2617  0.1684
   86CHL1  H19A 8811   1.856   1.802   7.242 -3.2850  1.2698 -1.4363
   86CHL1  H19B 8812   1.943   1.912   7.133 -0.6101  0.7946  3.0302
   86CHL1  H19C 8813   1.863   1.792   7.059 -1.1177  0.4863  0.2666
   86CHL1    C1 8814   2.167   1.773   7.076 -0.2210 -0.5078  0.1616
   86CHL1   H1A 8815   2.178   1.882   7.093 -0.0890 -0.7467  1.7977
   86CHL1   H1B 8816   2.262   1.718   7.096 -0.7343 -1.7479 -0.7041
   86CHL1    C2 8817   2.138   1.767   6.924 -0.2735 -0.1853  0.3398
   86CHL1   H2A 8818   2.216   1.821   6.865 -0.7111 -1.8728 -1.9026
   86CHL1   H2B 8819   2.048   1.826   6.896 -0.1949 -0.6677 -1.0021
   86CHL1   C20 8820   2.135   1.861   7.859  0.0758 -0.1889 -0.2923
   86CHL1   H20 8821   2.041   1.918   7.839  1.1629  0.3860 -4.5395
   86CHL1   C21 8822   2.245   1.969   7.855 -0.7274 -0.3490 -0.2569
   86CHL1  H21A 8823   2.344   1.920   7.861 -0.6921 -0.6209 -2.3530
   86CHL1  H21B 8824   2.233   2.048   7.932  0.5868 -0.4812  0.0990
   86CHL1  H21C 8825   2.244   2.011   7.752 -0.3154 -0.8097 -0.4490
   86CHL1   C22 8826   2.125   1.804   8.000 -0.3509  0.3794 -0.2416
   86CHL1  H22A 8827   2.030   1.747   8.006 -0.1362  0.0289 -0.1374
   86CHL1  H22B 8828   2.203   1.726   8.018  0.2945  0.6359 -1.7990
   86CHL1   C23 8829   2.125   1.902   8.120  1.0820 -0.4444  0.4477
   86CHL1  H23A 8830   2.226   1.948   8.126  0.9425 -0.2365  1.3543
   86CHL1  H23B 8831   2.051   1.984   8.105  3.2071  1.5159  0.0559
   86CHL1   C24 8832   2.114   1.821   8.248 -0.1750 -0.3496  0.3580
   86CHL1  H24A 8833   2.027   1.752   8.246 -1.0873  0.7810 -1.0177
   86CHL1  H24B 8834   2.206   1.762   8.264 -0.2753 -1.0473 -1.4692
   86CHL1   C25 8835   2.083   1.914   8.368 -0.7465  0.0927 -0.1205
   86CHL1   H25 8836   1.993   1.971   8.340  0.7058  1.7631 -1.6626
   86CHL1   C26 8837   2.055   1.837   8.497 -1.2037 -0.4896  0.4354
   86CHL1  H26A 8838   2.146   1.787   8.536  0.1386  3.7736  3.5000
   86CHL1  H26B 8839   2.020   1.905   8.578 -1.4513 -0.3722  0.2322
   86CHL1  H26C 8840   1.979   1.756   8.486 -2.7619  0.9279  0.3758
   86CHL1   C27 8841   2.197   2.004   8.401  0.2546  0.0121  0.5930
   86CHL1  H27A 8842   2.214   2.076   8.318  1.7585 -0.4859  0.4282
   86CHL1  H27B 8843   2.187   2.058   8.498  0.2570 -0.0959  0.6542
   86CHL1  H27C 8844   2.291   1.944   8.400  1.2563  1.4128 -2.5858
   87CHL1    C3 8845   4.065   0.159   6.811  0.3532  0.3278  0.2397
   87CHL1    H3 8846   4.114   0.061   6.795 -2.5628 -1.0562 -0.9802
   87CHL1    O3 8847   4.058   0.244   6.700 -0.0913  0.1451  0.3561
   87CHL1   H3' 8848   4.052   0.332   6.736 -3.0001  0.0348  0.3637
   87CHL1    C4 8849   3.920   0.151   6.860  0.0303 -0.6977  0.1001
   87CHL1   H4A 8850   3.883   0.256   6.864  1.7716 -0.0706  0.6706
   87CHL1   H4B 8851   3.858   0.105   6.780 -1.6129 -0.2732  1.0843
   87CHL1    C5 8852   3.908   0.079   6.996 -0.2333  0.1984 -0.0602
   87CHL1    C6 8853   3.831  -0.035   7.020  0.7731 -0.4017  0.3996
   87CHL1    H6 8854   3.771  -0.077   6.939  0.6338 -0.0708  0.3312
   87CHL1    C7 8855   3.807  -0.097   7.158 -0.1484 -0.4090 -0.4154
   87CHL1   H7A 8856   3.701  -0.112   7.186  0.5475 -1.4502  2.0310
   87CHL1   H7B 8857   3.850  -0.200   7.151  0.2296 -0.3468  0.7409
   87CHL1    C8 8858   3.871  -0.004   7.273 -0.2160  0.5969 -0.1480
   87CHL1    H8 8859   3.794   0.075   7.282  1.5841  2.4245 -0.0346
   87CHL1   C14 8860   3.878  -0.093   7.396  0.3182 -0.3193  0.4940
   87CHL1   H14 8861   3.949  -0.174   7.372  1.4588  1.3868 -2.4205
   87CHL1   C15 8862   3.751  -0.156   7.449 -0.0224 -0.3321  0.2530
   87CHL1  H15A 8863   3.677  -0.073   7.444  1.2586  0.8360 -0.0517
   87CHL1  H15B 8864   3.718  -0.239   7.383  1.8570  0.2899 -1.5941
   87CHL1   C16 8865   3.791  -0.195   7.595 -0.0432 -0.8573  0.2673
   87CHL1  H16A 8866   3.713  -0.176   7.673  1.3913 -3.3801  2.4865
   87CHL1  H16B 8867   3.791  -0.306   7.584 -0.0975 -0.7556 -0.8623
   87CHL1   C17 8868   3.931  -0.133   7.624  0.5836  0.0426  0.1316
   87CHL1   H17 8869   4.003  -0.212   7.596  1.7033  0.5337  1.4865
   87CHL1   C13 8870   3.942  -0.019   7.514 -0.2218  0.9471  0.3961
   87CHL1   C18 8871   3.871   0.102   7.568 -0.8060  0.0418  0.0244
   87CHL1  H18A 8872   3.787   0.090   7.640  0.5536  1.1029  1.8685
   87CHL1  H18B 8873   3.938   0.173   7.621 -2.2407  0.5383  1.2485
   87CHL1  H18C 8874   3.835   0.162   7.481  0.9876 -0.2540 -0.9764
   87CHL1   C12 8875   4.088   0.020   7.473 -0.2311  0.0145  0.7605
   87CHL1  H12A 8876   4.129   0.090   7.548 -0.2562  1.0298 -0.1461
   87CHL1  H12B 8877   4.161  -0.061   7.452  2.3165  2.8177 -2.3190
   87CHL1   C11 8878   4.087   0.110   7.350  0.6118  0.3008  0.1164
   87CHL1  H11A 8879   4.055   0.208   7.392  0.9669  0.5806 -0.2607
   87CHL1  H11B 8880   4.191   0.133   7.320  0.4112  0.7884 -0.2018
   87CHL1    C9 8881   4.004   0.054   7.227 -0.2841  0.0692 -0.4204
   87CHL1    H9 8882   4.061  -0.035   7.194 -0.6440  0.2189 -1.4890
   87CHL1   C10 8883   4.001   0.146   7.106  0.1256  0.4380  0.8234
   87CHL1   C19 8884   3.934   0.275   7.148 -0.9824 -0.0233  0.8544
   87CHL1  H19A 8885   3.996   0.330   7.222  0.6732 -1.1782  0.3903
   87CHL1  H19B 8886   3.915   0.339   7.060  2.5508 -1.5800 -1.2566
   87CHL1  H19C 8887   3.841   0.242   7.199 -0.6796 -1.6080  0.4545
   87CHL1    C1 8888   4.138   0.172   7.057 -0.7594 -0.1020 -0.0119
   87CHL1   H1A 8889   4.194   0.240   7.126  0.1253 -1.9975  1.2109
   87CHL1   H1B 8890   4.191   0.075   7.054 -2.4099 -1.1234  2.0019
   87CHL1    C2 8891   4.146   0.235   6.918  0.3518 -0.1041  1.0429
   87CHL1   H2A 8892   4.250   0.240   6.879 -0.7472  0.1096 -2.0876
   87CHL1   H2B 8893   4.101   0.336   6.915  2.0450  0.6456 -0.4782
   87CHL1   C20 8894   3.946  -0.103   7.777 -0.2542  0.7413 -0.5718
   87CHL1   H20 8895   3.858  -0.044   7.810 -1.6444 -0.3524 -2.1329
   87CHL1   C21 8896   4.081  -0.039   7.805  0.0136 -0.6439 -0.4173
   87CHL1  H21A 8897   4.082  -0.015   7.913 -0.6120 -0.7192 -0.3939
   87CHL1  H21B 8898   4.087   0.060   7.755 -0.6072 -0.0783  0.6266
   87CHL1  H21C 8899   4.167  -0.104   7.775  0.2091  0.4311 -2.3825
   87CHL1   C22 8900   3.931  -0.237   7.854 -0.2453  0.8171  0.0849
   87CHL1  H22A 8901   3.852  -0.304   7.813  0.5975 -0.4982  0.5563
   87CHL1  H22B 8902   4.027  -0.292   7.848 -0.7842 -0.3195  1.3539
   87CHL1   C23 8903   3.898  -0.229   8.001  0.5377  0.3381 -0.4881
   87CHL1  H23A 8904   3.973  -0.161   8.047  1.3125 -1.3487  0.8737
   87CHL1  H23B 8905   3.795  -0.190   8.012  1.0133  1.6147 -0.4183
   87CHL1   C24 8906   3.907  -0.368   8.065 -1.5144  0.1333 -1.0005
   87CHL1  H24A 8907   3.828  -0.426   8.013 -0.6287  0.4411 -2.7426
   87CHL1  H24B 8908   4.002  -0.417   8.036 -0.4629  0.6316  1.3686
   87CHL1   C25 8909   3.884  -0.351   8.219 -0.4903 -0.0308  0.1328
   87CHL1   H25 8910   3.962  -0.289   8.268  0.6264 -2.0232  1.0389
   87CHL1   C26 8911   3.744  -0.288   8.250 -0.4811 -0.3865 -0.4302
   87CHL1  H26A 8912   3.730  -0.187   8.206  0.3534 -0.3121 -0.5350
   87CHL1  H26B 8913   3.661  -0.354   8.217 -0.4493 -1.1774  0.9533
   87CHL1  H26C 8914   3.726  -0.271   8.359 -0.0027  2.2054 -0.6963
   87CHL1   C27 8915   3.893  -0.489   8.279 -0.1055 -0.2548  1.0883
   87CHL1  H27A 8916   3.852  -0.488   8.382 -0.7657 -0.3879  0.8298
   87CHL1  H27B 8917   3.823  -0.558   8.227  0.8205 -1.1336  0.9694
   87CHL1  H27C 8918   4.001  -0.513   8.266 -0.4383 -0.6895 -1.3458
   88CHL1    C3 8919   0.261   1.530   6.767 -0.5973  0.0118  0.6571
   88CHL1    H3 8920   0.308   1.631   6.766 -3.7343  1.5996  0.7772
   88CHL1    O3 8921   0.206   1.511   6.639 -0.5746 -0.2430  0.6573
   88CHL1   H3' 8922   0.264   1.441   6.609 -2.4401 -0.4312 -3.2438
   88CHL1    C4 8923   0.375   1.430   6.800 -0.5175  0.3798 -0.1503
   88CHL1   H4A 8924   0.338   1.326   6.790 -0.6657  0.2287  1.6403
   88CHL1   H4B 8925   0.446   1.445   6.716  0.0713 -4.3264 -0.7362
   88CHL1    C5 8926   0.426   1.443   6.940 -1.0230 -0.7233  0.3216
   88CHL1    C6 8927   0.557   1.441   6.974 -0.8471 -0.1181 -0.5150
   88CHL1    H6 8928   0.641   1.424   6.905 -0.1255  1.1771  0.0206
   88CHL1    C7 8929   0.606   1.443   7.116 -0.2992 -0.1952 -0.6958
   88CHL1   H7A 8930   0.685   1.364   7.118  0.3177  0.4136 -0.5211
   88CHL1   H7B 8931   0.661   1.538   7.135 -0.5343 -0.3152  0.7450
   88CHL1    C8 8932   0.504   1.434   7.227 -0.6970  0.8999  0.3241
   88CHL1    H8 8933   0.468   1.330   7.241 -2.0636  1.4390  0.9371
   88CHL1   C14 8934   0.554   1.487   7.360 -0.5353 -0.0054  0.0003
   88CHL1   H14 8935   0.588   1.591   7.339  0.6662 -0.5606 -0.9088
   88CHL1   C15 8936   0.682   1.427   7.424 -1.1085  0.2523  0.1537
   88CHL1  H15A 8937   0.692   1.317   7.422 -2.0093  0.1137  1.9263
   88CHL1  H15B 8938   0.765   1.478   7.370  0.3574 -2.1014  0.0425
   88CHL1   C16 8939   0.683   1.485   7.568 -0.0305  0.4212 -0.0377
   88CHL1  H16A 8940   0.685   1.405   7.645 -0.2926  1.4043  1.0244
   88CHL1  H16B 8941   0.768   1.552   7.596 -0.3733  0.5860  0.6437
   88CHL1   C17 8942   0.540   1.549   7.584  0.3178  0.3779 -0.0161
   88CHL1   H17 8943   0.549   1.656   7.557  1.5624 -0.2723 -2.4809
   88CHL1   C13 8944   0.453   1.494   7.471 -0.1209  1.0968 -0.4808
   88CHL1   C18 8945   0.407   1.350   7.506  0.5033 -0.2428 -1.1738
   88CHL1  H18A 8946   0.321   1.350   7.577 -0.4651  0.2211 -2.3171
   88CHL1  H18B 8947   0.367   1.288   7.423  1.6882 -0.8693 -1.2965
   88CHL1  H18C 8948   0.494   1.296   7.549  1.6687  2.3525 -0.0828
   88CHL1   C12 8949   0.340   1.585   7.431  0.5434 -0.3822 -0.3521
   88CHL1  H12A 8950   0.253   1.582   7.500  0.4652  0.0943 -0.4219
   88CHL1  H12B 8951   0.370   1.691   7.415  1.1933 -0.5501 -0.2487
   88CHL1   C11 8952   0.275   1.532   7.305  0.5424  0.6207  0.8045
   88CHL1  H11A 8953   0.238   1.430   7.331  3.1188 -0.5947  0.0485
   88CHL1  H11B 8954   0.193   1.599   7.272  1.2155  0.5153 -1.2694
   88CHL1    C9 8955   0.377   1.508   7.193  0.3277  0.4786 -0.0795
   88CHL1    H9 8956   0.411   1.613   7.183  1.7493  0.2542  1.7841
   88CHL1   C10 8957   0.317   1.462   7.050  0.1676 -0.0734  0.0348
   88CHL1   C19 8958   0.241   1.333   7.077  0.2801  0.7801  0.0392
   88CHL1  H19A 8959   0.303   1.258   7.130  0.3410  1.3661  0.8135
   88CHL1  H19B 8960   0.153   1.337   7.144 -0.1182 -0.4566 -0.3822
   88CHL1  H19C 8961   0.200   1.295   6.981  0.3524 -0.5419  0.5077
   88CHL1    C1 8962   0.209   1.561   7.004  0.0075  0.1420  0.0013
   88CHL1   H1A 8963   0.120   1.555   7.071 -0.0893  0.0968 -0.1311
   88CHL1   H1B 8964   0.228   1.670   7.019  1.0981 -0.0207 -0.1429
   88CHL1    C2 8965   0.151   1.536   6.868  0.7725 -0.6595 -0.5172
   88CHL1   H2A 8966   0.093   1.623   6.829  0.4466 -1.4418 -1.8571
   88CHL1   H2B 8967   0.089   1.444   6.862  1.0083 -1.2610  3.3956
   88CHL1   C20 8968   0.490   1.532   7.726  0.5942  0.3471 -0.5528
   88CHL1   H20 8969   0.469   1.425   7.745 -1.6955  0.5776 -1.4270
   88CHL1   C21 8970   0.354   1.601   7.746  0.8391  0.3265 -0.3066
   88CHL1  H21A 8971   0.346   1.599   7.857 -0.4253 -2.2031 -0.3649
   88CHL1  H21B 8972   0.279   1.530   7.705  1.2840 -0.0555 -0.4704
   88CHL1  H21C 8973   0.351   1.706   7.712 -2.2216 -0.2588 -2.2402
   88CHL1   C22 8974   0.594   1.578   7.837  0.1081  0.2162  0.5232
   88CHL1  H22A 8975   0.694   1.536   7.811 -1.4711 -3.6260 -0.1378
   88CHL1  H22B 8976   0.594   1.689   7.842  2.7457  0.2075  2.1739
   88CHL1   C23 8977   0.568   1.511   7.969 -0.1892 -0.0091  0.5533
   88CHL1  H23A 8978   0.480   1.556   8.018  1.6226  0.7880  3.2857
   88CHL1  H23B 8979   0.540   1.404   7.955 -0.8498 -0.1119  2.4014
   88CHL1   C24 8980   0.695   1.513   8.057  0.5343 -1.0359  0.4093
   88CHL1  H24A 8981   0.767   1.449   8.002  0.7287  0.8370 -1.6766
   88CHL1  H24B 8982   0.730   1.618   8.052 -0.1957 -0.6204  2.8803
   88CHL1   C25 8983   0.676   1.466   8.199  0.3971  0.0909  0.1926
   88CHL1   H25 8984   0.611   1.376   8.196  1.2575 -0.5863  1.2660
   88CHL1   C26 8985   0.816   1.422   8.247 -0.5044  0.4837  0.0191
   88CHL1  H26A 8986   0.796   1.358   8.335 -0.3040  1.0128  0.4523
   88CHL1  H26B 8987   0.863   1.350   8.176  0.9973  2.1466 -0.7542
   88CHL1  H26C 8988   0.887   1.507   8.256 -0.2234  0.2414  0.1030
   88CHL1   C27 8989   0.595   1.565   8.277 -0.2617  0.0727  0.6596
   88CHL1  H27A 8990   0.608   1.544   8.385  1.2371  2.0614  0.9289
   88CHL1  H27B 8991   0.641   1.666   8.262  0.3871 -0.2445  0.4920
   88CHL1  H27C 8992   0.487   1.568   8.250 -0.1702 -0.1139  0.2644
   89CHL1    C3 8993   4.097   5.710   6.996  0.3095  0.1579 -0.7565
   89CHL1    H3 8994   4.071   5.602   6.988  0.5254 -0.1596  1.8513
   89CHL1    O3 8995   4.086   5.773   6.869 -0.2611 -0.1119  0.2774
   89CHL1   H3' 8996   4.108   5.866   6.880  0.4045  0.2704 -3.2069
   89CHL1    C4 8997   4.002   5.783   7.089 -0.3357  0.1856 -1.0048
   89CHL1   H4A 8998   4.019   5.893   7.093  2.6540 -0.1893  3.1732
   89CHL1   H4B 8999   3.904   5.772   7.039 -0.0998 -3.2932 -0.9502
   89CHL1    C5 9000   4.002   5.738   7.235 -0.3479 -0.8811 -1.1772
   89CHL1    C6 9001   3.891   5.701   7.305  0.2064  0.3998  0.4029
   89CHL1    H6 9002   3.793   5.711   7.257 -0.6095 -0.0009  1.9160
   89CHL1    C7 9003   3.889   5.674   7.458  0.5862  0.2682  0.5695
   89CHL1   H7A 9004   3.810   5.737   7.503  0.4503 -0.0008  0.7151
   89CHL1   H7B 9005   3.870   5.566   7.480 -1.2848  0.4088 -0.1847
   89CHL1    C8 9006   4.028   5.708   7.523 -0.3296 -0.2812 -0.2687
   89CHL1    H8 9007   4.025   5.815   7.553  0.7616 -0.2273 -0.3090
   89CHL1   C14 9008   4.036   5.627   7.642 -0.0687  0.4379 -1.1843
   89CHL1   H14 9009   4.036   5.520   7.613  0.7892 -0.4434  1.8046
   89CHL1   C15 9010   3.920   5.632   7.752 -0.1574 -0.8402  0.6722
   89CHL1  H15A 9011   3.904   5.740   7.771  0.9317 -0.3175 -1.1193
   89CHL1  H15B 9012   3.830   5.577   7.718 -0.3183 -1.8411  2.5618
   89CHL1   C16 9013   3.983   5.572   7.879 -0.0069 -0.3704  0.5679
   89CHL1  H16A 9014   3.977   5.641   7.966  1.3393 -0.9802  1.1665
   89CHL1  H16B 9015   3.928   5.479   7.904  0.4802 -1.5919 -2.4750
   89CHL1   C17 9016   4.137   5.560   7.850 -0.2555 -0.1275  0.2199
   89CHL1   H17 9017   4.155   5.456   7.813  0.4951  0.9420 -2.6505
   89CHL1   C13 9018   4.167   5.645   7.722  0.4014 -0.7975 -0.2826
   89CHL1   C18 9019   4.181   5.795   7.769 -0.5139 -0.0063  0.1740
   89CHL1  H18A 9020   4.270   5.818   7.832 -0.7200  0.7688  0.1878
   89CHL1  H18B 9021   4.172   5.867   7.685  0.3903  0.4484  0.4547
   89CHL1  H18C 9022   4.105   5.845   7.832  0.4492  1.8786 -0.0954
   89CHL1   C12 9023   4.277   5.597   7.631  0.6844 -0.4151 -0.1078
   89CHL1  H12A 9024   4.369   5.619   7.689 -0.2984  1.2617  0.9188
   89CHL1  H12B 9025   4.266   5.488   7.614 -1.2085 -0.4162  0.8573
   89CHL1   C11 9026   4.282   5.668   7.495 -0.3050 -0.4327 -0.3834
   89CHL1  H11A 9027   4.309   5.774   7.514  2.5484 -0.9501 -1.0768
   89CHL1  H11B 9028   4.364   5.621   7.436 -0.3567 -0.5743 -0.3430
   89CHL1    C9 9029   4.145   5.669   7.433  0.4624  0.2831  0.4820
   89CHL1    H9 9030   4.123   5.564   7.406  0.3307  0.2617  0.6753
   89CHL1   C10 9031   4.142   5.745   7.298  0.9992 -0.9561  0.1733
   89CHL1   C19 9032   4.182   5.901   7.316  0.1910  0.1351  0.3908
   89CHL1  H19A 9033   4.280   5.905   7.368 -0.4845  3.7631  1.6574
   89CHL1  H19B 9034   4.198   5.952   7.219  2.6706 -1.1303  0.0651
   89CHL1  H19C 9035   4.102   5.945   7.379  0.2047  0.8527 -0.0936
   89CHL1    C1 9036   4.239   5.673   7.204 -0.1719 -1.2093 -0.0040
   89CHL1   H1A 9037   4.345   5.687   7.234  0.2617  0.8365 -2.1528
   89CHL1   H1B 9038   4.217   5.565   7.204 -2.8400 -0.7448  0.2816
   89CHL1    C2 9039   4.238   5.719   7.056  0.4938 -0.2386 -0.3792
   89CHL1   H2A 9040   4.315   5.652   7.013  0.2951 -1.1032  0.5745
   89CHL1   H2B 9041   4.261   5.827   7.042  1.3021 -0.5118 -1.3163
   89CHL1   C20 9042   4.217   5.567   7.990 -1.0897 -0.3957 -0.0892
   89CHL1   H20 9043   4.192   5.662   8.042  1.2014 -1.1818  2.7227
   89CHL1   C21 9044   4.370   5.579   7.967  0.1420  0.2271  0.1064
   89CHL1  H21A 9045   4.437   5.580   8.056  0.2317 -0.7415  0.0564
   89CHL1  H21B 9046   4.388   5.680   7.922 -1.7311 -0.0461 -1.3625
   89CHL1  H21C 9047   4.408   5.499   7.901 -2.2244 -1.9264  1.1910
   89CHL1   C22 9048   4.181   5.463   8.099 -0.0845  0.1737 -0.0544
   89CHL1  H22A 9049   4.083   5.418   8.074  0.8435 -1.4419 -0.9453
   89CHL1  H22B 9050   4.258   5.384   8.085  2.0388  2.1078  0.0511
   89CHL1   C23 9051   4.171   5.515   8.244 -0.2851  0.4272  0.1172
   89CHL1  H23A 9052   4.271   5.556   8.267 -0.2101  0.3254 -0.0242
   89CHL1  H23B 9053   4.108   5.604   8.224 -0.1859  0.9402  1.9100
   89CHL1   C24 9054   4.102   5.429   8.357  0.0201  0.0471  0.0912
   89CHL1  H24A 9055   4.097   5.493   8.447 -0.3942 -1.7208  1.3857
   89CHL1  H24B 9056   3.998   5.418   8.319 -0.1626  0.0696  0.5886
   89CHL1   C25 9057   4.178   5.293   8.383 -0.7839 -0.4802 -0.1699
   89CHL1   H25 9058   4.170   5.241   8.285 -0.8285 -0.5296 -0.1412
   89CHL1   C26 9059   4.328   5.316   8.426 -0.4512 -0.4742  0.1413
   89CHL1  H26A 9060   4.377   5.396   8.366 -1.9067 -1.2882 -2.2848
   89CHL1  H26B 9061   4.329   5.340   8.534  2.0137 -2.2204  0.5913
   89CHL1  H26C 9062   4.391   5.225   8.419  0.6194  0.2693 -0.2321
   89CHL1   C27 9063   4.095   5.221   8.488 -0.2856  0.3188  0.6394
   89CHL1  H27A 9064   4.129   5.255   8.588  0.5237 -0.2379  0.5598
   89CHL1  H27B 9065   3.987   5.243   8.470 -0.0144 -0.4004 -2.5145
   89CHL1  H27C 9066   4.107   5.111   8.478  0.8630  0.2625  2.3339
   90CHL1    C3 9067   3.949   1.478   6.904 -0.6475  0.3265  0.2509
   90CHL1    H3 9068   4.028   1.400   6.892 -2.4766 -1.6638  0.6009
   90CHL1    O3 9069   3.909   1.538   6.781  0.6634 -0.4100  0.2983
   90CHL1   H3' 9070   3.827   1.582   6.803  1.4845  0.4926  1.7093
   90CHL1    C4 9071   3.826   1.399   6.951  0.0464 -0.1829  0.1656
   90CHL1   H4A 9072   3.748   1.476   6.970  0.6556  0.4879 -0.0012
   90CHL1   H4B 9073   3.786   1.337   6.869 -3.0587  0.2926  1.2043
   90CHL1    C5 9074   3.846   1.328   7.083 -0.5233 -0.1071 -0.1656
   90CHL1    C6 9075   3.833   1.199   7.083  0.2696 -0.1892  0.2558
   90CHL1    H6 9076   3.790   1.150   6.994  1.0311 -1.3926  0.5183
   90CHL1    C7 9077   3.854   1.118   7.205  0.2747 -0.1895 -0.4461
   90CHL1   H7A 9078   3.777   1.040   7.224  1.0563 -0.4269  2.0131
   90CHL1   H7B 9079   3.949   1.062   7.194 -0.4714 -1.3537 -1.1655
   90CHL1    C8 9080   3.865   1.203   7.335 -0.4387  0.2185 -0.6348
   90CHL1    H8 9081   3.761   1.227   7.365 -0.9871 -0.0140 -2.2701
   90CHL1   C14 9082   3.927   1.115   7.447  0.2027 -0.6137  0.5034
   90CHL1   H14 9083   4.033   1.097   7.416  0.0868 -1.1157  0.3910
   90CHL1   C15 9084   3.871   0.972   7.476  0.2309  0.5705 -0.1124
   90CHL1  H15A 9085   3.764   0.961   7.450  0.6432 -0.4119 -1.4587
   90CHL1  H15B 9086   3.939   0.896   7.431  1.2890  1.7202 -0.5143
   90CHL1   C16 9087   3.907   0.949   7.624 -0.6111 -0.0279 -0.3359
   90CHL1  H16A 9088   3.816   0.956   7.688 -0.2655 -1.0463  0.3002
   90CHL1  H16B 9089   3.955   0.850   7.642  1.4333  1.0323  0.3422
   90CHL1   C17 9090   4.004   1.061   7.668 -0.4320 -0.8231  0.4740
   90CHL1   H17 9091   4.102   1.032   7.625 -0.3297  1.9378 -1.4415
   90CHL1   C13 9092   3.938   1.176   7.582 -1.2380  0.5305 -0.4985
   90CHL1   C18 9093   3.800   1.220   7.640 -0.2263 -0.8724 -0.3995
   90CHL1  H18A 9094   3.770   1.312   7.585  1.6348 -0.6876 -1.1526
   90CHL1  H18B 9095   3.719   1.145   7.626 -0.8974 -0.5704  1.5327
   90CHL1  H18C 9096   3.804   1.237   7.750  1.5087  0.2781 -0.6063
   90CHL1   C12 9097   4.030   1.302   7.559  0.7384 -0.3505 -0.2789
   90CHL1  H12A 9098   4.053   1.349   7.657 -0.0392 -0.4656 -0.0347
   90CHL1  H12B 9099   4.122   1.252   7.520  0.9905 -1.9070  2.0915
   90CHL1   C11 9100   3.972   1.402   7.453  0.0166  0.2682 -0.0967
   90CHL1  H11A 9101   3.881   1.454   7.491 -0.2572 -0.0005 -0.3764
   90CHL1  H11B 9102   4.047   1.483   7.440 -0.4827  0.9742  1.2344
   90CHL1    C9 9103   3.945   1.325   7.321 -0.2642 -0.1927 -0.2798
   90CHL1    H9 9104   4.043   1.289   7.284  1.1127  2.0347  0.9395
   90CHL1   C10 9105   3.898   1.417   7.203  0.1600  0.8924  0.2354
   90CHL1   C19 9106   3.785   1.502   7.250  0.0996 -0.4821 -0.4827
   90CHL1  H19A 9107   3.810   1.567   7.337 -0.1974 -0.5040 -0.3775
   90CHL1  H19B 9108   3.747   1.572   7.173  3.4239  1.5618 -0.4637
   90CHL1  H19C 9109   3.699   1.441   7.286 -1.1329  1.4931  0.0776
   90CHL1    C1 9110   4.006   1.514   7.152  0.4276  0.7057  0.1041
   90CHL1   H1A 9111   4.032   1.584   7.234  1.9488 -0.8836  1.0621
   90CHL1   H1B 9112   4.102   1.459   7.137  1.0203  1.9454 -0.8448
   90CHL1    C2 9113   3.984   1.583   7.013  0.3861 -0.3900 -0.0061
   90CHL1   H2A 9114   4.079   1.634   6.985 -0.6918  0.8715 -1.4972
   90CHL1   H2B 9115   3.904   1.658   7.030  0.8793 -0.1588  1.4340
   90CHL1   C20 9116   4.024   1.080   7.816  0.0997 -0.2787  0.1163
   90CHL1   H20 9117   3.958   1.157   7.861  0.9274  1.5833 -1.6385
   90CHL1   C21 9118   4.173   1.119   7.833  0.2310  0.3601  0.3436
   90CHL1  H21A 9119   4.248   1.044   7.798 -2.0661 -1.3550 -1.1967
   90CHL1  H21B 9120   4.200   1.147   7.937  2.2217  0.1698 -0.0695
   90CHL1  H21C 9121   4.186   1.213   7.775  1.3686  0.5687  0.9003
   90CHL1   C22 9122   3.996   0.957   7.902  0.1089 -0.7276  0.3431
   90CHL1  H22A 9123   3.893   0.922   7.879 -0.9370  1.7761  0.7910
   90CHL1  H22B 9124   4.059   0.873   7.869  0.6835 -0.9606  1.9465
   90CHL1   C23 9125   4.004   0.981   8.051  0.1404  0.5981 -0.1955
   90CHL1  H23A 9126   4.108   1.000   8.086 -0.5339 -0.6843  2.8186
   90CHL1  H23B 9127   3.937   1.067   8.073 -1.0296 -0.6192  1.1690
   90CHL1   C24 9128   3.962   0.863   8.135 -0.3230  0.8631 -0.3270
   90CHL1  H24A 9129   3.857   0.847   8.103 -0.4227 -0.0487  0.3819
   90CHL1  H24B 9130   4.020   0.770   8.115 -0.6224  0.7610 -0.7342
   90CHL1   C25 9131   3.963   0.887   8.289  0.1079 -0.7330 -0.1490
   90CHL1   H25 9132   3.927   0.992   8.301 -0.3741 -0.5845 -2.3822
   90CHL1   C26 9133   3.857   0.796   8.361 -0.7792 -0.2739  0.2100
   90CHL1  H26A 9134   3.765   0.802   8.299 -0.7216 -1.2805  0.0088
   90CHL1  H26B 9135   3.901   0.694   8.359 -2.8478 -1.2039 -1.6901
   90CHL1  H26C 9136   3.836   0.821   8.467  0.4035  0.2169  0.3408
   90CHL1   C27 9137   4.099   0.886   8.356 -0.2523 -0.8275 -0.1130
   90CHL1  H27A 9138   4.184   0.934   8.303 -1.2372  1.2908  0.1243
   90CHL1  H27B 9139   4.097   0.935   8.456  2.3216  0.6356 -0.7148
   90CHL1  H27C 9140   4.117   0.780   8.385 -1.4946 -0.3268  2.9093
   91CHL1    C3 9141   4.737   2.054   7.125 -0.5386 -0.4962 -0.2479
   91CHL1    H3 9142   4.637   2.099   7.111 -2.2068 -3.9767 -0.5564
   91CHL1    O3 9143   4.788   2.041   6.991 -0.5657  0.2889  0.0060
   91CHL1   H3' 9144   4.880   2.017   7.005 -0.5991  0.0695 -0.1396
   91CHL1    C4 9145   4.828   2.160   7.196  0.6024 -0.2194  0.0941
   91CHL1   H4A 9146   4.934   2.126   7.195  1.2213  1.6181 -1.4365
   91CHL1   H4B 9147   4.817   2.260   7.150  3.0713  1.9258  3.6811
   91CHL1    C5 9148   4.798   2.179   7.345 -0.3658  0.2778  0.6241
   91CHL1    C6 9149   4.767   2.305   7.400 -0.2994 -0.2074 -0.2552
   91CHL1    H6 9150   4.773   2.394   7.336  2.6295  1.3547  1.9581
   91CHL1    C7 9151   4.732   2.335   7.547  0.1718  0.4756 -0.2592
   91CHL1   H7A 9152   4.790   2.421   7.586  1.4121  0.2899 -1.6341
   91CHL1   H7B 9153   4.624   2.361   7.552  0.4684  1.6818  0.0374
   91CHL1    C8 9154   4.761   2.204   7.630  0.2363  0.0322 -0.5634
   91CHL1    H8 9155   4.871   2.197   7.644  0.1915 -2.3476 -0.9784
   91CHL1   C14 9156   4.694   2.224   7.763 -0.2870  0.3824  0.1481
   91CHL1   H14 9157   4.585   2.226   7.740 -0.7964  2.5535  2.3087
   91CHL1   C15 9158   4.718   2.360   7.835 -0.2046  0.2949 -0.0267
   91CHL1  H15A 9159   4.825   2.386   7.821  0.6640 -2.5224  0.7376
   91CHL1  H15B 9160   4.661   2.451   7.809 -0.6400  0.5461  1.7062
   91CHL1   C16 9161   4.698   2.319   7.983 -0.2660  0.2484 -0.3743
   91CHL1  H16A 9162   4.795   2.325   8.036 -1.0703  1.8913  0.9965
   91CHL1  H16B 9163   4.636   2.390   8.042 -0.9667 -1.0817  0.5360
   91CHL1   C17 9164   4.643   2.176   7.985 -0.7607  0.1249  0.1274
   91CHL1   H17 9165   4.533   2.178   7.970 -0.9183  1.6336  1.3019
   91CHL1   C13 9166   4.720   2.114   7.859  0.3859  0.0711  0.0168
   91CHL1   C18 9167   4.866   2.092   7.890  0.2906 -0.5915  0.5981
   91CHL1  H18A 9168   4.928   2.178   7.922  0.1506 -0.4591  0.5133
   91CHL1  H18B 9169   4.879   2.020   7.974  0.8841 -1.7227 -0.4429
   91CHL1  H18C 9170   4.919   2.045   7.805  0.3084 -1.9342  1.3313
   91CHL1   C12 9171   4.650   1.993   7.798 -0.1535  0.6129 -0.4364
   91CHL1  H12A 9172   4.666   1.902   7.860  0.5648 -0.7293 -2.4782
   91CHL1  H12B 9173   4.543   2.002   7.770 -0.1708  0.6406 -0.3583
   91CHL1   C11 9174   4.701   1.953   7.654 -0.3087 -0.1215  0.4731
   91CHL1  H11A 9175   4.807   1.921   7.663  0.3234  1.3865 -0.9839
   91CHL1  H11B 9176   4.646   1.862   7.621 -1.1290  0.8078 -0.8058
   91CHL1    C9 9177   4.713   2.075   7.561  0.1046  0.1516 -0.0176
   91CHL1    H9 9178   4.608   2.106   7.540 -0.5142 -1.6007  0.3276
   91CHL1   C10 9179   4.779   2.043   7.430 -0.1368  0.4081 -0.0026
   91CHL1   C19 9180   4.930   1.996   7.459  0.3728  0.3100 -0.5179
   91CHL1  H19A 9181   4.979   2.056   7.538  0.2731 -0.4174  0.1123
   91CHL1  H19B 9182   4.922   1.889   7.489 -1.2050  0.6397  0.3199
   91CHL1  H19C 9183   4.993   2.015   7.370 -1.0780  0.5383 -1.5347
   91CHL1    C1 9184   4.695   1.945   7.348  0.2142  0.8550 -0.3672
   91CHL1   H1A 9185   4.698   1.844   7.396 -0.0150 -0.8476 -3.6698
   91CHL1   H1B 9186   4.589   1.979   7.355  0.4673  1.4908  0.5752
   91CHL1    C2 9187   4.729   1.925   7.199 -0.6201  0.0245  1.1292
   91CHL1   H2A 9188   4.653   1.859   7.153  0.0099 -0.1684  0.3356
   91CHL1   H2B 9189   4.830   1.879   7.191  0.2884  2.1513 -0.7616
   91CHL1   C20 9190   4.668   2.111   8.121  0.2482  0.3953 -0.0131
   91CHL1   H20 9191   4.772   2.117   8.157 -0.4603  0.2701  2.1771
   91CHL1   C21 9192   4.641   1.956   8.117 -0.3763 -0.2747 -0.0035
   91CHL1  H21A 9193   4.596   1.917   8.211 -1.2701  0.3475 -0.1620
   91CHL1  H21B 9194   4.735   1.901   8.093 -0.3742 -0.2451 -0.0614
   91CHL1  H21C 9195   4.565   1.931   8.040  2.4603 -1.2130 -2.7412
   91CHL1   C22 9196   4.582   2.172   8.233  0.3128  0.4075  0.4438
   91CHL1  H22A 9197   4.577   2.283   8.232 -0.2361  0.3865  0.7547
   91CHL1  H22B 9198   4.481   2.127   8.225  1.5154 -2.3835 -0.2484
   91CHL1   C23 9199   4.642   2.128   8.373  0.7147 -0.6494  0.0861
   91CHL1  H23A 9200   4.687   2.029   8.351 -2.8923 -1.9482 -2.2600
   91CHL1  H23B 9201   4.720   2.198   8.410 -1.3130  1.7837 -0.0137
   91CHL1   C24 9202   4.543   2.110   8.483 -0.3666  0.0211 -0.1121
   91CHL1  H24A 9203   4.469   2.029   8.471 -0.0393 -0.1193 -1.3479
   91CHL1  H24B 9204   4.601   2.085   8.574  1.7920 -0.5873 -1.5558
   91CHL1   C25 9205   4.467   2.243   8.518  0.1799 -0.0309  0.0847
   91CHL1   H25 9206   4.453   2.299   8.423  0.4274  1.2986  0.8166
   91CHL1   C26 9207   4.335   2.220   8.580  0.4716  0.2232  0.0067
   91CHL1  H26A 9208   4.257   2.209   8.501 -0.9385 -0.7736  1.4665
   91CHL1  H26B 9209   4.329   2.132   8.647  1.3318 -0.4744 -0.8077
   91CHL1  H26C 9210   4.303   2.310   8.637 -0.0327  0.7126 -1.0065
   91CHL1   C27 9211   4.550   2.345   8.597 -0.5102  0.1459  0.4696
   91CHL1  H27A 9212   4.544   2.330   8.707  0.0631 -3.1889  0.1262
   91CHL1  H27B 9213   4.657   2.325   8.578 -0.5283  0.0351  0.4824
   91CHL1  H27C 9214   4.512   2.448   8.576 -2.6368 -0.1029  2.6294
   92CHL1    C3 9215   2.198   2.886   7.047  0.5957  0.2430  0.0466
   92CHL1    H3 9216   2.304   2.921   7.053  1.0059 -1.1491  1.3377
   92CHL1    O3 9217   2.153   2.875   6.911  0.7423  0.1845 -0.5775
   92CHL1   H3' 9218   2.219   2.819   6.870 -0.4348 -1.1645 -0.6885
   92CHL1    C4 9219   2.190   2.753   7.115  0.1216  0.3006  0.0442
   92CHL1   H4A 9220   2.090   2.707   7.098 -2.5526  3.7473  4.3027
   92CHL1   H4B 9221   2.266   2.694   7.060 -1.5256 -2.1056  0.2247
   92CHL1    C5 9222   2.220   2.764   7.260 -0.2390 -0.1098 -0.6641
   92CHL1    C6 9223   2.314   2.689   7.321  0.4463  0.8495 -0.2238
   92CHL1    H6 9224   2.379   2.625   7.258 -0.8106  0.1760 -0.8704
   92CHL1    C7 9225   2.344   2.687   7.468  0.0302  0.1363 -0.5109
   92CHL1   H7A 9226   2.352   2.583   7.506 -0.7187  0.6032  0.9846
   92CHL1   H7B 9227   2.446   2.727   7.479  0.5857 -0.8029 -1.9114
   92CHL1    C8 9228   2.244   2.752   7.560  0.8476 -0.5448  0.6990
   92CHL1    H8 9229   2.165   2.675   7.572  0.0714  0.2716  1.0028
   92CHL1   C14 9230   2.290   2.778   7.706 -0.6896  0.6244  0.5003
   92CHL1   H14 9231   2.381   2.840   7.695 -0.2957  0.1304  0.8805
   92CHL1   C15 9232   2.335   2.657   7.784 -0.4877 -0.1566  0.3714
   92CHL1  H15A 9233   2.254   2.582   7.797 -0.2499 -0.4165  0.3573
   92CHL1  H15B 9234   2.427   2.604   7.753  1.2218  2.8421 -0.0373
   92CHL1   C16 9235   2.348   2.717   7.922  0.6399  0.3137  0.2262
   92CHL1  H16A 9236   2.310   2.638   7.991  0.7104  0.6248  0.6299
   92CHL1  H16B 9237   2.452   2.718   7.962 -0.2467 -0.2566  2.7368
   92CHL1   C17 9238   2.275   2.856   7.931  0.2182  0.7771  0.1357
   92CHL1   H17 9239   2.348   2.939   7.921 -0.6440  1.4730 -0.5177
   92CHL1   C13 9240   2.200   2.859   7.793  1.1865  0.4372  0.8154
   92CHL1   C18 9241   2.066   2.776   7.810  0.0829 -0.1969  0.3466
   92CHL1  H18A 9242   2.016   2.757   7.712  1.6679  0.6069 -0.6661
   92CHL1  H18B 9243   2.087   2.682   7.864  0.6890  0.2912  0.9649
   92CHL1  H18C 9244   1.995   2.835   7.871  1.0689  2.5605 -1.0147
   92CHL1   C12 9245   2.174   2.992   7.722  0.4916 -0.5524 -0.5888
   92CHL1  H12A 9246   2.118   3.066   7.784 -0.7400 -1.4445 -0.5896
   92CHL1  H12B 9247   2.271   3.042   7.700  0.9662 -1.0771  0.2502
   92CHL1   C11 9248   2.111   2.978   7.582 -0.4179 -0.2202 -0.1824
   92CHL1  H11A 9249   2.011   2.937   7.610  0.7082 -4.5597 -1.7204
   92CHL1  H11B 9250   2.100   3.080   7.539  3.7197  0.3096 -0.3863
   92CHL1    C9 9251   2.193   2.884   7.487  0.1067  0.1490  0.3952
   92CHL1    H9 9252   2.290   2.935   7.472  0.9090 -0.9104  1.7808
   92CHL1   C10 9253   2.135   2.856   7.341 -0.0664 -0.4029 -0.1869
   92CHL1   C19 9254   1.999   2.800   7.358 -0.9619 -0.2230  0.1254
   92CHL1  H19A 9255   2.014   2.696   7.392 -2.3938 -0.2667  0.7122
   92CHL1  H19B 9256   1.946   2.852   7.442 -0.3170 -0.6939  0.8391
   92CHL1  H19C 9257   1.942   2.790   7.264 -0.1632 -0.3653 -0.3468
   92CHL1    C1 9258   2.129   2.997   7.272  0.2612 -0.2979  0.5437
   92CHL1   H1A 9259   2.044   3.059   7.307 -0.1482 -0.9207  0.6675
   92CHL1   H1B 9260   2.223   3.053   7.289 -0.1648  0.4227  0.5535
   92CHL1    C2 9261   2.110   2.988   7.112 -0.2161 -0.3709 -0.6126
   92CHL1   H2A 9262   2.126   3.093   7.080 -0.2758 -0.3029 -0.4212
   92CHL1   H2B 9263   2.004   2.959   7.098 -0.1679 -0.5196 -0.6718
   92CHL1   C20 9264   2.205   2.881   8.065  0.6631  0.8273  0.6200
   92CHL1   H20 9265   2.129   2.803   8.085  0.7359  0.1769 -1.3719
   92CHL1   C21 9266   2.138   3.018   8.061  0.5428  0.2496  0.1205
   92CHL1  H21A 9267   2.218   3.091   8.037  2.1705 -0.1314  3.7831
   92CHL1  H21B 9268   2.086   3.026   8.159  1.0279  2.0651  0.2595
   92CHL1  H21C 9269   2.055   3.028   7.988 -0.5890 -0.4784  1.2651
   92CHL1   C22 9270   2.301   2.877   8.184  0.1933 -0.4847  0.2280
   92CHL1  H22A 9271   2.373   2.793   8.183 -0.5173 -1.1351 -1.8255
   92CHL1  H22B 9272   2.351   2.976   8.189 -1.9452  0.6112  1.5016
   92CHL1   C23 9273   2.231   2.860   8.321 -0.3827 -0.0443 -0.3364
   92CHL1  H23A 9274   2.167   2.947   8.345 -1.0411 -0.2725 -1.2090
   92CHL1  H23B 9275   2.167   2.770   8.308 -0.7778  0.2338 -0.3065
   92CHL1   C24 9276   2.333   2.848   8.433  0.6648  0.3248 -0.1387
   92CHL1  H24A 9277   2.404   2.770   8.399 -0.6660  0.1152 -2.6388
   92CHL1  H24B 9278   2.398   2.938   8.438  0.0014  0.8262 -0.4129
   92CHL1   C25 9279   2.281   2.824   8.574  0.1490 -0.1227 -0.6122
   92CHL1   H25 9280   2.234   2.725   8.587 -0.3903  0.3628  1.5275
   92CHL1   C26 9281   2.398   2.832   8.679 -0.5899  0.2501  0.0549
   92CHL1  H26A 9282   2.360   2.857   8.781 -0.9740  1.8834 -0.4561
   92CHL1  H26B 9283   2.466   2.744   8.684  1.0469  1.5484  1.5921
   92CHL1  H26C 9284   2.460   2.919   8.652  0.4646 -0.6233 -0.3925
   92CHL1   C27 9285   2.174   2.930   8.617  0.2036  0.2534  1.4854
   92CHL1  H27A 9286   2.208   3.033   8.595  0.0618 -0.0230 -0.1499
   92CHL1  H27B 9287   2.090   2.923   8.545  0.7185 -3.0472  1.0568
   92CHL1  H27C 9288   2.127   2.905   8.714 -0.1674  1.5603  1.6621
   93CHL1    C3 9289   0.547   3.907   6.971 -0.2327  0.2018 -0.2599
   93CHL1    H3 9290   0.581   4.013   6.974 -4.2685  1.6877 -0.6454
   93CHL1    O3 9291   0.519   3.867   6.835  0.5098  0.0601 -0.3140
   93CHL1   H3' 9292   0.598   3.901   6.795  1.3655  1.5413  2.4139
   93CHL1    C4 9293   0.647   3.803   7.031  0.1114 -0.3933 -0.4421
   93CHL1   H4A 9294   0.617   3.697   7.015  0.1053 -0.1505 -2.1863
   93CHL1   H4B 9295   0.731   3.819   6.961 -2.7383 -0.4528 -4.1690
   93CHL1    C5 9296   0.673   3.838   7.174  0.1665  0.0051  0.2300
   93CHL1    C6 9297   0.790   3.883   7.217  0.0508  0.5104  0.0579
   93CHL1    H6 9298   0.879   3.886   7.152  2.6711  0.8657  3.3602
   93CHL1    C7 9299   0.830   3.910   7.357 -0.7146  0.1261  0.4831
   93CHL1   H7A 9300   0.932   3.879   7.390 -0.7953  0.2488  0.8494
   93CHL1   H7B 9301   0.843   4.019   7.377  0.2145 -0.2251  1.8831
   93CHL1    C8 9302   0.731   3.857   7.460  0.1223 -0.2567 -0.6807
   93CHL1    H8 9303   0.739   3.746   7.468  0.7119 -0.1472  0.5696
   93CHL1   C14 9304   0.751   3.924   7.599 -0.2015  0.0422 -0.4558
   93CHL1   H14 9305   0.730   4.032   7.581  2.3982  0.8296  0.8281
   93CHL1   C15 9306   0.882   3.917   7.673  0.5891  1.1038 -0.0209
   93CHL1  H15A 9307   0.928   3.816   7.663 -0.6619  0.5442 -0.4631
   93CHL1  H15B 9308   0.963   3.985   7.639  1.5816 -0.8434 -1.7985
   93CHL1   C16 9309   0.849   3.957   7.813 -0.1806 -0.6537 -0.4505
   93CHL1  H16A 9310   0.904   3.893   7.884 -0.6237 -0.3394  0.1901
   93CHL1  H16B 9311   0.883   4.062   7.825 -1.4153 -0.3780  0.9650
   93CHL1   C17 9312   0.693   3.943   7.833  0.1378 -0.4676  0.0613
   93CHL1   H17 9313   0.639   4.039   7.823 -1.0449 -1.2142 -1.0994
   93CHL1   C13 9314   0.643   3.876   7.699  0.7121  0.1534  0.7280
   93CHL1   C18 9315   0.645   3.721   7.716 -0.7150 -0.2484 -0.1004
   93CHL1  H18A 9316   0.735   3.690   7.773 -0.9618  0.6073  0.7805
   93CHL1  H18B 9317   0.552   3.681   7.761  0.2704 -0.8508  1.4901
   93CHL1  H18C 9318   0.638   3.669   7.618 -2.6281  1.6115 -1.0360
   93CHL1   C12 9319   0.507   3.930   7.648  0.7846  0.1639  0.8716
   93CHL1  H12A 9320   0.425   3.907   7.719 -1.0396 -1.8640 -1.6565
   93CHL1  H12B 9321   0.507   4.040   7.635  0.4280  0.4528  3.0371
   93CHL1   C11 9322   0.468   3.870   7.510 -0.0924  0.0514  0.4107
   93CHL1  H11A 9323   0.466   3.762   7.534  0.5633 -0.0989 -0.1719
   93CHL1  H11B 9324   0.369   3.905   7.473 -0.2699 -2.4886 -1.7803
   93CHL1    C9 9325   0.587   3.893   7.406  0.1253 -0.2165  0.4797
   93CHL1    H9 9326   0.594   4.003   7.391  1.8540 -0.4336 -0.5048
   93CHL1   C10 9327   0.553   3.828   7.265  0.4068 -0.2915 -0.4791
   93CHL1   C19 9328   0.509   3.680   7.283 -0.1106 -0.2812  0.2336
   93CHL1  H19A 9329   0.505   3.628   7.184  2.2558  1.5446 -0.9130
   93CHL1  H19B 9330   0.581   3.634   7.354 -0.1933 -0.5629  0.1396
   93CHL1  H19C 9331   0.410   3.672   7.334 -0.1527  0.6869  0.3078
   93CHL1    C1 9332   0.436   3.918   7.205  0.6106  0.0668  0.2762
   93CHL1   H1A 9333   0.343   3.910   7.265  0.7972 -1.1110  0.4396
   93CHL1   H1B 9334   0.475   4.022   7.202 -1.1265  0.7248 -1.2178
   93CHL1    C2 9335   0.411   3.891   7.057  0.1707  0.4950 -0.4452
   93CHL1   H2A 9336   0.344   3.966   7.011  1.6341  2.2140  0.1241
   93CHL1   H2B 9337   0.372   3.787   7.050  3.4750 -1.2824  3.2132
   93CHL1   C20 9338   0.648   3.880   7.959 -0.7859 -0.5869 -0.1109
   93CHL1   H20 9339   0.673   3.772   7.953  2.2475  0.0850 -1.5438
   93CHL1   C21 9340   0.491   3.888   7.978 -1.0123 -0.2564 -0.5076
   93CHL1  H21A 9341   0.436   3.813   7.917 -1.2711  0.2756 -0.9347
   93CHL1  H21B 9342   0.462   3.993   7.960 -0.4478  0.2411  1.2621
   93CHL1  H21C 9343   0.476   3.851   8.082 -2.8623 -2.0701 -1.3403
   93CHL1   C22 9344   0.718   3.939   8.084  0.2939  0.2263 -0.1960
   93CHL1  H22A 9345   0.828   3.945   8.071  0.8535 -1.9952  2.4466
   93CHL1  H22B 9346   0.676   4.042   8.092  0.8767  0.8290 -3.5575
   93CHL1   C23 9347   0.704   3.854   8.213 -0.2086 -0.2110 -0.1329
   93CHL1  H23A 9348   0.597   3.844   8.242  0.0126 -2.5145  0.1155
   93CHL1  H23B 9349   0.749   3.758   8.180  0.5703  0.6513 -1.6723
   93CHL1   C24 9350   0.781   3.926   8.327 -0.0669  0.6959 -0.3208
   93CHL1  H24A 9351   0.887   3.943   8.299 -0.5066  5.3609  0.1058
   93CHL1  H24B 9352   0.719   4.018   8.336 -0.7808  0.2354 -0.4323
   93CHL1   C25 9353   0.771   3.854   8.458  0.3607  0.9396  0.2330
   93CHL1   H25 9354   0.812   3.752   8.442  0.7518  0.5358  3.2128
   93CHL1   C26 9355   0.860   3.933   8.554  0.3996  0.2219 -0.6148
   93CHL1  H26A 9356   0.964   3.930   8.516  0.6283  2.4219 -0.3216
   93CHL1  H26B 9357   0.827   4.039   8.567 -1.4474 -0.3970 -0.0031
   93CHL1  H26C 9358   0.862   3.876   8.649 -1.1950  0.5505 -0.3593
   93CHL1   C27 9359   0.633   3.831   8.523 -0.4282  0.1226 -0.4341
   93CHL1  H27A 9360   0.567   3.763   8.463  0.6649  0.0169 -1.5571
   93CHL1  H27B 9361   0.641   3.793   8.627  0.2777 -2.6606 -1.4092
   93CHL1  H27C 9362   0.571   3.923   8.527 -1.3349 -0.5237  0.9288
   94CHL1    C3 9363   4.664   6.034   6.959 -0.4338  0.8696 -0.2293
   94CHL1    H3 9364   4.666   5.923   6.965  2.6545  0.9194  1.6053
   94CHL1    O3 9365   4.615   6.067   6.827  0.2258  1.3668 -0.0947
   94CHL1   H3' 9366   4.683   6.023   6.777 -1.4630 -3.3111  1.1747
   94CHL1    C4 9367   4.578   6.098   7.070 -0.3300  0.3138  0.0598
   94CHL1   H4A 9368   4.580   6.208   7.058 -2.4612  0.5045  0.8551
   94CHL1   H4B 9369   4.472   6.068   7.054  0.0869 -0.2689 -1.8347
   94CHL1    C5 9370   4.621   6.065   7.211 -0.9114  0.2397  0.4219
   94CHL1    C6 9371   4.535   6.010   7.297 -0.0015 -0.3447 -0.0250
   94CHL1    H6 9372   4.428   5.999   7.271  0.1875  0.5980 -1.2524
   94CHL1    C7 9373   4.589   5.953   7.425 -0.0204 -0.3506  0.1114
   94CHL1   H7A 9374   4.523   5.984   7.508 -0.2296 -1.2204  0.2783
   94CHL1   H7B 9375   4.585   5.842   7.419 -3.7963 -0.4051  0.9325
   94CHL1    C8 9376   4.732   6.005   7.473  0.3602 -0.2763 -0.3071
   94CHL1    H8 9377   4.719   6.114   7.484  0.1315 -0.2797 -0.5330
   94CHL1   C14 9378   4.778   5.928   7.594 -0.9783 -0.4787 -0.0552
   94CHL1   H14 9379   4.799   5.829   7.548 -0.7748  0.4260 -2.0105
   94CHL1   C15 9380   4.680   5.905   7.710 -0.2414  0.3713 -0.7790
   94CHL1  H15A 9381   4.624   5.997   7.740 -0.4290  0.2859 -0.8671
   94CHL1  H15B 9382   4.600   5.830   7.693  1.0173 -0.9699 -1.0369
   94CHL1   C16 9383   4.772   5.870   7.826  0.0228  0.5775  0.0190
   94CHL1  H16A 9384   4.750   5.948   7.902 -1.7167  0.9278 -0.8058
   94CHL1  H16B 9385   4.763   5.770   7.873  0.4115 -0.8938 -2.8472
   94CHL1   C17 9386   4.916   5.878   7.770  0.3907 -0.1606  0.0946
   94CHL1   H17 9387   4.943   5.785   7.715  0.5184  0.7233 -1.3935
   94CHL1   C13 9388   4.909   5.979   7.653 -0.2554  0.2552  0.0554
   94CHL1   C18 9389   4.901   6.123   7.694  0.1809 -0.5699  0.3130
   94CHL1  H18A 9390   5.000   6.158   7.730  1.3736 -0.3226 -2.8582
   94CHL1  H18B 9391   4.882   6.189   7.606  3.2930  0.1461  0.0732
   94CHL1  H18C 9392   4.825   6.154   7.769 -0.8015 -1.0682 -0.4641
   94CHL1   C12 9393   5.014   5.961   7.545 -0.7809  0.0060 -0.0313
   94CHL1  H12A 9394   5.106   6.013   7.578 -1.2022  0.7252  0.0397
   94CHL1  H12B 9395   5.037   5.857   7.516  1.2269  0.9201 -2.0221
   94CHL1   C11 9396   4.975   6.037   7.412 -0.1383  0.5438  0.2848
   94CHL1  H11A 9397   4.991   6.146   7.423  0.2915  0.5284 -0.1480
   94CHL1  H11B 9398   5.049   5.995   7.340  2.1753  0.1316  2.7412
   94CHL1    C9 9399   4.831   6.000   7.360  0.1069 -0.3380 -0.2716
   94CHL1    H9 9400   4.833   5.894   7.327 -1.4525 -0.2535 -0.7275
   94CHL1   C10 9401   4.775   6.078   7.232 -0.7331  0.3777  0.1562
   94CHL1   C19 9402   4.803   6.231   7.241  0.0142 -0.3194 -0.1963
   94CHL1  H19A 9403   4.748   6.286   7.161  0.8711  1.1270  0.1759
   94CHL1  H19B 9404   4.764   6.280   7.333  0.7914  1.1502 -0.6125
   94CHL1  H19C 9405   4.911   6.254   7.228 -0.1677  0.1570 -0.9273
   94CHL1    C1 9406   4.856   6.022   7.112 -0.1578  0.2193 -0.2280
   94CHL1   H1A 9407   4.967   6.027   7.121 -0.1753 -1.6659  2.2174
   94CHL1   H1B 9408   4.847   5.912   7.106  0.6366  0.1776 -0.7956
   94CHL1    C2 9409   4.814   6.069   6.977  0.1494  0.1032 -0.1203
   94CHL1   H2A 9410   4.881   6.033   6.896 -0.8453  1.9426 -1.8205
   94CHL1   H2B 9411   4.831   6.178   6.978  3.2835 -0.2852 -0.3028
   94CHL1   C20 9412   5.020   5.890   7.881 -0.0070 -1.0328  0.5313
   94CHL1   H20 9413   5.009   5.989   7.930 -1.5468 -0.3629 -1.0387
   94CHL1   C21 9414   5.155   5.886   7.811 -0.0614 -0.8023  0.5418
   94CHL1  H21A 9415   5.235   5.835   7.870  0.8171 -1.9260 -1.4939
   94CHL1  H21B 9416   5.183   5.985   7.769 -0.9522 -0.8390 -0.1649
   94CHL1  H21C 9417   5.147   5.813   7.727 -1.3630  0.9172 -0.9141
   94CHL1   C22 9418   5.001   5.781   7.991  0.9325  0.0336 -0.5200
   94CHL1  H22A 9419   5.089   5.794   8.057 -0.1076  0.1331  0.8751
   94CHL1  H22B 9420   4.918   5.812   8.057 -1.1120  1.1349 -3.3887
   94CHL1   C23 9421   4.995   5.635   7.937 -1.0863  1.0278  0.1050
   94CHL1  H23A 9422   4.889   5.615   7.912 -1.1075  0.4104  0.6641
   94CHL1  H23B 9423   5.058   5.617   7.848  0.4097 -0.3155  1.3674
   94CHL1   C24 9424   5.030   5.518   8.040  0.0238  0.1752 -0.4473
   94CHL1  H24A 9425   4.998   5.421   7.996 -2.4551  0.4639  0.5460
   94CHL1  H24B 9426   5.140   5.513   8.057 -0.1203  0.1950  0.5467
   94CHL1   C25 9427   4.962   5.535   8.175  0.4794  0.4081  0.2879
   94CHL1   H25 9428   4.987   5.640   8.200  0.4554  0.4890 -0.0210
   94CHL1   C26 9429   4.806   5.532   8.166 -0.6009  1.3272 -0.4410
   94CHL1  H26A 9430   4.769   5.430   8.144 -0.2143  0.6007  1.9568
   94CHL1  H26B 9431   4.757   5.565   8.260  0.8841 -0.2098  0.9438
   94CHL1  H26C 9432   4.774   5.594   8.080  0.1456  0.0260 -1.6937
   94CHL1   C27 9433   5.021   5.446   8.282 -0.4579 -0.3079  0.3892
   94CHL1  H27A 9434   5.017   5.337   8.260  3.8530 -0.1040 -2.7483
   94CHL1  H27B 9435   5.129   5.468   8.293  0.0136 -1.9612 -0.4155
   94CHL1  H27C 9436   4.968   5.459   8.378  1.2096  0.9104  1.1779
   95CHL1    C3 9437   1.999   3.453   6.679  0.5422 -0.7812 -0.2770
   95CHL1    H3 9438   1.960   3.353   6.707 -0.1207 -1.3170 -2.8350
   95CHL1    O3 9439   2.003   3.478   6.543  0.0774 -0.7895  0.0459
   95CHL1   H3' 9440   1.917   3.513   6.520  0.6462  2.4451  2.1716
   95CHL1    C4 9441   1.907   3.558   6.744  0.5567 -0.5373  0.0761
   95CHL1   H4A 9442   1.942   3.659   6.713 -1.6213 -0.1089 -1.2603
   95CHL1   H4B 9443   1.805   3.548   6.701 -1.0591  2.3485  2.8052
   95CHL1    C5 9444   1.903   3.527   6.894 -0.9349 -0.3715 -0.3653
   95CHL1    C6 9445   1.780   3.517   6.954 -0.2625 -0.5051 -0.3642
   95CHL1    H6 9446   1.693   3.541   6.892 -0.9388 -0.1311  0.6888
   95CHL1    C7 9447   1.765   3.507   7.104 -0.0848  0.0570 -0.0776
   95CHL1   H7A 9448   1.686   3.573   7.146 -0.1400 -1.5532  2.5820
   95CHL1   H7B 9449   1.727   3.404   7.123 -0.0236 -0.7064 -3.4807
   95CHL1    C8 9450   1.896   3.521   7.182  0.1706  0.5043 -0.1606
   95CHL1    H8 9451   1.915   3.630   7.193 -0.9736  0.7879 -0.8069
   95CHL1   C14 9452   1.888   3.457   7.321  0.1113 -0.4098  0.6865
   95CHL1   H14 9453   1.874   3.347   7.312  2.5401 -1.0321  3.0166
   95CHL1   C15 9454   1.762   3.495   7.401 -0.0884 -0.8058  0.0709
   95CHL1  H15A 9455   1.751   3.605   7.391 -0.6904 -0.8974 -0.3181
   95CHL1  H15B 9456   1.674   3.439   7.364 -0.1656 -1.3499  1.0340
   95CHL1   C16 9457   1.801   3.444   7.542  0.5390 -0.0461  0.4228
   95CHL1  H16A 9458   1.793   3.532   7.610 -2.5753  1.4714 -1.6465
   95CHL1  H16B 9459   1.738   3.358   7.571  0.7232 -0.6342 -0.8354
   95CHL1   C17 9460   1.947   3.387   7.532  0.1964 -0.0630  0.5801
   95CHL1   H17 9461   1.946   3.278   7.515 -1.8481  0.0484 -0.3559
   95CHL1   C13 9462   2.008   3.462   7.405  0.4843 -0.0851 -0.6915
   95CHL1   C18 9463   2.056   3.608   7.443  0.4990 -0.0982 -0.1682
   95CHL1  H18A 9464   2.060   3.680   7.359  0.9247  2.8509  2.2218
   95CHL1  H18B 9465   1.980   3.651   7.512  0.2046  0.7765 -1.0323
   95CHL1  H18C 9466   2.158   3.623   7.484 -0.4836  1.3589  1.9654
   95CHL1   C12 9467   2.117   3.380   7.323  0.5932 -1.0614 -0.0611
   95CHL1  H12A 9468   2.209   3.366   7.383  0.1813 -2.5598  0.2469
   95CHL1  H12B 9469   2.074   3.281   7.298 -1.4628 -0.1606 -0.3314
   95CHL1   C11 9470   2.146   3.457   7.193  0.5747  0.4273  0.5338
   95CHL1  H11A 9471   2.178   3.560   7.219  0.4923  1.1412 -1.9179
   95CHL1  H11B 9472   2.230   3.413   7.134  0.8375  0.0257  1.1995
   95CHL1    C9 9473   2.016   3.459   7.110 -0.1645  0.0594  0.3130
   95CHL1    H9 9474   1.982   3.354   7.096  1.2089 -0.5960  1.6575
   95CHL1   C10 9475   2.037   3.517   6.970 -0.0698 -0.1117 -0.0841
   95CHL1   C19 9476   2.104   3.659   6.985  0.2193  0.3522  0.0098
   95CHL1  H19A 9477   2.198   3.659   7.044  0.2340 -0.3880 -0.0116
   95CHL1  H19B 9478   2.117   3.718   6.891  1.9580 -1.1799 -0.7751
   95CHL1  H19C 9479   2.032   3.716   7.048  1.1834  0.6434  0.8697
   95CHL1    C1 9480   2.137   3.420   6.893  0.2943 -1.1195 -0.3488
   95CHL1   H1A 9481   2.242   3.439   6.924  0.1718 -1.1629  0.1008
   95CHL1   H1B 9482   2.095   3.321   6.922 -0.5607 -0.8495 -0.6514
   95CHL1    C2 9483   2.143   3.448   6.745 -0.1509  0.4115  0.0554
   95CHL1   H2A 9484   2.196   3.370   6.687 -2.0170 -0.4735 -0.5322
   95CHL1   H2B 9485   2.191   3.548   6.739  0.1549  0.3050  0.5769
   95CHL1   C20 9486   2.033   3.406   7.662 -0.0436 -0.2413  0.3857
   95CHL1   H20 9487   2.056   3.514   7.678  1.5483 -0.5024  0.0452
   95CHL1   C21 9488   2.179   3.354   7.661 -0.3515  1.0539 -0.3244
   95CHL1  H21A 9489   2.241   3.397   7.580 -0.3868 -0.7375 -1.3371
   95CHL1  H21B 9490   2.179   3.243   7.663  0.9558  1.0393 -0.6068
   95CHL1  H21C 9491   2.233   3.388   7.752 -1.8018  0.2346  0.8900
   95CHL1   C22 9492   1.960   3.352   7.781 -0.5257 -0.0325 -0.8630
   95CHL1  H22A 9493   1.850   3.356   7.767 -0.6439 -1.1409 -0.3951
   95CHL1  H22B 9494   1.989   3.249   7.813  0.7821  1.2639  2.5905
   95CHL1   C23 9495   1.995   3.426   7.913  0.3152 -0.5391 -0.8277
   95CHL1  H23A 9496   2.105   3.439   7.912  0.3775 -0.2860  2.0209
   95CHL1  H23B 9497   1.955   3.530   7.917  2.9413  0.5158 -0.1158
   95CHL1   C24 9498   1.960   3.350   8.038 -0.0057  0.0944  0.0851
   95CHL1  H24A 9499   1.856   3.387   8.049 -0.7664 -1.6585 -0.8917
   95CHL1  H24B 9500   1.947   3.241   8.026  0.1967  0.2357 -1.7429
   95CHL1   C25 9501   2.030   3.385   8.175  0.0956  0.1248 -0.3945
   95CHL1   H25 9502   2.130   3.340   8.159  0.5336  1.1310 -0.5320
   95CHL1   C26 9503   2.057   3.533   8.199  0.1157  1.5100  0.3775
   95CHL1  H26A 9504   2.107   3.559   8.295 -0.2623 -1.0690  1.3583
   95CHL1  H26B 9505   2.112   3.579   8.115  0.9418  0.5529  0.3812
   95CHL1  H26C 9506   1.954   3.576   8.202 -1.8587 -2.6781  0.0187
   95CHL1   C27 9507   1.956   3.322   8.293  0.3435  0.2433 -0.6126
   95CHL1  H27A 9508   1.852   3.361   8.298 -0.8481 -2.6024 -0.7375
   95CHL1  H27B 9509   1.958   3.210   8.290  0.1209  0.0765  2.3766
   95CHL1  H27C 9510   2.017   3.349   8.382  1.0005  0.2608 -1.0603
   96CHL1    C3 9511   2.509   1.703   6.819 -0.2792  0.6572  0.0117
   96CHL1    H3 9512   2.401   1.695   6.845 -0.5382 -1.3529 -1.4739
   96CHL1    O3 9513   2.521   1.702   6.677 -0.9209 -0.0898 -0.2665
   96CHL1   H3' 9514   2.572   1.781   6.656 -1.8022  0.5622  0.0110
   96CHL1    C4 9515   2.572   1.837   6.862 -0.0445 -0.0289  0.2489
   96CHL1   H4A 9516   2.674   1.849   6.819  0.2910  0.5362  1.1711
   96CHL1   H4B 9517   2.509   1.915   6.812 -1.5244 -0.5543  1.2145
   96CHL1    C5 9518   2.577   1.844   7.018  0.8162 -0.2051  0.0515
   96CHL1    C6 9519   2.508   1.939   7.079 -0.3808 -0.5560  0.1133
   96CHL1    H6 9520   2.453   2.012   7.019  0.4288  0.1530  0.2032
   96CHL1    C7 9521   2.502   1.960   7.226  0.3195  0.8419 -0.2561
   96CHL1   H7A 9522   2.526   2.063   7.259 -2.2494  1.4943 -0.2849
   96CHL1   H7B 9523   2.405   1.928   7.269  0.4650  0.8387  0.0758
   96CHL1    C8 9524   2.621   1.881   7.301  0.2679 -0.6488  0.1600
   96CHL1    H8 9525   2.709   1.946   7.281 -2.1931  2.1373 -2.5456
   96CHL1   C14 9526   2.593   1.863   7.450 -0.3104  0.9096 -0.4120
   96CHL1   H14 9527   2.505   1.797   7.462 -0.5256  1.6131  2.5580
   96CHL1   C15 9528   2.556   1.985   7.525 -0.7631 -1.0974  0.2101
   96CHL1  H15A 9529   2.632   2.059   7.492 -1.0296  0.7108  3.2875
   96CHL1  H15B 9530   2.454   2.025   7.507 -1.2109 -2.3602 -0.2143
   96CHL1   C16 9531   2.587   1.933   7.673 -0.4365  0.2215 -0.5729
   96CHL1  H16A 9532   2.638   2.016   7.725 -1.3047  1.8593 -2.2413
   96CHL1  H16B 9533   2.487   1.911   7.717 -0.2291 -0.8869 -0.6071
   96CHL1   C17 9534   2.664   1.798   7.666 -0.5271 -0.3835  0.3712
   96CHL1   H17 9535   2.584   1.721   7.668 -0.8665 -0.1136 -1.5286
   96CHL1   C13 9536   2.712   1.793   7.526  0.0043 -0.2401  0.3086
   96CHL1   C18 9537   2.853   1.871   7.516  0.0842 -0.1349  0.2164
   96CHL1  H18A 9538   2.837   1.974   7.555  1.6053  0.2077  0.0221
   96CHL1  H18B 9539   2.941   1.833   7.573 -0.5766  1.1221  2.1740
   96CHL1  H18C 9540   2.882   1.884   7.409  0.6156  2.4620  0.6028
   96CHL1   C12 9541   2.724   1.656   7.462 -0.4749 -0.2424  0.1153
   96CHL1  H12A 9542   2.815   1.605   7.501  0.1860 -0.6933 -1.8909
   96CHL1  H12B 9543   2.646   1.584   7.494  1.1272 -1.5249  1.3521
   96CHL1   C11 9544   2.740   1.649   7.309  0.0303 -0.4756  0.2330
   96CHL1  H11A 9545   2.841   1.696   7.300 -1.1714  1.8744 -2.7750
   96CHL1  H11B 9546   2.746   1.547   7.266 -0.2039 -1.4713  2.4204
   96CHL1    C9 9547   2.630   1.740   7.236 -0.3573 -0.2385 -0.1007
   96CHL1    H9 9548   2.534   1.693   7.267  0.2043 -0.9554  0.5872
   96CHL1   C10 9549   2.646   1.736   7.083 -0.4752  0.3644 -0.2937
   96CHL1   C19 9550   2.794   1.748   7.047 -0.1395  0.3143  0.4720
   96CHL1  H19A 9551   2.815   1.772   6.940 -0.6330  2.2256  0.7700
   96CHL1  H19B 9552   2.851   1.830   7.095  1.6006  1.0950 -2.6345
   96CHL1  H19C 9553   2.841   1.651   7.073 -0.1480 -0.0704 -0.8691
   96CHL1    C1 9554   2.599   1.598   7.036 -0.2419 -0.2159 -0.1682
   96CHL1   H1A 9555   2.674   1.524   7.071 -0.8413 -0.4755  0.5864
   96CHL1   H1B 9556   2.496   1.571   7.065 -0.6996  0.4875 -1.0871
   96CHL1    C2 9557   2.589   1.589   6.887 -0.0915  0.2230 -0.4449
   96CHL1   H2A 9558   2.539   1.495   6.856  0.6523 -0.0245 -0.9142
   96CHL1   H2B 9559   2.690   1.589   6.840 -0.8953  0.2692 -2.2796
   96CHL1   C20 9560   2.754   1.778   7.788 -0.4104  0.0736 -0.2601
   96CHL1   H20 9561   2.832   1.857   7.783  0.1217 -0.2753  1.6139
   96CHL1   C21 9562   2.830   1.636   7.790  0.1757  0.0946  0.3049
   96CHL1  H21A 9563   2.865   1.589   7.884 -0.9363 -2.4406 -0.4515
   96CHL1  H21B 9564   2.912   1.649   7.716 -0.0732  1.9034  0.3118
   96CHL1  H21C 9565   2.761   1.566   7.739 -0.8150  2.2467 -1.4743
   96CHL1   C22 9566   2.681   1.802   7.926 -0.2749  0.4248  0.2080
   96CHL1  H22A 9567   2.767   1.808   7.997  0.4941  0.1909 -0.6844
   96CHL1  H22B 9568   2.628   1.899   7.922 -1.5269 -0.2365  0.1803
   96CHL1   C23 9569   2.575   1.693   7.957  0.6527 -0.1186  0.5541
   96CHL1  H23A 9570   2.485   1.699   7.891  0.5390 -1.8136  0.5141
   96CHL1  H23B 9571   2.626   1.595   7.948 -0.7553 -0.9887  1.6285
   96CHL1   C24 9572   2.518   1.705   8.097  0.4311  0.1011 -0.0610
   96CHL1  H24A 9573   2.482   1.810   8.097 -1.8427 -0.6404  0.1352
   96CHL1  H24B 9574   2.430   1.640   8.115  1.8999 -1.9177  0.1413
   96CHL1   C25 9575   2.617   1.699   8.208 -0.8240  0.3807 -0.6748
   96CHL1   H25 9576   2.709   1.756   8.181  0.4013 -1.6573 -0.9731
   96CHL1   C26 9577   2.570   1.779   8.330  0.6366 -0.4010  0.0224
   96CHL1  H26A 9578   2.570   1.889   8.311 -0.2483 -0.5175 -0.7484
   96CHL1  H26B 9579   2.463   1.760   8.352 -0.1004  2.7126 -0.3374
   96CHL1  H26C 9580   2.638   1.755   8.414  1.2904 -1.4855 -0.7909
   96CHL1   C27 9581   2.662   1.561   8.245 -0.0124 -0.1751  0.1770
   96CHL1  H27A 9582   2.588   1.484   8.276  0.9576 -1.5413 -0.7829
   96CHL1  H27B 9583   2.702   1.515   8.152  0.8463  0.0710  0.4228
   96CHL1  H27C 9584   2.738   1.560   8.326  1.1786 -0.4737 -0.9105
   97OSM      N 9585   0.221   5.068  11.485  0.7614  0.1708 -0.3943
   97OSM    C15 9586   0.089   5.134  11.486  0.1533 -0.4686 -0.5044
   97OSM   H15A 9587   0.014   5.060  11.510  0.3395 -0.8188 -1.0007
   97OSM   H15B 9588   0.073   5.172  11.387  2.2013 -1.0705 -1.1244
   97OSM   H15C 9589   0.085   5.208  11.564  0.2873 -0.1984 -0.7524
   97OSM    C14 9590   0.330   5.167  11.490 -0.3233  0.9143  0.2232
   97OSM   H14A 9591   0.340   5.215  11.394  0.2222  0.5789  0.1111
   97OSM   H14B 9592   0.415   5.108  11.522 -1.5517 -2.2867 -1.9495
   97OSM   H14C 9593   0.303   5.239  11.566  0.5203  1.6947 -0.1932
   97OSM    C13 9594   0.220   4.983  11.616 -0.2414  0.0437  0.0991
   97OSM   H13A 9595   0.211   5.054  11.698 -0.2246 -1.0573  1.0792
   97OSM   H13B 9596   0.307   4.920  11.626  0.3595  0.5063 -1.8735
   97OSM   H13C 9597   0.139   4.913  11.626  0.3424 -0.3748  2.6139
   97OSM    C12 9598   0.227   4.971  11.371 -0.2091 -0.0417  0.1005
   97OSM   H12A 9599   0.165   4.884  11.388 -0.6574  0.3391  0.4269
   97OSM   H12B 9600   0.331   4.947  11.355 -0.3847 -0.5143 -0.3697
   97OSM    C11 9601   0.196   5.027  11.227  0.2106  0.1781  0.4628
   97OSM   H11A 9602   0.094   5.003  11.191  0.9250  0.2650 -1.7830
   97OSM   H11B 9603   0.259   4.970  11.155  0.8678  1.0635  0.3123
   97OSM      P 9604   0.174   5.266  11.110  0.4910 -0.0023  0.0903
   97OSM    O13 9605   0.027   5.276  11.145  0.3169  0.2044 -0.7247
   97OSM    O14 9606   0.251   5.390  11.104  0.0602  1.0593 -0.4938
   97OSM    O11 9607   0.194   5.180  10.984  0.3690  0.5632  0.5643
   97OSM    O12 9608   0.232   5.167  11.219 -0.2692  0.2572  0.6543
   97OSM    C1S 9609   0.122   5.224  10.863  0.5942  0.1461  0.1209
   97OSM    H1S 9610   0.155   5.325  10.830 -1.4973  0.6531 -0.5736
   97OSM    H1T 9611   0.013   5.240  10.876  0.5201 -0.1255 -0.1337
   97OSM     NF 9612   0.048   5.160  10.640  0.0690  0.8290  0.0094
   97OSM    HNF 9613  -0.049   5.179  10.657  0.0053  0.5984 -0.0890
   97OSM    C2S 9614   0.126   5.114  10.753 -0.3126 -0.4096  0.0808
   97OSM    H2S 9615   0.232   5.124  10.721 -1.0603  2.8870 -1.7972
   97OSM    C3S 9616   0.083   4.970  10.798 -0.7544 -0.6847 -0.7085
   97OSM    H3S 9617  -0.024   4.987  10.822 -0.4716 -1.3072  1.1694
   97OSM     O3 9618   0.148   4.929  10.919 -0.3799  0.8079 -0.4355
   97OSM    HO3 9619   0.186   5.011  10.952  4.0019 -0.9984 -0.2329
   97OSM    C4S 9620   0.116   4.877  10.689  0.4892 -0.5906 -0.9385
   97OSM    H4S 9621   0.218   4.880  10.650  0.0019  1.7660 -2.1928
   97OSM    C5S 9622   0.028   4.791  10.636  0.1810 -0.4010 -0.1767
   97OSM    H5S 9623  -0.076   4.805  10.669  1.0902  1.0137  2.4088
   97OSM    C6S 9624   0.062   4.693  10.524  0.7100 -0.2399 -0.4233
   97OSM    H6S 9625  -0.030   4.637  10.498 -1.2005  1.3800  2.3670
   97OSM    H6T 9626   0.133   4.622  10.572  0.6356  1.8741  3.1360
   97OSM    C7S 9627   0.113   4.756  10.394  0.4548 -0.5850  0.4735
   97OSM    H7S 9628   0.198   4.827  10.399 -0.1809  0.1626  0.9919
   97OSM    H7T 9629   0.025   4.812  10.355  1.5707 -0.4024 -1.9536
   97OSM    C8S 9630   0.139   4.646  10.290  0.0716 -0.0808 -0.1380
   97OSM    H8S 9631   0.041   4.608  10.255 -0.7423 -0.5631  2.4742
   97OSM    H8T 9632   0.190   4.556  10.331 -0.7570 -0.7849 -0.6175
   97OSM    C9S 9633   0.234   4.704  10.181 -0.0101 -0.7751 -0.2441
   97OSM    H9S 9634   0.337   4.730  10.214 -0.2012  0.3205 -0.4678
   97OSM    H9T 9635   0.188   4.801  10.151  2.0167  1.0902  2.1872
   97OSM   C10S 9636   0.244   4.604  10.065 -1.3849 -0.2155  0.5884
   97OSM   H10S 9637   0.154   4.539  10.055 -2.0272  0.7913 -0.3619
   97OSM   H10T 9638   0.329   4.535  10.084 -0.8936  0.4225  0.7403
   97OSM   C11S 9639   0.276   4.680   9.942 -0.0738  0.3240  0.9615
   97OSM   H11S 9640   0.385   4.689   9.925 -0.0254 -2.1442 -0.5253
   97OSM   H11T 9641   0.232   4.782   9.954 -4.2024 -1.4465  2.8636
   97OSM   C12S 9642   0.202   4.635   9.812  0.2164 -0.3824 -0.2044
   97OSM   H12S 9643   0.095   4.645   9.840  0.5262  0.3617  0.7863
   97OSM   H12T 9644   0.215   4.528   9.786 -0.9660 -0.6837  0.3485
   97OSM   C13S 9645   0.237   4.730   9.699 -0.7531  0.1036 -0.4719
   97OSM   H13S 9646   0.336   4.688   9.671  0.5274  1.8010  1.1867
   97OSM   H13T 9647   0.252   4.837   9.727  1.1911  0.2343 -1.8301
   97OSM   C14S 9648   0.130   4.747   9.589 -0.1690  0.2682  0.6329
   97OSM   H14S 9649   0.054   4.818   9.630 -0.0647  1.4579 -1.1560
   97OSM   H14T 9650   0.085   4.649   9.562 -0.5564  0.9662 -1.4066
   97OSM   C15S 9651   0.190   4.811   9.472  0.1589  0.2129  0.2713
   97OSM   H15S 9652   0.262   4.736   9.431 -1.3717 -0.8155 -0.6661
   97OSM   H15T 9653   0.259   4.892   9.503  0.1622 -0.9814  3.7668
   97OSM   C16S 9654   0.082   4.846   9.372 -1.3766  0.3857  0.3510
   97OSM   H16S 9655   0.123   4.923   9.303 -0.2007  0.4038  1.0369
   97OSM   H16T 9656  -0.000   4.884   9.437 -0.7105  0.4316  1.1961
   97OSM   C17S 9657   0.025   4.736   9.286  0.1034 -0.9214 -0.4842
   97OSM   H17S 9658  -0.036   4.663   9.343 -0.9662  0.0684 -0.3218
   97OSM   H17T 9659   0.116   4.688   9.243 -0.3173 -2.0453 -0.1549
   97OSM   C18S 9660  -0.064   4.771   9.163 -0.2453  0.3653 -0.2984
   97OSM   H18S 9661  -0.053   4.876   9.127 -1.3376  0.1894 -1.2011
   97OSM   H18T 9662  -0.172   4.761   9.188 -0.1016 -1.8415 -0.3550
   97OSM   H18U 9663  -0.039   4.699   9.082 -0.0572  0.2341 -0.1258
   97OSM    C1F 9664   0.101   5.238  10.552 -0.1159 -0.8002  0.0920
   97OSM     OF 9665   0.212   5.282  10.564 -0.0067  0.2043  0.2724
   97OSM    C2F 9666   0.013   5.301  10.459  0.0091 -0.3111 -0.3242
   97OSM    H2F 9667   0.034   5.408  10.480 -0.9364  0.1902 -1.7713
   97OSM    H2G 9668  -0.095   5.284  10.475 -0.3044  0.2418 -1.7278
   97OSM    C3F 9669   0.063   5.260  10.322  0.1555 -0.7794 -0.0180
   97OSM    H3F 9670   0.170   5.278  10.301  0.2588 -0.7601  0.5121
   97OSM    H3G 9671  -0.001   5.327  10.261  1.2251 -0.0749 -0.3870
   97OSM    C4F 9672   0.038   5.111  10.292  0.3152 -0.1336 -0.2918
   97OSM    H4F 9673  -0.047   5.071  10.351 -1.1962 -0.0996 -2.3273
   97OSM    H4G 9674   0.131   5.059  10.321 -0.0924 -0.6982  0.0268
   97OSM    C5F 9675  -0.012   5.088  10.149  0.1362 -0.5085  0.0276
   97OSM    H5F 9676  -0.121   5.107  10.145  0.7096  3.5607 -0.5442
   97OSM    H5G 9677  -0.001   4.979  10.126 -2.2555 -0.9520  0.7434
   97OSM    C6F 9678   0.056   5.165  10.034 -0.2009  0.1179  0.4313
   97OSM    H6F 9679   0.163   5.150  10.058  0.3381 -0.0047 -1.7887
   97OSM    H6G 9680   0.035   5.274  10.028  0.5012  0.2486  0.1747
   97OSM    C7F 9681   0.032   5.109   9.893  0.3901  0.5199  0.3256
   97OSM    H7F 9682  -0.075   5.083   9.880  0.6340  0.2183 -1.3479
   97OSM    H7G 9683   0.091   5.014   9.893  0.1667  0.3690 -0.7508
   97OSM    C8F 9684   0.099   5.201   9.783 -0.0625  0.4525 -0.2910
   97OSM    H8F 9685   0.201   5.222   9.822  0.2324 -3.6836  1.7103
   97OSM    H8G 9686   0.032   5.289   9.778 -1.6404 -0.7276 -0.7116
   97OSM    C9F 9687   0.113   5.132   9.649 -0.8572 -0.3963  0.3977
   97OSM    H9F 9688   0.160   5.033   9.650  0.1969  0.0774 -0.5699
   97OSM   C10F 9689   0.070   5.168   9.531  0.7247  0.7439 -0.3140
   97OSM   H10F 9690   0.093   5.103   9.445 -0.4125 -0.5698  0.3497
   97OSM   C11F 9691   0.001   5.298   9.503  0.2838  0.6591  0.1676
   97OSM   H11F 9692  -0.050   5.324   9.598 -0.0868 -0.1931  0.2086
   97OSM   H11G 9693  -0.089   5.283   9.439 -0.3205  2.6802  0.4734
   97OSM   C12F 9694   0.101   5.414   9.474  0.2607 -0.7447  0.2588
   97OSM   H12F 9695   0.170   5.430   9.560 -1.9230  1.1997  1.7903
   97OSM   H12G 9696   0.046   5.508   9.449 -0.3177 -1.3888 -0.9715
   97OSM   C13F 9697   0.185   5.399   9.344  0.3299  0.3119 -0.0091
   97OSM   H13F 9698   0.233   5.298   9.343  0.0614  0.1888 -0.5337
   97OSM   H13G 9699   0.255   5.485   9.349  2.4570 -1.0901 -2.6547
   97OSM   C14F 9700   0.107   5.420   9.213 -0.4788 -0.0945 -0.3478
   97OSM   H14F 9701   0.008   5.372   9.219 -0.6103  0.1781 -0.3307
   97OSM   H14G 9702   0.162   5.387   9.122  3.0424 -0.9491  1.8440
   97OSM   C15F 9703   0.073   5.571   9.185  0.8918  0.3018 -0.2176
   97OSM   H15F 9704   0.162   5.637   9.195 -1.0704  2.7689  2.9149
   97OSM   H15G 9705  -0.002   5.596   9.263  0.7296 -0.9710  0.0646
   97OSM   C16F 9706  -0.008   5.599   9.055  0.0589 -0.0811  0.8293
   97OSM   H16F 9707  -0.101   5.539   9.043 -0.4654  1.0970 -1.4416
   97OSM   H16G 9708   0.054   5.580   8.966  0.4916  0.0938  1.0902
   97OSM   C17F 9709  -0.052   5.743   9.041 -0.4099 -0.2477 -0.3082
   97OSM   H17F 9710   0.036   5.810   9.049  0.1338 -0.7483 -1.6661
   97OSM   H17G 9711  -0.118   5.764   9.128 -0.3937  0.0301 -0.3628
   97OSM   C18F 9712  -0.131   5.771   8.910  0.0504  0.7013 -0.1569
   97OSM   H18F 9713  -0.144   5.879   8.888  1.3174  0.6071 -1.5338
   97OSM   H18G 9714  -0.231   5.722   8.907 -0.4399  1.6962 -2.3880
   97OSM   H18H 9715  -0.071   5.741   8.821  0.4843 -1.2784  0.7332
   98OSM      N 9716   6.254   3.664  11.024  0.1122  0.2061  0.4223
   98OSM    C15 9717   6.208   3.617  11.157 -0.1684 -0.1714  0.0739
   98OSM   H15A 9718   6.265   3.534  11.197 -0.5943  0.9623  3.3794
   98OSM   H15B 9719   6.109   3.575  11.145 -0.0863 -0.0155 -1.1935
   98OSM   H15C 9720   6.210   3.693  11.234  1.6731  0.8995 -0.9827
   98OSM    C14 9721   6.162   3.771  10.976  0.1041  0.3778  0.1728
   98OSM   H14A 9722   6.064   3.735  10.950 -0.9376  3.8619 -1.1967
   98OSM   H14B 9723   6.203   3.817  10.887 -0.6661 -2.2072 -1.6413
   98OSM   H14C 9724   6.144   3.844  11.053 -0.5894 -1.6835  2.0509
   98OSM    C13 9725   6.389   3.728  11.047 -0.2971  0.4091 -0.1463
   98OSM   H13A 9726   6.459   3.662  11.095 -2.1463 -0.9850  0.7479
   98OSM   H13B 9727   6.388   3.824  11.097  0.6850  1.4285 -1.9691
   98OSM   H13C 9728   6.424   3.741  10.946 -0.9840 -0.6544 -0.5383
   98OSM    C12 9729   6.261   3.550  10.929 -0.6072  0.2234  0.4679
   98OSM   H12A 9730   6.163   3.507  10.913  0.9085 -3.2806 -0.5300
   98OSM   H12B 9731   6.331   3.478  10.969  0.9538  0.2781 -1.9384
   98OSM    C11 9732   6.327   3.585  10.792 -0.0628 -0.1231 -0.0790
   98OSM   H11A 9733   6.274   3.676  10.759 -1.2083 -0.3635  1.0082
   98OSM   H11B 9734   6.293   3.515  10.713 -0.7395  0.5855 -0.4231
   98OSM      P 9735   6.586   3.514  10.809  0.2062  0.3501 -0.3444
   98OSM    O13 9736   6.710   3.553  10.739  0.0640  0.3104  0.9242
   98OSM    O14 9737   6.597   3.484  10.956 -0.0520 -0.2756 -0.3001
   98OSM    O11 9738   6.541   3.375  10.744  0.2826 -0.2075 -0.7386
   98OSM    O12 9739   6.466   3.610  10.787  0.0582  0.3010 -0.2776
   98OSM    C1S 9740   6.533   3.380  10.598  0.0456 -0.5784 -0.0254
   98OSM    H1S 9741   6.636   3.354  10.566  0.0970 -2.4800  1.5528
   98OSM    H1T 9742   6.497   3.474  10.551  0.2714 -0.5200 -0.0850
   98OSM     NF 9743   6.460   3.267  10.391 -0.4318 -0.1374 -0.1865
   98OSM    HNF 9744   6.374   3.288  10.346  0.4601  0.5519 -1.6468
   98OSM    C2S 9745   6.458   3.263  10.534  0.4015 -0.1637 -0.5717
   98OSM    H2S 9746   6.505   3.166  10.561 -1.1232 -1.0338 -0.8925
   98OSM    C3S 9747   6.319   3.261  10.597  0.1355 -0.2650  0.5531
   98OSM    H3S 9748   6.281   3.364  10.583 -0.4841 -0.6771 -0.9535
   98OSM     O3 9749   6.312   3.218  10.733  0.0421 -0.8837  0.1666
   98OSM    HO3 9750   6.391   3.253  10.774  0.2490 -0.1283 -0.8539
   98OSM    C4S 9751   6.226   3.163  10.525  0.1529 -0.0384  0.1009
   98OSM    H4S 9752   6.267   3.062  10.510  0.7287  0.2073 -0.0023
   98OSM    C5S 9753   6.103   3.191  10.480 -0.5250 -0.3144 -0.9280
   98OSM    H5S 9754   6.070   3.295  10.490 -0.9166 -0.5545  0.4855
   98OSM    C6S 9755   6.005   3.103  10.407 -0.7203  0.9481  0.2647
   98OSM    H6S 9756   5.905   3.136  10.441 -0.6078  1.2948  0.2554
   98OSM    H6T 9757   6.003   2.993  10.427 -2.6530  0.9810  0.4239
   98OSM    C7S 9758   6.015   3.131  10.253  0.1296  0.0011 -0.4117
   98OSM    H7S 9759   6.008   3.237  10.222  0.1186 -0.4440 -1.9964
   98OSM    H7T 9760   5.930   3.085  10.198  1.0629 -1.9442 -0.3240
   98OSM    C8S 9761   6.140   3.066  10.186  0.1695 -0.4508  0.4484
   98OSM    H8S 9762   6.159   2.961  10.217 -0.9144  0.0795  3.1641
   98OSM    H8T 9763   6.232   3.113  10.227  0.4049  1.6054 -2.1607
   98OSM    C9S 9764   6.147   3.083  10.031 -0.2576 -0.0999  0.3982
   98OSM    H9S 9765   6.158   3.190  10.002  1.3678 -0.1139  0.8419
   98OSM    H9T 9766   6.045   3.066   9.992 -0.3500  0.4420  0.3999
   98OSM   C10S 9767   6.260   3.007   9.966  0.5823 -0.2363 -0.0268
   98OSM   H10S 9768   6.261   2.899   9.995  0.9126 -0.7929 -1.9595
   98OSM   H10T 9769   6.358   3.051   9.995  0.4800 -1.0453  1.6967
   98OSM   C11S 9770   6.256   3.022   9.813 -0.2607 -0.2195 -0.3812
   98OSM   H11S 9771   6.245   3.130   9.789 -1.2354 -0.4331 -0.9741
   98OSM   H11T 9772   6.158   2.977   9.785  1.1817 -2.4594 -2.1553
   98OSM   C12S 9773   6.359   2.943   9.734 -0.2201 -0.2241 -0.3094
   98OSM   H12S 9774   6.325   2.838   9.727  1.0530 -0.8390  1.8441
   98OSM   H12T 9775   6.454   2.941   9.792  0.8369 -3.6165 -1.9170
   98OSM   C13S 9776   6.372   3.010   9.597  0.2839  0.4052 -0.4575
   98OSM   H13S 9777   6.414   3.113   9.599 -0.6754  0.8020  0.6234
   98OSM   H13T 9778   6.268   3.027   9.561  0.9476  0.1415 -2.6060
   98OSM   C14S 9779   6.437   2.922   9.488  0.5283 -0.6009  0.8025
   98OSM   H14S 9780   6.365   2.891   9.409  1.0293  0.9321 -0.3054
   98OSM   H14T 9781   6.483   2.835   9.540  2.8951  0.3086  0.3786
   98OSM   C15S 9782   6.552   2.991   9.410  0.3237 -0.6408  0.5841
   98OSM   H15S 9783   6.613   2.927   9.342 -1.1484 -0.0364 -1.3975
   98OSM   H15T 9784   6.619   3.033   9.488  1.7998  1.0925 -1.5114
   98OSM   C16S 9785   6.496   3.104   9.322  0.2154 -0.1668 -0.7922
   98OSM   H16S 9786   6.584   3.159   9.282  1.4350 -0.8940  0.7785
   98OSM   H16T 9787   6.435   3.169   9.388  4.2252 -0.6527  3.9667
   98OSM   C17S 9788   6.415   3.056   9.198  0.2907  0.2579 -0.2743
   98OSM   H17S 9789   6.306   3.040   9.214  0.2514 -0.6890 -1.4214
   98OSM   H17T 9790   6.463   2.963   9.163  2.1547  1.7187 -1.7881
   98OSM   C18S 9791   6.426   3.148   9.079  0.5711  0.3468  0.2911
   98OSM   H18S 9792   6.411   3.255   9.104 -2.3941  0.2387 -0.6402
   98OSM   H18T 9793   6.355   3.122   8.999 -2.0784  2.1548  1.8877
   98OSM   H18U 9794   6.527   3.146   9.032  0.0619  0.2374 -0.8164
   98OSM    C1F 9795   6.573   3.227  10.329  0.5397  0.1562  0.0866
   98OSM     OF 9796   6.653   3.165  10.392 -0.3193  0.6588  0.2342
   98OSM    C2F 9797   6.586   3.274  10.188  0.0169  0.5376  0.0476
   98OSM    H2F 9798   6.647   3.365  10.171  0.5295  0.4199  1.1536
   98OSM    H2G 9799   6.482   3.299  10.159  0.2535  0.9553 -0.4518
   98OSM    C3F 9800   6.645   3.159  10.096  0.3711 -0.1916 -0.6995
   98OSM    H3F 9801   6.567   3.080  10.098 -0.2381  0.3138  2.8640
   98OSM    H3G 9802   6.739   3.122  10.141  0.1500 -1.3533 -1.1550
   98OSM    C4F 9803   6.680   3.206   9.959 -0.4801  0.0314  0.6452
   98OSM    H4F 9804   6.755   3.286   9.972 -1.6616  1.4905 -0.9774
   98OSM    H4G 9805   6.584   3.236   9.910 -1.2092 -1.7070  0.9398
   98OSM    C5F 9806   6.750   3.095   9.874 -0.2519  0.1946  0.3095
   98OSM    H5F 9807   6.688   3.004   9.880  0.2470 -0.2788 -1.3904
   98OSM    H5G 9808   6.854   3.072   9.905 -0.2610 -0.7049 -0.3076
   98OSM    C6F 9809   6.776   3.115   9.719  0.4000  0.3230 -0.5092
   98OSM    H6F 9810   6.687   3.167   9.678 -0.1115  0.1917  0.3999
   98OSM    H6G 9811   6.776   3.014   9.673  1.8572  0.7176 -1.4528
   98OSM    C7F 9812   6.910   3.187   9.676 -0.3536  1.0321 -0.0579
   98OSM    H7F 9813   7.003   3.135   9.706 -0.3578 -0.0448 -1.7556
   98OSM    H7G 9814   6.918   3.291   9.715 -0.8958  0.8976  0.4221
   98OSM    C8F 9815   6.913   3.202   9.518 -0.3777  0.0198 -0.9507
   98OSM    H8F 9816   6.988   3.280   9.493  1.6011 -0.7157  2.0431
   98OSM    H8G 9817   6.813   3.238   9.489 -0.9662  0.4892  1.4528
   98OSM    C9F 9818   6.944   3.082   9.440  0.2598 -0.2508  0.4246
   98OSM    H9F 9819   6.981   3.005   9.509 -0.5326  0.3802  1.5826
   98OSM   C10F 9820   6.942   3.060   9.307  0.4621 -0.4581 -0.6297
   98OSM   H10F 9821   6.984   2.967   9.266  2.3250  0.6971 -1.4722
   98OSM   C11F 9822   6.899   3.164   9.209  0.8153  1.0665  0.2506
   98OSM   H11F 9823   6.865   3.259   9.256 -2.4742  0.5343 -0.8131
   98OSM   H11G 9824   6.802   3.135   9.163  1.2552  1.3282 -0.8765
   98OSM   C12F 9825   6.995   3.195   9.096  0.1036  0.1693 -0.6776
   98OSM   H12F 9826   7.090   3.241   9.132  0.8781 -1.0010 -1.1866
   98OSM   H12G 9827   6.941   3.272   9.036 -0.4622  0.6418  0.4229
   98OSM   C13F 9828   7.011   3.062   9.012 -0.0309 -0.0755 -0.4753
   98OSM   H13F 9829   6.916   3.040   8.958  1.5090 -0.5937 -3.1846
   98OSM   H13G 9830   7.044   2.979   9.077  1.4635  0.8416 -0.0084
   98OSM   C14F 9831   7.127   3.079   8.903  0.6904 -0.6021 -0.1424
   98OSM   H14F 9832   7.219   3.097   8.962  1.3082 -3.3841 -0.1358
   98OSM   H14G 9833   7.106   3.163   8.833 -0.4430 -0.8218 -0.0832
   98OSM   C15F 9834   7.151   2.960   8.821  0.5589 -0.1432 -0.1683
   98OSM   H15F 9835   7.069   2.944   8.748  2.6535 -3.3891 -2.0497
   98OSM   H15G 9836   7.153   2.877   8.895 -0.1457  0.4373  0.5356
   98OSM   C16F 9837   7.280   2.957   8.741  0.2076  0.9099  0.0144
   98OSM   H16F 9838   7.371   2.953   8.805  0.5583  0.4657 -0.5055
   98OSM   H16G 9839   7.279   3.059   8.696 -2.8662  1.3429  0.8308
   98OSM   C17F 9840   7.287   2.841   8.641 -0.0763 -0.1417 -0.1302
   98OSM   H17F 9841   7.201   2.852   8.572 -0.6797  1.3344  0.8291
   98OSM   H17G 9842   7.284   2.751   8.706  1.0442  1.6441  2.5739
   98OSM   C18F 9843   7.420   2.837   8.560 -0.1391 -0.4983 -0.1811
   98OSM   H18F 9844   7.419   2.754   8.487 -0.6837 -2.0521  1.5186
   98OSM   H18G 9845   7.515   2.828   8.617  0.9657  3.0651 -1.2134
   98OSM   H18H 9846   7.417   2.934   8.505  1.3318  0.1004  0.7366
   99OSM      N 9847   2.250   3.281  11.219  0.2706 -0.1253 -0.4759
   99OSM    C15 9848   2.134   3.253  11.307 -0.1650  0.3284 -0.2613
   99OSM   H15A 9849   2.062   3.196  11.252 -2.1710  1.2317  1.2842
   99OSM   H15B 9850   2.091   3.349  11.333 -0.8344  0.5057 -1.9084
   99OSM   H15C 9851   2.156   3.189  11.391 -0.2907  1.6799  0.8423
   99OSM    C14 9852   2.361   3.329  11.309  0.7780  1.2692 -0.1640
   99OSM   H14A 9853   2.329   3.413  11.369 -0.6975  0.2428  0.5274
   99OSM   H14B 9854   2.436   3.373  11.244  0.6058  1.9100  0.0606
   99OSM   H14C 9855   2.403   3.246  11.363 -0.5525 -0.2862 -1.4220
   99OSM    C13 9856   2.283   3.146  11.161 -0.1120  0.1450 -0.3667
   99OSM   H13A 9857   2.345   3.156  11.073  1.1680 -1.9253  0.2177
   99OSM   H13B 9858   2.193   3.087  11.148 -0.1514 -0.1029  0.8583
   99OSM   H13C 9859   2.336   3.096  11.241 -2.0851 -1.0661  0.2503
   99OSM    C12 9860   2.208   3.390  11.122 -0.0758 -0.6788 -0.2410
   99OSM   H12A 9861   2.187   3.481  11.176 -0.6624  0.3204 -2.0754
   99OSM   H12B 9862   2.115   3.361  11.076 -0.8647  3.5746 -1.8158
   99OSM    C11 9863   2.318   3.413  11.013 -0.2573  0.1357 -0.2861
   99OSM   H11A 9864   2.261   3.470  10.936  1.5790  0.6574 -1.3260
   99OSM   H11B 9865   2.337   3.309  10.976 -0.4617 -0.0639  0.1633
   99OSM      P 9866   2.490   3.615  11.038 -0.1782  0.2841  0.4882
   99OSM    O13 9867   2.381   3.715  11.069  0.2734  0.4365  0.5592
   99OSM    O14 9868   2.622   3.629  11.109 -0.3316 -0.0445 -0.2779
   99OSM    O11 9869   2.514   3.615  10.880 -0.5242  0.8682 -0.0186
   99OSM    O12 9870   2.436   3.472  11.066  0.6811  0.0280  0.5572
   99OSM    C1S 9871   2.612   3.521  10.830 -0.4799  0.3901  0.0778
   99OSM    H1S 9872   2.652   3.448  10.903 -0.6425 -1.0838 -1.2367
   99OSM    H1T 9873   2.707   3.568  10.796 -0.4344  0.1481 -0.1357
   99OSM     NF 9874   2.666   3.355  10.655  0.3181 -0.3483 -0.1077
   99OSM    HNF 9875   2.704   3.381  10.567  1.5774  0.2640  0.5952
   99OSM    C2S 9876   2.566   3.448  10.704  0.0602  0.0635 -0.9053
   99OSM    H2S 9877   2.483   3.379  10.726  1.1737 -1.6990 -1.9609
   99OSM    C3S 9878   2.530   3.542  10.593 -0.1848 -0.2708  0.0558
   99OSM    H3S 9879   2.621   3.592  10.554 -1.8240  0.9011 -2.5015
   99OSM     O3 9880   2.451   3.643  10.645  0.9007  0.4722  0.0680
   99OSM    HO3 9881   2.445   3.629  10.740 -0.2499  0.5558  0.0168
   99OSM    C4S 9882   2.469   3.466  10.478  0.3319 -0.0744  0.3193
   99OSM    H4S 9883   2.545   3.432  10.407 -1.2416  1.8673 -2.4934
   99OSM    C5S 9884   2.335   3.442  10.468  0.4158  0.1187  0.3428
   99OSM    H5S 9885   2.257   3.477  10.538 -0.3340  1.5374 -1.1414
   99OSM    C6S 9886   2.273   3.366  10.352  0.1419 -0.1621 -0.8949
   99OSM    H6S 9887   2.214   3.436  10.290 -0.7552  1.1283  1.2880
   99OSM    H6T 9888   2.205   3.288  10.393  1.5139 -1.5360 -1.1345
   99OSM    C7S 9889   2.366   3.291  10.264  0.7709 -0.1549  0.7671
   99OSM    H7S 9890   2.423   3.210  10.314  0.5446 -1.3758 -0.8674
   99OSM    H7T 9891   2.440   3.359  10.215  0.6889  0.5524  1.6056
   99OSM    C8S 9892   2.279   3.231  10.149  0.1528 -0.3400  0.4630
   99OSM    H8S 9893   2.234   3.320  10.100 -2.0164 -0.9326  1.2986
   99OSM    H8T 9894   2.193   3.172  10.184 -0.4227 -0.6351 -1.3215
   99OSM    C9S 9895   2.364   3.148  10.052  0.7176 -0.4479 -0.4690
   99OSM    H9S 9896   2.422   3.069  10.105  0.6415  0.0426  0.3679
   99OSM    H9T 9897   2.429   3.230  10.013 -1.1699  1.1397 -0.4187
   99OSM   C10S 9898   2.295   3.102   9.925  0.0421  0.4648 -0.2898
   99OSM   H10S 9899   2.272   3.194   9.867 -2.7055  0.4874  0.6725
   99OSM   H10T 9900   2.196   3.056   9.949  1.1198 -1.7112  0.2622
   99OSM   C11S 9901   2.368   2.994   9.844  0.1666  0.7314  0.4127
   99OSM   H11S 9902   2.389   2.912   9.916  1.1272 -1.3889 -2.1147
   99OSM   H11T 9903   2.461   3.030   9.795  0.0392  0.2366 -0.2082
   99OSM   C12S 9904   2.280   2.945   9.727  0.9216  0.3232  0.5754
   99OSM   H12S 9905   2.180   2.913   9.763  1.2890 -1.2747  0.2379
   99OSM   H12T 9906   2.261   3.028   9.655 -2.8320 -1.5842 -0.8907
   99OSM   C13S 9907   2.349   2.832   9.660 -0.4984 -0.2251  0.5296
   99OSM   H13S 9908   2.363   2.747   9.731  1.6107 -0.8569 -0.5623
   99OSM   H13T 9909   2.450   2.861   9.624 -1.1731 -1.5922 -2.8258
   99OSM   C14S 9910   2.268   2.779   9.543  0.2492 -0.1674  0.4626
   99OSM   H14S 9911   2.197   2.858   9.513  1.2531  0.1797 -1.0987
   99OSM   H14T 9912   2.214   2.690   9.583 -0.8388  0.9622  1.5937
   99OSM   C15S 9913   2.362   2.755   9.421  1.0693  0.2046  0.2648
   99OSM   H15S 9914   2.443   2.684   9.448  0.9597 -0.6616 -1.5017
   99OSM   H15T 9915   2.399   2.858   9.402 -0.2096  0.1045 -3.9408
   99OSM   C16S 9916   2.292   2.717   9.284  0.4013  0.3088 -0.0415
   99OSM   H16S 9917   2.200   2.776   9.265 -0.3756 -1.1006 -0.8697
   99OSM   H16T 9918   2.261   2.614   9.310 -1.2072  0.7964  0.0710
   99OSM   C17S 9919   2.377   2.716   9.157 -0.0047  0.0146  0.6983
   99OSM   H17S 9920   2.461   2.648   9.182 -0.1950  0.1100  1.6292
   99OSM   H17T 9921   2.410   2.819   9.133  2.4734 -0.4266  1.9028
   99OSM   C18S 9922   2.301   2.661   9.032  0.2931 -0.1644  0.1508
   99OSM   H18S 9923   2.218   2.732   9.013  0.6833  0.2207 -0.1449
   99OSM   H18T 9924   2.263   2.558   9.041 -2.1307  0.8158  2.3520
   99OSM   H18U 9925   2.365   2.662   8.941 -2.5700  0.1430 -1.9864
   99OSM    C1F 9926   2.706   3.246  10.718 -0.3846 -0.2988  0.4523
   99OSM     OF 9927   2.686   3.227  10.838 -0.0351 -0.4707 -0.9060
   99OSM    C2F 9928   2.783   3.148  10.635  0.1683  0.6291 -0.8100
   99OSM    H2F 9929   2.886   3.173  10.670 -0.6129  1.5141  0.9454
   99OSM    H2G 9930   2.775   3.177  10.528  0.8325  1.1015 -0.7376
   99OSM    C3F 9931   2.730   3.002  10.657 -0.1646  0.1398 -0.3505
   99OSM    H3F 9932   2.799   2.925  10.616 -0.0769  0.4318 -0.7535
   99OSM    H3G 9933   2.732   2.974  10.765  0.9156 -0.1667 -0.4342
   99OSM    C4F 9934   2.593   2.977  10.596 -0.5116  0.0401 -0.3100
   99OSM    H4F 9935   2.520   3.040  10.649 -1.1821 -0.2816 -0.8335
   99OSM    H4G 9936   2.569   2.875  10.633  0.9199 -0.4231 -0.5797
   99OSM    C5F 9937   2.585   2.985  10.446  0.1088 -0.8146  0.2013
   99OSM    H5F 9938   2.603   3.088  10.411 -0.9967 -1.0248 -1.0758
   99OSM    H5G 9939   2.480   2.959  10.420  0.1344 -0.4385 -0.2860
   99OSM    C6F 9940   2.677   2.887  10.368  0.5683  0.5463  0.0843
   99OSM    H6F 9941   2.680   2.789  10.420  1.9136  0.2748 -0.4570
   99OSM    H6G 9942   2.782   2.921  10.371  0.4458  0.9063  0.3182
   99OSM    C7F 9943   2.632   2.874  10.222  0.0452 -0.5309 -0.3306
   99OSM    H7F 9944   2.654   2.972  10.176 -1.0714 -1.1527 -2.2749
   99OSM    H7G 9945   2.522   2.860  10.217  0.1392 -0.8671 -1.8337
   99OSM    C8F 9946   2.701   2.759  10.146  0.0027  0.6162 -0.1586
   99OSM    H8F 9947   2.659   2.749  10.043 -3.3831 -0.4665  1.1925
   99OSM    H8G 9948   2.654   2.666  10.185 -1.9092  0.5848 -2.3608
   99OSM    C9F 9949   2.848   2.738  10.169 -0.8753  0.9335  0.1111
   99OSM    H9F 9950   2.877   2.669  10.250  1.2740  0.2268 -1.1710
   99OSM   C10F 9951   2.948   2.786  10.089  0.3789  0.6378 -0.3917
   99OSM   H10F 9952   3.052   2.770  10.118  0.6077  2.1826 -0.2869
   99OSM   C11F 9953   2.918   2.860   9.964 -0.9014  0.1576  0.3505
   99OSM   H11F 9954   2.985   2.947   9.953  0.6007 -1.0294 -0.2620
   99OSM   H11G 9955   2.817   2.907   9.959 -0.2529  1.5811  0.1248
   99OSM   C12F 9956   2.951   2.778   9.837 -0.1468  0.1025  0.1219
   99OSM   H12F 9957   3.050   2.728   9.842 -0.0172  0.4315  4.3262
   99OSM   H12G 9958   2.944   2.849   9.752  0.8152  2.5783  1.9895
   99OSM   C13F 9959   2.847   2.671   9.800  0.2700  0.6030 -0.8888
   99OSM   H13F 9960   2.751   2.722   9.778 -2.4021 -3.5168  0.1787
   99OSM   H13G 9961   2.842   2.599   9.884 -0.8863 -0.2363 -1.6570
   99OSM   C14F 9962   2.884   2.579   9.682  0.7995 -0.0251  0.1854
   99OSM   H14F 9963   2.838   2.478   9.686  0.5334  0.1116  0.8320
   99OSM   H14G 9964   2.994   2.562   9.692  0.5854 -1.1644  0.7556
   99OSM   C15F 9965   2.848   2.622   9.535 -0.2233  0.0558 -0.5415
   99OSM   H15F 9966   2.877   2.730   9.530 -1.8529  0.5679  0.3401
   99OSM   H15G 9967   2.737   2.628   9.531 -0.1771  3.1119 -0.2671
   99OSM   C16F 9968   2.922   2.537   9.423 -0.2988 -0.2471  0.4538
   99OSM   H16F 9969   3.029   2.521   9.446 -0.1486 -0.8786 -0.6470
   99OSM   H16G 9970   2.926   2.598   9.331  1.4590 -1.1197 -0.0840
   99OSM   C17F 9971   2.848   2.413   9.376  0.0196  0.5534 -0.5519
   99OSM   H17F 9972   2.749   2.444   9.339 -0.2705  0.7293  0.3516
   99OSM   H17G 9973   2.849   2.325   9.445  0.6149 -0.6970 -2.0916
   99OSM   C18F 9974   2.914   2.356   9.243 -0.3936  0.1610 -1.2763
   99OSM   H18F 9975   2.937   2.444   9.179 -1.5762  1.4112 -0.0568
   99OSM   H18G 9976   2.843   2.285   9.195 -0.8351  0.8224 -1.6209
   99OSM   H18H 9977   3.016   2.319   9.264 -0.1539  1.0033 -0.9309
  100OSM      N 9978   2.809   5.887  10.980  0.1851 -0.6896 -0.3609
  100OSM    C15 9979   2.804   6.041  10.997  0.0559 -0.4774 -1.2335
  100OSM   H15A 9980   2.719   6.076  10.940 -0.2391 -0.0400 -0.5422
  100OSM   H15B 9981   2.902   6.077  10.967  0.1147 -0.3333 -0.8672
  100OSM   H15C 9982   2.791   6.074  11.099 -0.0995 -2.1074 -0.7080
  100OSM    C14 9983   2.913   5.831  11.066  0.2194 -0.0934  0.1826
  100OSM   H14A 9984   2.929   5.725  11.055  0.3198 -0.2415  1.6024
  100OSM   H14B 9985   2.892   5.833  11.172  0.6681 -0.5829  0.2807
  100OSM   H14C 9986   3.012   5.860  11.037 -1.5860  5.1440 -1.9794
  100OSM    C13 9987   2.684   5.829  11.034  0.0746 -0.5629 -0.2429
  100OSM   H13A 9988   2.598   5.867  10.981 -2.8323 -0.0010  4.2906
  100OSM   H13B 9989   2.655   5.876  11.127 -1.6273  2.4868 -2.1368
  100OSM   H13C 9990   2.680   5.721  11.038 -0.3057 -0.5238  0.6274
  100OSM    C12 9991   2.819   5.851  10.836  0.0162  0.0196 -0.0918
  100OSM   H12A 9992   2.727   5.886  10.791  0.1370  0.7513  0.2154
  100OSM   H12B 9993   2.830   5.745  10.824 -0.8479 -0.3069  1.6425
  100OSM    C11 9994   2.925   5.921  10.756  0.6269 -0.4672 -0.0079
  100OSM   H11A 9995   2.930   6.031  10.764  1.9748 -0.4787 -0.4432
  100OSM   H11B 9996   2.894   5.906  10.651  0.3367 -0.7776  0.1185
  100OSM      P 9997   3.094   5.748  10.710 -0.1039  0.1747 -0.1295
  100OSM    O13 9998   3.215   5.692  10.771  0.1138 -0.0581 -0.4789
  100OSM    O14 9999   2.984   5.656  10.680 -0.1571  0.2872 -0.1410
  100OSM    O1110000   3.133   5.821  10.571 -0.2798  0.4525  0.3859
  100OSM    O1210001   3.052   5.873  10.794  0.2806  0.7703  0.4343
  100OSM    C1S10002   3.270   5.849  10.539  0.3666 -0.1263  0.0005
  100OSM    H1S10003   3.316   5.749  10.524  0.8864 -0.1083  1.3095
  100OSM    H1T10004   3.330   5.908  10.611  0.1310  1.1738 -0.8297
  100OSM     NF10005   3.404   5.963  10.374  0.4146  0.3394 -0.0492
  100OSM    HNF10006   3.429   6.058  10.391  3.0883 -0.6866  2.7383
  100OSM    C2S10007   3.268   5.921  10.405 -0.4644 -1.0454 -0.1562
  100OSM    H2S10008   3.233   5.851  10.327 -0.1537 -1.6438  0.2343
  100OSM    C3S10009   3.173   6.048  10.400 -0.5722 -0.9010  0.1131
  100OSM    H3S10010   3.215   6.125  10.469  1.7945 -0.6903 -1.4615
  100OSM     O310011   3.037   6.029  10.441  0.4169  0.2134 -0.2501
  100OSM    HO310012   3.044   5.946  10.489  0.4505  1.9314  2.9546
  100OSM    C4S10013   3.175   6.107  10.262 -0.4339 -0.6658  0.9770
  100OSM    H4S10014   3.259   6.177  10.254  0.7130 -2.1094 -0.2734
  100OSM    C5S10015   3.099   6.079  10.154 -0.2111 -0.2361  0.5087
  100OSM    H5S10016   3.024   5.999  10.150 -1.8372  1.2719 -1.6054
  100OSM    C6S10017   3.122   6.148  10.019 -0.0538 -0.8571 -0.2742
  100OSM    H6S10018   3.172   6.078   9.950 -0.9895 -0.1609 -1.6953
  100OSM    H6T10019   3.183   6.241  10.025  0.4103 -1.1808  0.0258
  100OSM    C7S10020   2.982   6.170   9.955  0.4682 -0.2335 -0.2840
  100OSM    H7S10021   2.923   6.227  10.030  1.1280 -1.2548  1.0524
  100OSM    H7T10022   2.925   6.075   9.955 -0.0886  0.0916 -0.9708
  100OSM    C8S10023   2.972   6.238   9.822 -0.6955  0.4848 -0.3807
  100OSM    H8S10024   3.009   6.342   9.832  1.7188 -0.3536  0.0591
  100OSM    H8T10025   2.866   6.246   9.790 -1.3378  1.1744  1.7743
  100OSM    C9S10026   3.052   6.174   9.705  0.3081 -0.8157 -0.0120
  100OSM    H9S10027   3.007   6.074   9.687  0.3356 -0.8012 -0.1555
  100OSM    H9T10028   3.160   6.167   9.731  0.5793  0.8413 -0.5713
  100OSM   C10S10029   3.050   6.256   9.575  0.3540  0.1010  0.5636
  100OSM   H10S10030   3.131   6.331   9.586 -2.1511  2.9730  0.5896
  100OSM   H10T10031   2.954   6.311   9.565 -0.3279 -1.1736 -0.0908
  100OSM   C11S10032   3.070   6.160   9.456  0.1050  0.8056  0.3080
  100OSM   H11S10033   2.988   6.086   9.444 -2.5521  3.7577 -1.2215
  100OSM   H11T10034   3.166   6.109   9.480 -1.4493 -1.8209  1.4733
  100OSM   C12S10035   3.093   6.240   9.330  0.1705 -0.5242 -0.3205
  100OSM   H12S10036   3.175   6.309   9.360  1.0476 -1.1435 -1.2289
  100OSM   H12T10037   3.001   6.295   9.303 -1.1467 -2.1587  0.6341
  100OSM   C13S10038   3.132   6.149   9.209 -0.0753  0.0198 -0.0086
  100OSM   H13S10039   3.041   6.094   9.176  0.6785 -1.0671 -0.3530
  100OSM   H13T10040   3.203   6.066   9.232  0.8986 -0.0280 -2.8558
  100OSM   C14S10041   3.185   6.222   9.087 -0.0823  0.3117 -0.6770
  100OSM   H14S10042   3.271   6.286   9.114 -0.8175  1.1047 -0.1653
  100OSM   H14T10043   3.103   6.289   9.051  1.1553  1.2105 -1.9465
  100OSM   C15S10044   3.218   6.138   8.964  0.1939  0.0852 -0.5790
  100OSM   H15S10045   3.220   6.212   8.881 -3.0456 -0.7395 -1.5312
  100OSM   H15T10046   3.132   6.071   8.943  1.5787 -1.7929 -0.5399
  100OSM   C16S10047   3.342   6.051   8.971 -0.1342 -0.1277  0.2768
  100OSM   H16S10048   3.329   5.960   9.033 -1.7483  0.8117  1.3714
  100OSM   H16T10049   3.415   6.113   9.028 -0.0049  0.3518 -0.3865
  100OSM   C17S10050   3.403   6.000   8.839  0.1070  0.5247  0.1386
  100OSM   H17S10051   3.506   5.961   8.848  0.4028  1.2941  0.1690
  100OSM   H17T10052   3.423   6.086   8.772  1.6170  0.9648  1.1054
  100OSM   C18S10053   3.313   5.899   8.773 -0.2541 -0.2522  0.0836
  100OSM   H18S10054   3.227   5.956   8.731 -0.3290  1.1538  2.0303
  100OSM   H18T10055   3.280   5.816   8.839 -3.1604  0.8036  0.1261
  100OSM   H18U10056   3.366   5.864   8.681 -0.2477  0.8870 -0.3602
  100OSM    C1F10057   3.483   5.860  10.325 -0.1149 -0.0288  0.1312
  100OSM     OF10058   3.445   5.743  10.317  0.4477 -0.1089  0.4437
  100OSM    C2F10059   3.619   5.910  10.286 -0.0601  0.1643 -0.0570
  100OSM    H2F10060   3.673   5.909  10.383  0.1959  0.0801 -0.2012
  100OSM    H2G10061   3.607   6.016  10.256 -1.3369  0.1348  0.2610
  100OSM    C3F10062   3.684   5.813  10.187  0.3044  0.0450 -0.2652
  100OSM    H3F10063   3.697   5.711  10.229  1.6567  0.1897 -0.2958
  100OSM    H3G10064   3.789   5.836  10.160  0.6432  3.5390  3.1707
  100OSM    C4F10065   3.614   5.801  10.056  0.2932  0.0905  0.5803
  100OSM    H4F10066   3.568   5.901  10.039 -0.3372 -0.1999  0.5511
  100OSM    H4G10067   3.524   5.735  10.055  0.2777 -0.1468 -4.0938
  100OSM    C5F10068   3.705   5.760   9.943  0.5419  0.2270  0.4140
  100OSM    H5F10069   3.733   5.653   9.951  0.1083 -0.0302 -1.1996
  100OSM    H5G10070   3.808   5.804   9.943  1.1290 -1.0407 -1.2172
  100OSM    C6F10071   3.627   5.768   9.804 -1.1122 -0.3341 -0.3473
  100OSM    H6F10072   3.614   5.878   9.793 -0.7423 -0.3117 -0.5711
  100OSM    H6G10073   3.525   5.723   9.815 -0.1896 -1.8547  3.1879
  100OSM    C7F10074   3.704   5.714   9.685  0.4941  0.4572 -0.4964
  100OSM    H7F10075   3.747   5.615   9.708  2.4107  1.6227  1.2945
  100OSM    H7G10076   3.793   5.776   9.664 -0.4421  1.8225 -0.5878
  100OSM    C8F10077   3.629   5.705   9.549  0.2113 -0.5007 -0.1938
  100OSM    H8F10078   3.603   5.807   9.515 -1.4490 -0.6688  0.4879
  100OSM    H8G10079   3.529   5.674   9.588  0.6477  1.4046  2.7681
  100OSM    C9F10080   3.678   5.613   9.441 -0.3493 -0.6589  0.5494
  100OSM    H9F10081   3.715   5.516   9.480 -0.7289 -1.0254  0.0086
  100OSM   C10F10082   3.664   5.631   9.311 -0.1003 -0.8442 -0.1787
  100OSM   H10F10083   3.716   5.570   9.236 -0.6031  0.5198 -1.7057
  100OSM   C11F10084   3.596   5.748   9.241  0.1676 -0.0916 -0.0112
  100OSM   H11F10085   3.555   5.816   9.318 -2.2091 -0.8072 -0.5580
  100OSM   H11G10086   3.504   5.715   9.188 -0.1407  2.6318 -1.3525
  100OSM   C12F10087   3.666   5.840   9.146  0.3399 -0.2248  0.0092
  100OSM   H12F10088   3.760   5.887   9.181  0.1301 -0.7956  1.4267
  100OSM   H12G10089   3.596   5.923   9.122 -1.0319 -1.4854 -0.5296
  100OSM   C13F10090   3.706   5.770   9.015 -0.2785 -0.3824 -0.1829
  100OSM   H13F10091   3.616   5.718   8.976  0.6484 -2.3740  0.1962
  100OSM   H13G10092   3.769   5.681   9.037  1.3355  1.0492  1.2171
  100OSM   C14F10093   3.774   5.862   8.915  0.6318 -0.7281 -0.1854
  100OSM   H14F10094   3.849   5.920   8.973 -1.4911  1.7991  0.2046
  100OSM   H14G10095   3.718   5.945   8.868 -0.9725 -2.2356 -1.0343
  100OSM   C15F10096   3.833   5.775   8.808  0.8198  0.9305  0.1411
  100OSM   H15F10097   3.757   5.753   8.730 -1.7070 -0.2607  2.7782
  100OSM   H15G10098   3.878   5.685   8.854  1.2969  0.7173 -0.7310
  100OSM   C16F10099   3.961   5.825   8.739 -0.1363  0.2902 -0.1496
  100OSM   H16F10100   4.034   5.841   8.821 -1.5830  1.6391  0.9509
  100OSM   H16G10101   3.927   5.922   8.697  0.5753  0.5451 -0.1389
  100OSM   C17F10102   4.005   5.733   8.622 -0.4155 -0.0680 -0.1620
  100OSM   H17F10103   3.917   5.716   8.557  0.2762 -2.0118 -0.6468
  100OSM   H17G10104   4.041   5.638   8.666  1.0851 -0.1887 -1.5485
  100OSM   C18F10105   4.125   5.794   8.542 -0.0446 -0.0832  0.0665
  100OSM   H18F10106   4.194   5.837   8.617  0.5847  0.7461 -0.9608
  100OSM   H18G10107   4.100   5.871   8.466 -1.0515 -0.0356  0.4210
  100OSM   H18H10108   4.167   5.705   8.490 -0.9664  0.7307 -2.1904
  101OSM      N10109   5.053   0.185  10.893 -0.6093 -0.4120 -0.6902
  101OSM    C1510110   4.911   0.193  10.920  0.3544  0.2688 -0.1797
  101OSM   H15A10111   4.846   0.135  10.855 -0.0509  0.8405 -0.2897
  101OSM   H15B10112   4.875   0.294  10.909  1.5076  0.5065 -2.2188
  101OSM   H15C10113   4.891   0.161  11.021 -0.8043 -1.4355 -0.8993
  101OSM    C1410114   5.118   0.273  10.991 -0.7262 -0.3210 -0.3571
  101OSM   H14A10115   5.208   0.225  11.028 -3.2879 -3.7954  2.0018
  101OSM   H14B10116   5.061   0.289  11.081 -0.7888 -0.1252 -0.4320
  101OSM   H14C10117   5.140   0.366  10.941 -1.5931 -0.6367 -1.3548
  101OSM    C1310118   5.097   0.042  10.919  0.0668  0.1330 -0.1922
  101OSM   H13A10119   5.199   0.036  10.887 -0.5765 -3.4464 -2.0308
  101OSM   H13B10120   5.029  -0.023  10.866 -0.8809 -1.8886  3.1507
  101OSM   H13C10121   5.084   0.014  11.023 -0.7317 -1.0559 -0.5954
  101OSM    C1210122   5.077   0.217  10.752 -0.2362 -0.3135  0.1026
  101OSM   H12A10123   5.011   0.300  10.728 -0.2597  0.4924  2.6298
  101OSM   H12B10124   5.041   0.137  10.689  0.3563 -0.1685 -0.4329
  101OSM    C1110125   5.224   0.246  10.706  0.5352  0.2193 -0.7873
  101OSM   H11A10126   5.235   0.225  10.598  1.5463  2.1381 -1.0983
  101OSM   H11B10127   5.288   0.172  10.758  0.9562 -0.0225 -1.6334
  101OSM      P10128   5.210   0.509  10.716  0.1162 -0.1287 -0.1033
  101OSM    O1310129   5.144   0.561  10.838  0.0837 -0.0233  0.1897
  101OSM    O1410130   5.309   0.598  10.654 -0.3378 -0.0849  0.2071
  101OSM    O1110131   5.101   0.469  10.603 -0.1123  0.5941 -0.0955
  101OSM    O1210132   5.281   0.374  10.747 -0.3899 -0.1874 -0.3735
  101OSM    C1S10133   5.011   0.566  10.551 -0.4421  0.0378 -0.0011
  101OSM    H1S10134   5.049   0.669  10.571 -0.2327 -0.2760  1.2712
  101OSM    H1T10135   4.905   0.548  10.578 -0.0717 -1.4547  0.5233
  101OSM     NF10136   4.920   0.656  10.330 -0.1282  0.2958 -0.0491
  101OSM    HNF10137   4.824   0.634  10.316 -0.8137  0.4505  3.5296
  101OSM    C2S10138   4.997   0.550  10.388  1.2031  0.5175  0.1533
  101OSM    H2S10139   5.099   0.561  10.346  0.4706  2.8131 -1.1720
  101OSM    C3S10140   4.939   0.405  10.353 -0.2311  0.0276 -0.0168
  101OSM    H3S10141   4.835   0.394  10.390  0.1125  1.3072  1.4549
  101OSM     O310142   5.009   0.308  10.434 -0.2902  0.7082 -0.2873
  101OSM    HO310143   5.063   0.358  10.496 -0.3575  0.5546 -0.1006
  101OSM    C4S10144   4.961   0.373  10.213 -0.2992  0.5081 -0.5405
  101OSM    H4S10145   5.068   0.380  10.187 -0.2880  0.4776 -0.5015
  101OSM    C5S10146   4.865   0.346  10.123  0.4567  0.7414  0.2356
  101OSM    H5S10147   4.759   0.355  10.147  0.3547 -0.3705  0.2593
  101OSM    C6S10148   4.883   0.293   9.979 -0.0197  0.3497 -0.8605
  101OSM    H6S10149   4.781   0.278   9.939 -1.4096  0.3481  2.3958
  101OSM    H6T10150   4.932   0.194   9.985  0.3475  0.5632 -0.2823
  101OSM    C7S10151   4.943   0.386   9.878 -0.2607  0.3166  0.1777
  101OSM    H7S10152   5.048   0.386   9.916 -0.4088 -0.5561  0.6361
  101OSM    H7T10153   4.907   0.489   9.897  0.9087  0.3392  2.7405
  101OSM    C8S10154   4.932   0.358   9.722  0.6937  0.0779  0.1864
  101OSM    H8S10155   4.823   0.369   9.705  0.6477 -1.0373 -0.2679
  101OSM    H8T10156   4.948   0.251   9.699 -1.1687 -0.0220 -0.7907
  101OSM    C9S10157   5.011   0.451   9.636 -0.0277  0.1999 -0.8072
  101OSM    H9S10158   5.121   0.438   9.646 -0.0839 -0.4833 -1.0128
  101OSM    H9T10159   4.981   0.553   9.669 -0.7757 -0.0030 -0.8467
  101OSM   C10S10160   4.975   0.428   9.489 -0.0982  0.2227  0.0035
  101OSM   H10S10161   4.866   0.448   9.482 -0.0986  0.4739  0.6756
  101OSM   H10T10162   4.997   0.325   9.452 -2.6646  0.1348 -1.5338
  101OSM   C11S10163   5.064   0.520   9.404  0.6951 -0.2590  0.1694
  101OSM   H11S10164   5.169   0.497   9.433  0.5835  1.9286  2.6283
  101OSM   H11T10165   5.040   0.623   9.439  2.0722 -0.1778  0.9186
  101OSM   C12S10166   5.041   0.487   9.258 -0.4763  0.3504 -0.6269
  101OSM   H12S10167   4.935   0.460   9.237 -0.2974 -0.0672 -1.0168
  101OSM   H12T10168   5.100   0.398   9.227  2.7222  2.5986 -1.4467
  101OSM   C13S10169   5.082   0.576   9.143  0.8678 -0.1101  0.1784
  101OSM   H13S10170   5.191   0.583   9.125  0.6555  2.2383 -0.6329
  101OSM   H13T10171   5.030   0.675   9.150  1.1241  0.3255 -2.6941
  101OSM   C14S10172   5.040   0.519   9.003  0.1590  0.3325  0.2668
  101OSM   H14S10173   4.934   0.551   8.994 -0.1145  0.1567  2.3889
  101OSM   H14T10174   5.047   0.408   9.007 -0.8434  0.1675 -1.4666
  101OSM   C15S10175   5.124   0.565   8.887 -0.0359 -0.0862  0.9878
  101OSM   H15S10176   5.228   0.565   8.926 -0.0610  1.4227  1.1124
  101OSM   H15T10177   5.091   0.670   8.874 -0.1993 -0.1484  0.8983
  101OSM   C16S10178   5.113   0.483   8.757  0.0948 -0.5586  0.0896
  101OSM   H16S10179   5.020   0.499   8.698  0.2505  0.6804  0.1406
  101OSM   H16T10180   5.124   0.375   8.780 -1.3791 -0.5732  0.8386
  101OSM   C17S10181   5.235   0.510   8.662  0.0523 -0.2868 -0.1897
  101OSM   H17S10182   5.318   0.496   8.735 -0.0995 -0.0726  0.0251
  101OSM   H17T10183   5.230   0.615   8.626  1.0865 -0.5761 -1.2375
  101OSM   C18S10184   5.253   0.415   8.543 -0.0505 -0.0102  0.2960
  101OSM   H18S10185   5.329   0.453   8.471  0.5341 -1.4169  0.1525
  101OSM   H18T10186   5.168   0.418   8.472  2.0416  1.0589 -2.3604
  101OSM   H18U10187   5.274   0.315   8.585  0.5407 -0.5928 -1.3112
  101OSM    C1F10188   4.968   0.778  10.320  0.4716 -0.4037  0.8493
  101OSM     OF10189   5.082   0.808  10.351 -0.4275  0.1272 -0.2398
  101OSM    C2F10190   4.888   0.875  10.238  0.0976  0.3274  0.0749
  101OSM    H2F10191   4.800   0.908  10.296 -1.0394 -1.5802 -0.4666
  101OSM    H2G10192   4.842   0.826  10.149 -0.9672  1.0032  0.2346
  101OSM    C3F10193   4.968   0.991  10.182 -0.6711 -0.1031 -0.4282
  101OSM    H3F10194   5.056   0.952  10.126 -1.0085  1.5094 -2.1862
  101OSM    H3G10195   5.007   1.050  10.268  2.1444  2.4068 -3.1431
  101OSM    C4F10196   4.889   1.074  10.083 -0.4532 -0.1844  0.0515
  101OSM    H4F10197   4.801   1.106  10.143 -0.7568 -0.8117 -0.0438
  101OSM    H4G10198   4.854   1.005  10.003 -1.3833  1.5991 -1.1441
  101OSM    C5F10199   4.977   1.182  10.025  0.7603  0.2341 -0.3281
  101OSM    H5F10200   5.079   1.144  10.002 -0.6553 -2.9519 -1.9265
  101OSM    H5G10201   4.989   1.259  10.104 -1.4963 -0.2762  0.5873
  101OSM    C6F10202   4.919   1.232   9.899  0.1719 -0.0039 -0.0631
  101OSM    H6F10203   4.909   1.150   9.825  0.2888  1.0635 -1.2992
  101OSM    H6G10204   4.815   1.266   9.920 -0.6233 -2.6119  0.6380
  101OSM    C7F10205   5.010   1.348   9.844  0.3079 -0.0515 -0.7494
  101OSM    H7F10206   5.109   1.298   9.842  0.2917 -0.1949  0.7632
  101OSM    H7G10207   5.020   1.428   9.920  0.9042 -1.3408  0.5920
  101OSM    C8F10208   4.982   1.384   9.694  0.4202  0.2606  0.1855
  101OSM    H8F10209   4.878   1.368   9.657  0.4860 -3.0768  1.1661
  101OSM    H8G10210   5.040   1.312   9.632  2.9161  1.8740  0.5002
  101OSM    C9F10211   5.022   1.524   9.676 -0.7043 -0.2025 -0.6733
  101OSM    H9F10212   4.991   1.599   9.750  2.8527  1.3796 -0.5404
  101OSM   C10F10213   5.077   1.575   9.561 -0.3211  0.0115  0.5010
  101OSM   H10F10214   5.101   1.682   9.545 -0.7187 -0.1054 -1.0211
  101OSM   C11F10215   5.112   1.495   9.432  0.4090  0.3126  0.4278
  101OSM   H11F10216   5.026   1.434   9.396 -1.3024  2.5830  0.4031
  101OSM   H11G10217   5.195   1.427   9.460  0.0909  0.0647  0.7960
  101OSM   C12F10218   5.152   1.582   9.312  0.6257 -0.3723  0.6721
  101OSM   H12F10219   5.195   1.503   9.247  0.1334 -0.6380  0.6636
  101OSM   H12G10220   5.237   1.643   9.350 -0.6286  2.0701 -0.2403
  101OSM   C13F10221   5.048   1.675   9.242  0.0567  0.2387  0.4957
  101OSM   H13F10222   5.011   1.765   9.296 -1.0716 -0.8518  1.6179
  101OSM   H13G10223   4.967   1.600   9.229  1.0223 -0.7475  0.0055
  101OSM   C14F10224   5.103   1.710   9.103 -0.4047 -0.2714 -0.4357
  101OSM   H14F10225   5.025   1.758   9.040 -1.3130  0.8314  1.4254
  101OSM   H14G10226   5.144   1.619   9.055 -2.0526 -0.7392 -1.0037
  101OSM   C15F10227   5.225   1.815   9.116  1.2662 -0.0156  0.2182
  101OSM   H15F10228   5.316   1.762   9.150  1.8560 -0.4225 -1.8229
  101OSM   H15G10229   5.196   1.885   9.197  2.3822  2.6069 -1.4922
  101OSM   C16F10230   5.242   1.887   8.987 -0.0691 -0.7483  0.5344
  101OSM   H16F10231   5.317   1.968   8.998  0.3212 -0.9901 -0.2105
  101OSM   H16G10232   5.152   1.939   8.949  0.0361  0.1884  1.5483
  101OSM   C17F10233   5.295   1.788   8.871  0.8052  0.0215  0.0394
  101OSM   H17F10234   5.210   1.718   8.854  2.2117 -2.4975  2.5855
  101OSM   H17G10235   5.377   1.731   8.920 -0.0325 -1.8498 -0.6227
  101OSM   C18F10236   5.337   1.856   8.742  0.1812 -0.2984  0.1230
  101OSM   H18F10237   5.405   1.943   8.755  0.5659 -0.6460  0.4723
  101OSM   H18G10238   5.247   1.886   8.684  0.1157 -2.6950 -1.1563
  101OSM   H18H10239   5.385   1.784   8.673 -0.2906  1.2936 -1.9578
  102OSM      N10240   2.547   3.977  10.698 -0.2124  0.2458  0.0793
  102OSM    C1510241   2.588   4.118  10.698 -0.1470 -0.1690  0.1311
  102OSM   H15A10242   2.695   4.117  10.716 -0.2369 -0.4102  0.6747
  102OSM   H15B10243   2.539   4.165  10.782  2.2918 -1.5643  2.5138
  102OSM   H15C10244   2.586   4.166  10.601  1.3084  0.8049  0.5418
  102OSM    C1410245   2.618   3.915  10.577 -0.2403 -0.1519  0.1752
  102OSM   H14A10246   2.601   3.808  10.574 -0.1735 -0.1468 -0.3469
  102OSM   H14B10247   2.725   3.930  10.579 -0.3679  0.7804  0.6428
  102OSM   H14C10248   2.590   3.963  10.485  0.7057 -0.0871 -0.0948
  102OSM    C1310249   2.602   3.917  10.813  0.2894 -0.1775 -0.3389
  102OSM   H13A10250   2.584   3.810  10.814  0.5239 -0.2296  1.1119
  102OSM   H13B10251   2.572   3.961  10.907  0.2425  0.5613 -0.6999
  102OSM   H13C10252   2.709   3.924  10.801  0.2007 -0.5752 -1.4621
  102OSM    C1210253   2.398   3.954  10.687  0.2197 -0.2984  0.5533
  102OSM   H12A10254   2.397   3.847  10.670  2.0786 -0.0746 -1.5925
  102OSM   H12B10255   2.354   3.999  10.599 -0.6211  0.1477  1.1974
  102OSM    C1110256   2.308   3.970  10.818 -0.6665 -0.2372  0.8752
  102OSM   H11A10257   2.328   3.878  10.877 -0.2992  0.3495  1.6783
  102OSM   H11B10258   2.201   3.973  10.788 -0.4914 -0.9070  0.1402
  102OSM      P10259   2.298   4.230  10.852  0.4601  0.1148 -0.1671
  102OSM    O1310260   2.178   4.270  10.927 -0.5285 -0.2090 -0.3650
  102OSM    O1410261   2.419   4.321  10.848  0.3112 -0.6822 -0.2894
  102OSM    O1110262   2.256   4.196  10.703  0.3841  0.5673  0.1734
  102OSM    O1210263   2.336   4.083  10.899  0.4677  0.1523 -0.4072
  102OSM    C1S10264   2.245   4.310  10.615  0.1727 -0.2193 -0.3142
  102OSM    H1S10265   2.343   4.358  10.595 -1.1438  2.6293 -0.4006
  102OSM    H1T10266   2.177   4.387  10.656  1.1933  1.1352 -1.0826
  102OSM     NF10267   2.178   4.379  10.389 -0.1985 -0.1048  0.0570
  102OSM    HNF10268   2.088   4.410  10.359 -0.4856 -2.0656 -1.3247
  102OSM    C2S10269   2.180   4.267  10.481 -0.6720  0.0643 -0.1060
  102OSM    H2S10270   2.252   4.191  10.444  0.2293 -0.1151  1.9068
  102OSM    C3S10271   2.038   4.199  10.503  0.7250  0.7258 -0.0529
  102OSM    H3S10272   1.969   4.275  10.546  0.6883  0.6256  0.0676
  102OSM     O310273   2.038   4.085  10.588  0.3049 -0.4217  0.2075
  102OSM    HO310274   2.124   4.091  10.632 -0.4636 -0.3233  1.7588
  102OSM    C4S10275   1.985   4.147  10.370 -0.2374  0.2123  0.1635
  102OSM    H4S10276   1.960   4.230  10.303  1.6809  0.1935 -0.6690
  102OSM    C5S10277   1.969   4.019  10.322 -0.1342 -0.0785 -0.0105
  102OSM    H5S10278   1.983   3.927  10.381  0.8227  0.0372 -0.0409
  102OSM    C6S10279   1.921   3.985  10.186  0.6595 -0.7382  0.5880
  102OSM    H6S10280   1.824   3.931  10.186 -0.3561  1.0117  0.3023
  102OSM    H6T10281   1.995   3.914  10.144  2.9909  1.3565  0.8784
  102OSM    C7S10282   1.911   4.099  10.078  0.3744 -0.2772  0.3490
  102OSM    H7S10283   2.013   4.135  10.051 -0.3054  1.4973 -0.0081
  102OSM    H7T10284   1.855   4.177  10.134  0.7130 -1.2969  2.1705
  102OSM    C8S10285   1.834   4.044   9.967 -0.9661 -0.0721  0.5036
  102OSM    H8S10286   1.803   4.119   9.891 -0.7550 -1.5064 -1.0695
  102OSM    H8T10287   1.741   3.995  10.000 -0.9620 -1.5838 -1.5138
  102OSM    C9S10288   1.902   3.939   9.877 -0.0482  0.5597  0.3488
  102OSM    H9S10289   1.939   3.854   9.938  0.1742  0.1651 -0.3306
  102OSM    H9T10290   1.989   3.985   9.825 -1.0467  1.3759 -0.6251
  102OSM   C10S10291   1.802   3.892   9.766 -0.2472 -0.1603  0.0919
  102OSM   H10S10292   1.775   3.974   9.696 -0.7100  1.3918  2.0052
  102OSM   H10T10293   1.706   3.856   9.808  0.1439 -1.1183  0.1920
  102OSM   C11S10294   1.861   3.773   9.683  0.5455 -0.4707 -0.0619
  102OSM   H11S10295   1.904   3.699   9.754  1.0777  0.0224  0.1365
  102OSM   H11T10296   1.936   3.812   9.610  0.1489 -0.9180 -0.7215
  102OSM   C12S10297   1.754   3.688   9.607  0.3836  0.0091  0.0152
  102OSM   H12S10298   1.670   3.754   9.575 -1.2090 -1.4205  1.0678
  102OSM   H12T10299   1.697   3.630   9.683  0.8109 -2.3220 -1.3486
  102OSM   C13S10300   1.813   3.596   9.502  0.1570 -0.6402 -0.6944
  102OSM   H13S10301   1.730   3.535   9.459  1.0844 -0.8356 -2.2964
  102OSM   H13T10302   1.892   3.531   9.544  2.0731  1.3727 -1.0073
  102OSM   C14S10303   1.871   3.673   9.380  0.8807  0.3181  0.0699
  102OSM   H14S10304   1.924   3.769   9.401  0.2922  0.8407 -0.7619
  102OSM   H14T10305   1.791   3.706   9.310 -0.8485 -2.9774  0.2839
  102OSM   C15S10306   1.961   3.587   9.288 -0.3838 -0.9363 -0.3768
  102OSM   H15S10307   2.018   3.515   9.352  0.6096 -0.1536 -0.3569
  102OSM   H15T10308   2.035   3.650   9.235 -0.0626  0.8846  2.0733
  102OSM   C16S10309   1.887   3.512   9.179  0.4043  0.5604  0.4375
  102OSM   H16S10310   1.839   3.581   9.106 -1.2157 -0.4020  0.5256
  102OSM   H16T10311   1.805   3.460   9.233  1.3131  0.0358  1.3483
  102OSM   C17S10312   1.975   3.408   9.105 -0.0118 -1.1363  0.2388
  102OSM   H17S10313   2.020   3.345   9.184  0.9546  1.4097  1.8679
  102OSM   H17T10314   2.060   3.462   9.058 -0.1427  0.1688  1.4206
  102OSM   C18S10315   1.906   3.324   8.998 -0.3690 -0.2304  0.2214
  102OSM   H18S10316   1.849   3.388   8.928 -0.4376 -0.1910  0.3137
  102OSM   H18T10317   1.825   3.263   9.043 -0.2329  0.1377  0.9913
  102OSM   H18U10318   1.986   3.264   8.950  0.6171  0.2279  1.2366
  102OSM    C1F10319   2.286   4.432  10.327 -0.1378  0.0412  0.7703
  102OSM     OF10320   2.400   4.404  10.364 -0.5154 -0.6291 -1.1833
  102OSM    C2F10321   2.261   4.516  10.210  0.0512 -0.1767  0.2360
  102OSM    H2F10322   2.267   4.624  10.235 -2.0160  0.1517 -0.4706
  102OSM    H2G10323   2.164   4.484  10.165  0.7145 -2.3462  0.2160
  102OSM    C3F10324   2.376   4.504  10.105 -1.0598  0.3748 -0.6737
  102OSM    H3F10325   2.473   4.531  10.151 -1.5454  0.7491  0.1413
  102OSM    H3G10326   2.351   4.581  10.028 -0.0686  1.0149 -0.3714
  102OSM    C4F10327   2.396   4.367  10.043  0.5664  0.3797  0.0162
  102OSM    H4F10328   2.307   4.340   9.981  1.8695  0.4764 -1.9760
  102OSM    H4G10329   2.412   4.289  10.121 -1.6357  1.2360  1.4346
  102OSM    C5F10330   2.500   4.375   9.930  0.2174 -0.1823 -0.5643
  102OSM    H5F10331   2.595   4.420   9.965 -0.0124 -0.6157  0.6432
  102OSM    H5G10332   2.468   4.448   9.852  1.7689 -0.0497 -1.1092
  102OSM    C6F10333   2.522   4.239   9.863  0.4389 -0.4527 -0.2209
  102OSM    H6F10334   2.422   4.202   9.830 -2.7276  3.8378  3.3316
  102OSM    H6G10335   2.558   4.169   9.941  1.0430 -1.4818 -1.3823
  102OSM    C7F10336   2.615   4.233   9.744  0.0943  0.7691 -0.8586
  102OSM    H7F10337   2.617   4.124   9.722  0.5313  0.5120  0.3943
  102OSM    H7G10338   2.719   4.259   9.771  0.8825 -2.1578 -0.7494
  102OSM    C8F10339   2.560   4.305   9.621  0.2105 -0.3749  0.4133
  102OSM    H8F10340   2.567   4.414   9.643 -0.1682 -0.4636  1.0058
  102OSM    H8G10341   2.450   4.291   9.610  0.2940  0.0696 -1.3189
  102OSM    C9F10342   2.660   4.279   9.504 -0.2068 -0.0482 -0.4943
  102OSM    H9F10343   2.752   4.340   9.514 -0.1193  0.2609 -2.7972
  102OSM   C10F10344   2.645   4.181   9.413 -0.3528 -0.2731 -0.5092
  102OSM   H10F10345   2.724   4.152   9.342 -0.2959 -0.8149 -0.2288
  102OSM   C11F10346   2.528   4.094   9.395  0.0206 -0.3727 -0.3420
  102OSM   H11F10347   2.456   4.095   9.480 -1.1653 -2.6225 -1.2191
  102OSM   H11G10348   2.548   3.985   9.392  0.6448 -0.2488 -1.7273
  102OSM   C12F10349   2.450   4.130   9.271  1.1018 -0.3402  0.0582
  102OSM   H12F10350   2.415   4.235   9.269 -1.7605 -1.1963  0.4035
  102OSM   H12G10351   2.363   4.061   9.271  3.3648 -3.4717  1.6770
  102OSM   C13F10352   2.521   4.092   9.135  0.2959 -0.4004 -0.1586
  102OSM   H13F10353   2.615   4.148   9.115  0.8867 -1.2559  0.1428
  102OSM   H13G10354   2.455   4.122   9.051 -0.8594 -1.2340  0.4213
  102OSM   C14F10355   2.545   3.940   9.116  0.1450 -0.2000  0.4484
  102OSM   H14F10356   2.450   3.883   9.113 -0.5549  0.9713 -0.3811
  102OSM   H14G10357   2.612   3.912   9.200  0.7329 -0.0061  0.0511
  102OSM   C15F10358   2.611   3.910   8.982 -0.0720 -0.2541  0.2357
  102OSM   H15F10359   2.639   3.803   8.993  0.7846 -0.0729 -0.0338
  102OSM   H15G10360   2.705   3.969   8.968 -0.5430 -0.1474 -3.4133
  102OSM   C16F10361   2.522   3.924   8.862  0.5448 -0.4704  0.0477
  102OSM   H16F10362   2.488   4.029   8.854 -0.5861 -0.8365 -0.0354
  102OSM   H16G10363   2.436   3.858   8.884 -2.0115  2.1418 -1.4501
  102OSM   C17F10364   2.591   3.899   8.735 -0.4621 -0.4457  0.4074
  102OSM   H17F10365   2.517   3.907   8.652  2.2365 -3.0159 -2.5034
  102OSM   H17G10366   2.618   3.792   8.721 -2.3883 -0.8314 -0.7926
  102OSM   C18F10367   2.702   3.998   8.699 -0.9332 -0.0505 -0.0840
  102OSM   H18F10368   2.659   4.099   8.717 -1.6780 -0.6469  1.7577
  102OSM   H18G10369   2.748   3.981   8.600  2.3429 -1.2578  1.4776
  102OSM   H18H10370   2.791   3.989   8.765  0.2722  2.1585 -1.2827
  103OSM      N10371   0.223   3.461  10.970  0.1785  0.6405 -0.0300
  103OSM    C1510372   0.161   3.594  10.983 -0.1027 -0.4218  1.0249
  103OSM   H15A10373   0.124   3.643  10.893  0.3432  0.6469  1.4048
  103OSM   H15B10374   0.235   3.661  11.024 -0.1595 -1.0981  2.2717
  103OSM   H15C10375   0.071   3.582  11.040 -1.8246 -4.2643 -2.0497
  103OSM    C1410376   0.288   3.427  11.105 -0.1289 -0.6457 -0.4124
  103OSM   H14A10377   0.364   3.500  11.128 -0.9417  0.0973 -0.0353
  103OSM   H14B10378   0.343   3.334  11.101  1.1892 -0.0091  1.6242
  103OSM   H14C10379   0.229   3.432  11.195  1.6765 -1.6876  0.8783
  103OSM    C1310380   0.118   3.361  10.949 -0.2764 -0.1664 -1.1683
  103OSM   H13A10381   0.044   3.350  11.027  1.0895 -1.9487 -0.0482
  103OSM   H13B10382   0.153   3.261  10.929  2.7820  0.1558  1.7325
  103OSM   H13C10383   0.065   3.395  10.861 -0.4532  1.1633 -0.5684
  103OSM    C1210384   0.324   3.472  10.856  0.1879 -0.3518  0.0223
  103OSM   H12A10385   0.270   3.491  10.765 -1.9054  0.2116  1.3153
  103OSM   H12B10386   0.383   3.384  10.835  2.9209  1.1523  0.8906
  103OSM    C1110387   0.450   3.569  10.863 -0.8322 -0.3813  0.0157
  103OSM   H11A10388   0.420   3.675  10.873  1.2281  0.3360 -0.7498
  103OSM   H11B10389   0.507   3.560  10.768 -0.8922  0.7444 -0.1435
  103OSM      P10390   0.656   3.446  10.967 -0.1579 -0.1918  0.0619
  103OSM    O1310391   0.731   3.432  11.092 -0.2894  0.4964 -0.2876
  103OSM    O1410392   0.613   3.316  10.907 -0.3787  0.3455 -0.8791
  103OSM    O1110393   0.743   3.527  10.857 -0.3952 -0.0360  0.2319
  103OSM    O1210394   0.534   3.543  10.984  0.0955  0.0744 -0.3099
  103OSM    C1S10395   0.885   3.507  10.843  0.5304 -0.3726 -0.1660
  103OSM    H1S10396   0.914   3.402  10.862 -0.1450 -0.4437  0.5391
  103OSM    H1T10397   0.936   3.584  10.904 -0.7727  0.1914  0.2609
  103OSM     NF10398   1.054   3.488  10.670 -0.0335  0.4003  0.8298
  103OSM    HNF10399   1.114   3.568  10.666 -0.0546  0.3636 -0.9413
  103OSM    C2S10400   0.919   3.525  10.691 -0.3184  0.7191 -0.8516
  103OSM    H2S10401   0.853   3.450  10.644  1.8798 -0.2524 -2.6092
  103OSM    C3S10402   0.878   3.668  10.632 -0.9556 -0.2529 -0.2213
  103OSM    H3S10403   0.931   3.749  10.686  1.1143 -0.1026 -2.2983
  103OSM     O310404   0.737   3.691  10.652 -1.3351  0.1678  0.4734
  103OSM    HO310405   0.728   3.637  10.731  1.4339  1.7208  2.0197
  103OSM    C4S10406   0.909   3.655  10.482  1.0549  0.6283 -0.5252
  103OSM    H4S10407   0.844   3.584  10.429 -1.2456  1.0575  1.5553
  103OSM    C5S10408   1.004   3.716  10.407 -0.0206  0.0823 -0.0208
  103OSM    H5S10409   1.076   3.786  10.454 -0.3375  1.6726 -1.7893
  103OSM    C6S10410   1.036   3.709  10.264 -0.1656  0.5487 -0.1619
  103OSM    H6S10411   1.134   3.659  10.252 -0.2110  0.5911 -0.7527
  103OSM    H6T10412   1.051   3.814  10.231  1.4329  0.8744  1.4839
  103OSM    C7S10413   0.933   3.640  10.176 -0.6204 -0.3844 -0.1098
  103OSM    H7S10414   0.850   3.712  10.161  1.6602  2.2029 -1.1805
  103OSM    H7T10415   0.899   3.544  10.219 -0.0462  0.6186  2.8405
  103OSM    C8S10416   1.005   3.618  10.042  0.4518 -0.7559 -0.9968
  103OSM    H8S10417   1.070   3.530  10.060  1.9740  0.8372  2.0345
  103OSM    H8T10418   1.092   3.687  10.038  1.5463 -1.9187  1.0379
  103OSM    C9S10419   0.907   3.626   9.931  0.2141  0.4896 -0.4927
  103OSM    H9S10420   0.827   3.702   9.942 -0.5561  0.0958 -2.8445
  103OSM    H9T10421   0.860   3.526   9.926  1.8807 -0.2711 -1.5837
  103OSM   C10S10422   0.971   3.648   9.793 -0.4265  0.0397 -0.1910
  103OSM   H10S10423   1.057   3.580   9.774 -0.1715  0.1414  0.5515
  103OSM   H10T10424   1.021   3.747   9.792 -0.5869  0.1368 -2.4373
  103OSM   C11S10425   0.877   3.629   9.679  0.2623  0.5745 -0.1895
  103OSM   H11S10426   0.788   3.694   9.685 -0.5312 -0.3865 -1.1406
  103OSM   H11T10427   0.843   3.524   9.697  1.0491  0.4148  0.4355
  103OSM   C12S10428   0.939   3.655   9.546 -0.3090  0.3666 -1.1812
  103OSM   H12S10429   1.015   3.574   9.534 -0.7518 -0.8027  2.5702
  103OSM   H12T10430   0.990   3.754   9.547  1.9277 -0.6944  0.4516
  103OSM   C13S10431   0.850   3.665   9.422  0.5564  0.6513  0.1266
  103OSM   H13S10432   0.777   3.748   9.424 -2.5905 -1.8814 -0.9325
  103OSM   H13T10433   0.791   3.574   9.398 -0.0721  1.1775 -0.3423
  103OSM   C14S10434   0.935   3.699   9.293  0.1296  0.2312  0.0132
  103OSM   H14S10435   1.021   3.632   9.273  0.2937  0.9063 -1.7219
  103OSM   H14T10436   0.977   3.801   9.308  0.0890  0.1789  0.4791
  103OSM   C15S10437   0.847   3.690   9.164  0.6519 -1.1375 -0.3706
  103OSM   H15S10438   0.752   3.742   9.187  1.9959  0.4260  2.2499
  103OSM   H15T10439   0.823   3.582   9.154  0.9862 -1.1841 -0.6708
  103OSM   C16S10440   0.900   3.749   9.034 -0.5979  0.0750  0.6921
  103OSM   H16S10441   0.999   3.701   9.019 -1.0853 -0.7359  0.0087
  103OSM   H16T10442   0.920   3.858   9.030 -1.0722  0.1130 -1.9384
  103OSM   C17S10443   0.823   3.719   8.903 -0.2468  0.1464  0.8775
  103OSM   H17S10444   0.872   3.778   8.823 -0.3986  0.2953  0.8942
  103OSM   H17T10445   0.722   3.765   8.907 -0.9979 -1.3762  0.2535
  103OSM   C18S10446   0.811   3.565   8.867  0.2759  0.3040  0.4228
  103OSM   H18S10447   0.749   3.526   8.951 -0.9471  0.7169 -0.2646
  103OSM   H18T10448   0.908   3.514   8.854  0.8613  0.8352  2.4008
  103OSM   H18U10449   0.753   3.555   8.773  1.0059  2.1653 -0.2841
  103OSM    C1F10450   1.095   3.359  10.651 -0.2284  0.0437  0.2471
  103OSM     OF10451   1.028   3.257  10.680  0.1472  0.0550  0.2804
  103OSM    C2F10452   1.239   3.338  10.610 -0.2280 -0.4679  0.1385
  103OSM    H2F10453   1.254   3.228  10.622 -1.9222 -0.7211  0.1882
  103OSM    H2G10454   1.299   3.397  10.682  1.2934 -2.1753  0.3530
  103OSM    C3F10455   1.277   3.388  10.468  0.5914  0.5579  0.2938
  103OSM    H3F10456   1.383   3.354  10.470  0.5351  0.3224 -0.6080
  103OSM    H3G10457   1.260   3.497  10.460  0.3038  0.4566 -0.5419
  103OSM    C4F10458   1.205   3.317  10.351 -0.2416 -0.2270  0.4019
  103OSM    H4F10459   1.104   3.360  10.338 -0.5788 -1.3155 -0.8381
  103OSM    H4G10460   1.202   3.208  10.368 -0.5873 -0.3905 -0.6480
  103OSM    C5F10461   1.271   3.343  10.213  0.4992 -0.1207  0.1478
  103OSM    H5F10462   1.259   3.443  10.167 -0.1942 -0.9974 -1.6760
  103OSM    H5G10463   1.218   3.273  10.146 -1.4433 -0.7206  2.1993
  103OSM    C6F10464   1.423   3.323  10.215 -0.0714 -0.0400  0.1877
  103OSM    H6F10465   1.448   3.245  10.289  0.9697  0.4572  0.3777
  103OSM    H6G10466   1.476   3.412  10.254  0.0084 -0.5894  1.3820
  103OSM    C7F10467   1.470   3.276  10.075  0.6333 -0.1628 -0.8495
  103OSM    H7F10468   1.403   3.195  10.038  0.3473  0.2228 -1.1887
  103OSM    H7G10469   1.568   3.225  10.079 -0.6446 -2.7868 -0.8734
  103OSM    C8F10470   1.489   3.386   9.966 -0.5969  0.0566  0.1552
  103OSM    H8F10471   1.578   3.360   9.906  0.5217 -1.2879  2.2796
  103OSM    H8G10472   1.526   3.479  10.014  2.2415 -1.2725  0.7281
  103OSM    C9F10473   1.365   3.420   9.897  0.1078 -0.4721 -0.4227
  103OSM    H9F10474   1.300   3.487   9.955 -0.0735 -0.9771 -0.0251
  103OSM   C10F10475   1.318   3.386   9.780 -0.2357  0.4950  0.3672
  103OSM   H10F10476   1.217   3.416   9.748 -0.6486  0.2998  1.4333
  103OSM   C11F10477   1.377   3.281   9.690  0.0892 -0.2582  0.9818
  103OSM   H11F10478   1.299   3.203   9.696 -0.5579  0.3794  1.0033
  103OSM   H11G10479   1.473   3.239   9.727 -1.5857 -4.1333  1.3534
  103OSM   C12F10480   1.382   3.333   9.542 -0.4781  0.5503 -0.4513
  103OSM   H12F10481   1.470   3.399   9.524  1.9191 -2.6317 -1.3646
  103OSM   H12G10482   1.295   3.398   9.521  1.4264  2.8477 -1.7909
  103OSM   C13F10483   1.378   3.216   9.438 -0.0812 -0.6152 -0.1967
  103OSM   H13F10484   1.288   3.150   9.444  0.0032 -0.7409 -0.2921
  103OSM   H13G10485   1.462   3.153   9.473 -0.4503  0.8066  3.8106
  103OSM   C14F10486   1.405   3.259   9.298  0.1463 -0.2079  0.3075
  103OSM   H14F10487   1.494   3.325   9.302  0.4035 -0.5080 -0.2566
  103OSM   H14G10488   1.319   3.317   9.260  0.9295  1.6358  1.2612
  103OSM   C15F10489   1.425   3.131   9.209 -0.5765 -0.3318  0.4473
  103OSM   H15F10490   1.336   3.067   9.225 -0.1768 -0.6674  1.4665
  103OSM   H15G10491   1.518   3.081   9.244 -0.1496 -0.2254 -0.5194
  103OSM   C16F10492   1.416   3.177   9.059 -0.1079  0.2487 -0.1424
  103OSM   H16F10493   1.506   3.240   9.038  2.5966 -2.4717  2.2974
  103OSM   H16G10494   1.325   3.232   9.027 -1.5689 -1.1042  1.5189
  103OSM   C17F10495   1.426   3.051   8.968  0.2471  0.6976  0.5324
  103OSM   H17F10496   1.393   3.079   8.865  0.1820 -0.5575  0.1945
  103OSM   H17G10497   1.360   2.971   9.009  1.2881 -1.6871 -2.0734
  103OSM   C18F10498   1.566   2.999   8.955  0.0051  0.5168 -0.2888
  103OSM   H18F10499   1.611   2.998   9.056  0.2992  0.3876 -0.4185
  103OSM   H18G10500   1.626   3.067   8.890  0.7353  0.2382  0.0866
  103OSM   H18H10501   1.576   2.902   8.901  1.6526  1.4196 -1.7308
  104OSM      N10502   2.984   4.901  10.723 -0.2167  0.8558 -0.7617
  104OSM    C1510503   2.882   5.012  10.744  0.8764  0.1008  0.2772
  104OSM   H15A10504   2.881   5.062  10.649  1.6217  1.4939  0.9689
  104OSM   H15B10505   2.915   5.078  10.823  0.9778 -0.9073  1.1030
  104OSM   H15C10506   2.784   4.971  10.761  1.5256 -1.6227  0.1128
  104OSM    C1410507   3.121   4.968  10.706  0.5692 -0.1440 -0.1520
  104OSM   H14A10508   3.196   4.908  10.656  0.6406  0.5838 -0.9473
  104OSM   H14B10509   3.162   5.007  10.798 -0.9808 -0.5914  0.7544
  104OSM   H14C10510   3.099   5.057  10.650  1.6204 -0.0215 -0.3863
  104OSM    C1310511   2.984   4.828  10.855  0.0610 -0.2625 -0.1788
  104OSM   H13A10512   3.059   4.751  10.866 -0.5565 -0.7060  1.1629
  104OSM   H13B10513   2.888   4.780  10.869 -0.7221  1.8048  2.7554
  104OSM   H13C10514   2.994   4.899  10.936 -0.5002  0.2609 -0.5562
  104OSM    C1210515   2.942   4.807  10.615 -0.3344  0.5005  0.0989
  104OSM   H12A10516   2.930   4.862  10.523 -0.1785 -1.9263 -1.4675
  104OSM   H12B10517   2.845   4.763  10.632 -0.8627  1.8890  0.7648
  104OSM    C1110518   3.033   4.685  10.588  0.1837  0.2307  0.6071
  104OSM   H11A10519   3.127   4.730  10.551  1.6194 -2.4816  0.7165
  104OSM   H11B10520   2.982   4.633  10.504 -1.5864  0.9222  1.2144
  104OSM      P10521   2.942   4.510  10.763 -0.1986  0.2235 -0.1913
  104OSM    O1310522   2.939   4.538  10.911  0.8124  0.8461 -0.0120
  104OSM    O1410523   2.814   4.525  10.696 -0.0251  0.0162  0.1153
  104OSM    O1110524   2.984   4.360  10.738 -0.1421 -0.7264 -0.3604
  104OSM    O1210525   3.059   4.606  10.708 -0.6917 -0.4070 -0.1284
  104OSM    C1S10526   2.957   4.293  10.620 -0.0906  0.0506 -0.1462
  104OSM    H1S10527   2.864   4.330  10.571 -1.2674 -1.6623  0.7068
  104OSM    H1T10528   2.933   4.187  10.642  0.9802  0.3340  2.8557
  104OSM     NF10529   3.028   4.257  10.385 -0.0986  0.3332  0.2107
  104OSM    HNF10530   3.026   4.159  10.370 -0.7152  0.2941  0.4933
  104OSM    C2S10531   3.073   4.303  10.514  0.0897 -0.2393 -0.1126
  104OSM    H2S10532   3.108   4.408  10.502  0.2012 -0.1929  0.5636
  104OSM    C3S10533   3.188   4.215  10.566  1.1466 -0.3757 -0.0318
  104OSM    H3S10534   3.146   4.114  10.587 -0.4781  0.0488 -1.0613
  104OSM     O310535   3.244   4.262  10.684 -0.9168 -0.2574  0.3713
  104OSM    HO310536   3.179   4.332  10.696 -1.5254 -0.6428 -0.5230
  104OSM    C4S10537   3.287   4.199  10.455 -0.1019  0.6082  0.4509
  104OSM    H4S10538   3.265   4.117  10.385  1.6217 -0.4735  1.1261
  104OSM    C5S10539   3.394   4.271  10.426 -0.0234  0.5767  0.0264
  104OSM    H5S10540   3.414   4.364  10.480 -2.4931  1.8303 -1.0935
  104OSM    C6S10541   3.468   4.253  10.303  0.3120 -0.2739  0.1987
  104OSM    H6S10542   3.574   4.253  10.337  0.6300 -0.2546 -0.7688
  104OSM    H6T10543   3.453   4.343  10.241  1.6949 -0.9392 -1.1537
  104OSM    C7S10544   3.455   4.120  10.220 -0.2822 -1.0421 -0.2025
  104OSM    H7S10545   3.350   4.112  10.185 -0.5306 -0.4759  0.3923
  104OSM    H7T10546   3.477   4.045  10.299 -1.8211 -0.2874  0.9888
  104OSM    C8S10547   3.553   4.134  10.096  0.0546 -0.0784  0.5307
  104OSM    H8S10548   3.654   4.098  10.126  0.2544 -0.0486 -0.0915
  104OSM    H8T10549   3.577   4.240  10.074  1.4443 -0.4702  0.0884
  104OSM    C9S10550   3.483   4.087   9.969 -0.1928  0.0880  0.5406
  104OSM    H9S10551   3.392   4.151   9.960 -1.0505 -1.3189 -1.7846
  104OSM    H9T10552   3.466   3.979   9.989  3.7816 -0.8846 -0.4227
  104OSM   C10S10553   3.563   4.103   9.832 -0.4906  0.0564  0.1976
  104OSM   H10S10554   3.643   4.026   9.826 -0.5729  0.0048 -0.2440
  104OSM   H10T10555   3.626   4.195   9.832  0.8928 -0.8067  2.3232
  104OSM   C11S10556   3.466   4.086   9.712  0.3918 -0.1447  0.2794
  104OSM   H11S10557   3.401   4.177   9.708  0.0024 -0.2905  2.2036
  104OSM   H11T10558   3.398   4.002   9.737 -1.0045  0.7510 -0.3078
  104OSM   C12S10559   3.532   4.073   9.580  0.6538 -0.0757  0.8674
  104OSM   H12S10560   3.567   3.968   9.569  1.2100  0.1169  0.8095
  104OSM   H12T10561   3.615   4.145   9.567 -0.1735  0.7216 -0.2850
  104OSM   C13S10562   3.442   4.111   9.461  0.2743 -0.6911 -0.6265
  104OSM   H13S10563   3.395   4.211   9.475  1.6230  0.1304 -1.6610
  104OSM   H13T10564   3.366   4.031   9.454  0.5071 -0.9986  0.1879
  104OSM   C14S10565   3.522   4.104   9.327 -0.6669  1.0497  0.1759
  104OSM   H14S10566   3.584   4.012   9.328 -0.8940  0.8770  2.0321
  104OSM   H14T10567   3.591   4.191   9.331 -0.5310  1.4354 -4.4742
  104OSM   C15S10568   3.428   4.122   9.204  0.2936  0.6605  0.4568
  104OSM   H15S10569   3.338   4.180   9.233 -0.0354  0.9999 -1.1455
  104OSM   H15T10570   3.396   4.022   9.170 -0.2226  0.6169  1.0513
  104OSM   C16S10571   3.510   4.179   9.081  0.1490 -0.0419 -0.2788
  104OSM   H16S10572   3.530   4.287   9.099  0.0583 -0.0520 -0.1113
  104OSM   H16T10573   3.434   4.181   9.000 -0.7609 -0.4345  0.5508
  104OSM   C17S10574   3.637   4.101   9.041 -0.3691 -0.4784  0.4197
  104OSM   H17S10575   3.614   3.993   9.058  0.3176 -0.2135  3.4918
  104OSM   H17T10576   3.722   4.133   9.105 -0.1037  0.1086 -0.2177
  104OSM   C18S10577   3.671   4.122   8.894  0.4954 -0.4038 -0.6640
  104OSM   H18S10578   3.572   4.120   8.843 -0.2496  2.2832  0.4853
  104OSM   H18T10579   3.741   4.049   8.849  0.0611 -1.4770  0.3619
  104OSM   H18U10580   3.710   4.227   8.890 -0.4862  0.0945  1.5194
  104OSM    C1F10581   2.953   4.322  10.292  0.3821 -0.9536  0.5126
  104OSM     OF10582   2.928   4.440  10.310 -0.1072  0.2066  0.4006
  104OSM    C2F10583   2.906   4.242  10.171 -0.6491 -0.2606  0.2119
  104OSM    H2F10584   2.796   4.229  10.178 -0.9659  1.9446  0.0605
  104OSM    H2G10585   2.949   4.142  10.193  0.2654  0.4373  1.7717
  104OSM    C3F10586   2.968   4.307  10.048  0.4653 -0.2098 -0.3136
  104OSM    H3F10587   2.963   4.418  10.050 -2.8846 -0.1888  3.4936
  104OSM    H3G10588   2.907   4.265   9.966 -1.0133 -1.5008  1.3714
  104OSM    C4F10589   3.108   4.262  10.008 -0.1051  0.2992 -0.8260
  104OSM    H4F10590   3.119   4.152  10.002  0.5538  0.2682  0.6506
  104OSM    H4G10591   3.194   4.301  10.067  0.8385 -2.4174 -0.2391
  104OSM    C5F10592   3.138   4.294   9.854  0.4663  0.7420  1.2591
  104OSM    H5F10593   3.247   4.277   9.841  0.2084 -1.5279  1.7568
  104OSM    H5G10594   3.102   4.392   9.816  1.1049  0.3793 -0.3719
  104OSM    C6F10595   3.081   4.184   9.754  0.2910  0.7887  0.2172
  104OSM    H6F10596   2.974   4.155   9.747  1.1906 -3.0139 -0.0527
  104OSM    H6G10597   3.138   4.090   9.769  0.8036  0.7732 -1.5637
  104OSM    C7F10598   3.105   4.230   9.612 -0.1505 -0.2362  0.3825
  104OSM    H7F10599   3.214   4.248   9.600 -0.4815  2.2465  0.5594
  104OSM    H7G10600   3.054   4.328   9.601 -2.1365 -1.1428  0.9556
  104OSM    C8F10601   3.061   4.123   9.509  0.1283  0.3726  0.1806
  104OSM    H8F10602   2.956   4.108   9.542  0.2912  1.3425  1.2166
  104OSM    H8G10603   3.129   4.036   9.517 -0.6297 -0.1485  1.3138
  104OSM    C9F10604   3.075   4.186   9.378 -0.2071 -0.1794 -0.1507
  104OSM    H9F10605   3.120   4.286   9.392 -2.5428  0.7310  1.4653
  104OSM   C10F10606   3.026   4.145   9.260  0.5828 -0.1208  0.1317
  104OSM   H10F10607   3.048   4.209   9.174 -1.1250  0.9910  0.4785
  104OSM   C11F10608   2.950   4.015   9.230 -0.2845 -0.4105  0.0502
  104OSM   H11F10609   2.845   4.035   9.201 -0.4107 -0.6477  0.3425
  104OSM   H11G10610   2.959   3.950   9.320  1.7092 -0.4905 -0.1478
  104OSM   C12F10611   3.029   3.938   9.123 -0.0270 -0.3230  0.0744
  104OSM   H12F10612   3.003   3.831   9.129 -1.4184  0.0030  0.3237
  104OSM   H12G10613   3.139   3.944   9.138  0.0781 -1.3874 -0.2208
  104OSM   C13F10614   3.007   3.987   8.975 -0.0987 -0.3064 -0.0622
  104OSM   H13F10615   3.048   4.090   8.966  3.0790 -1.6442 -3.8896
  104OSM   H13G10616   2.897   3.977   8.961  0.1413  0.0822 -2.5798
  104OSM   C14F10617   3.088   3.900   8.893  1.1415 -0.1842 -0.5364
  104OSM   H14F10618   3.061   3.793   8.904 -1.0812  0.2758 -1.0688
  104OSM   H14G10619   3.196   3.915   8.916  0.8399 -0.7531  1.4426
  104OSM   C15F10620   3.078   3.927   8.742  0.3264 -0.1768 -0.1336
  104OSM   H15F10621   3.092   4.036   8.727  1.7780 -0.3287  0.0632
  104OSM   H15G10622   2.977   3.889   8.716 -0.0112  0.6134 -0.0273
  104OSM   C16F10623   3.172   3.843   8.656  0.1317 -0.5038  0.8458
  104OSM   H16F10624   3.158   3.733   8.666 -1.1369 -0.3857  0.5537
  104OSM   H16G10625   3.278   3.862   8.681  0.6428 -2.7577  0.6179
  104OSM   C17F10626   3.151   3.871   8.503  0.2166 -0.2805  0.0011
  104OSM   H17F10627   3.053   3.895   8.459 -0.1351 -2.2573 -0.4089
  104OSM   H17G10628   3.185   3.773   8.462 -1.7692 -1.0399  0.0705
  104OSM   C18F10629   3.267   3.970   8.465 -0.0268 -0.4589 -0.0507
  104OSM   H18F10630   3.365   3.921   8.487 -0.6913 -1.0584  1.8185
  104OSM   H18G10631   3.251   4.063   8.523 -0.9288 -1.1090  0.7815
  104OSM   H18H10632   3.260   3.997   8.358 -1.0935 -2.6091 -0.5786
  105OSM      N10633   4.859   6.226  10.914  0.0937  0.2218  0.1821
  105OSM    C1510634   4.789   6.329  10.997 -0.6585  0.5064  0.8053
  105OSM   H15A10635   4.855   6.383  11.062 -1.1684  0.7808  1.0997
  105OSM   H15B10636   4.706   6.284  11.050 -0.4214  1.8408  2.3819
  105OSM   H15C10637   4.746   6.405  10.934 -0.8549 -0.2890 -0.0442
  105OSM    C1410638   4.990   6.285  10.869  0.0868  0.9655 -0.0502
  105OSM   H14A10639   4.962   6.367  10.804 -1.9677  0.9365  0.6977
  105OSM   H14B10640   5.048   6.208  10.820  1.9288  1.0802  1.8337
  105OSM   H14C10641   5.035   6.328  10.956 -2.1690  3.3975  0.0272
  105OSM    C1310642   4.878   6.100  10.996 -0.9914  0.1372 -0.7897
  105OSM   H13A10643   4.942   6.030  10.944 -0.2979 -1.1156  1.5966
  105OSM   H13B10644   4.791   6.037  11.010  0.9530 -2.2866  1.4220
  105OSM   H13C10645   4.925   6.113  11.092  0.4620  1.2657 -1.6207
  105OSM    C1210646   4.767   6.196  10.787  0.0671 -0.4061 -0.0682
  105OSM   H12A10647   4.825   6.127  10.727  0.0501 -0.6613  0.2106
  105OSM   H12B10648   4.767   6.288  10.730 -2.0224 -0.8999 -0.9584
  105OSM    C1110649   4.625   6.153  10.821  0.2518  0.0839  0.7144
  105OSM   H11A10650   4.638   6.074  10.897  0.2209 -0.1227  0.5069
  105OSM   H11B10651   4.581   6.113  10.727 -0.4920  1.9037  0.2339
  105OSM      P10652   4.473   6.363  10.761  0.0515  0.1256  0.2332
  105OSM    O1310653   4.353   6.310  10.706  0.5322  0.4165 -0.3551
  105OSM    O1410654   4.466   6.500  10.806  0.5224 -0.3484 -0.4899
  105OSM    O1110655   4.584   6.367  10.645  0.0560 -0.8677 -0.4471
  105OSM    O1210656   4.543   6.261  10.864 -0.8523 -0.6005 -0.2893
  105OSM    C1S10657   4.567   6.314  10.513  0.3192 -0.1578  0.8087
  105OSM    H1S10658   4.464   6.279  10.490  0.2176  0.7058 -0.1057
  105OSM    H1T10659   4.647   6.238  10.497  2.4982  2.2231 -0.3467
  105OSM     NF10660   4.556   6.386  10.277 -0.6107 -0.5095  0.3224
  105OSM    HNF10661   4.617   6.326  10.225 -0.4855  0.2202 -0.3923
  105OSM    C2S10662   4.612   6.424  10.408  0.4279  0.5369 -0.4403
  105OSM    H2S10663   4.568   6.522  10.438 -2.6894 -1.1699  1.0564
  105OSM    C3S10664   4.770   6.429  10.413  0.5605  0.3952  0.5772
  105OSM    H3S10665   4.815   6.333  10.379  1.4617  0.3035  1.9626
  105OSM     O310666   4.802   6.452  10.551 -0.0941  0.7017 -0.1680
  105OSM    HO310667   4.720   6.432  10.597 -0.5554  0.8533 -0.9201
  105OSM    C4S10668   4.811   6.539  10.321 -0.8801 -0.6398  0.2775
  105OSM    H4S10669   4.757   6.635  10.328  2.6329  1.4969  0.9839
  105OSM    C5S10670   4.917   6.537  10.236 -0.1458  0.7842 -0.6795
  105OSM    H5S10671   4.978   6.446  10.232 -2.6965 -0.9957 -1.3689
  105OSM    C6S10672   4.982   6.638  10.142  0.1839  0.0244 -0.2833
  105OSM    H6S10673   5.081   6.659  10.187 -0.2244  0.4344  0.4437
  105OSM    H6T10674   4.922   6.730  10.130  1.1673  0.6190 -0.7617
  105OSM    C7S10675   5.000   6.576   9.999 -0.4363  0.3886  0.2117
  105OSM    H7S10676   4.914   6.525   9.950 -0.0936 -0.3827  0.3929
  105OSM    H7T10677   5.076   6.496  10.012  4.5204  4.6383  0.6532
  105OSM    C8S10678   5.053   6.676   9.891 -0.6028  0.1431 -0.0168
  105OSM    H8S10679   5.154   6.713   9.916  0.2376 -1.2928 -1.1128
  105OSM    H8T10680   4.999   6.773   9.880 -1.9972 -0.8028 -2.3508
  105OSM    C9S10681   5.051   6.609   9.749 -0.2368  0.4892  0.4900
  105OSM    H9S10682   4.944   6.597   9.722  0.1270  0.1936 -0.9387
  105OSM    H9T10683   5.107   6.513   9.752  2.4930  1.9891  0.3458
  105OSM   C10S10684   5.117   6.710   9.646 -0.1965 -0.1793 -0.3902
  105OSM   H10S10685   5.227   6.700   9.662 -0.3998 -0.6520  0.8749
  105OSM   H10T10686   5.081   6.814   9.658  0.5676  0.1063 -0.5460
  105OSM   C11S10687   5.082   6.668   9.503 -0.0714  0.2580  0.1014
  105OSM   H11S10688   4.973   6.649   9.486  0.2169  1.0665 -3.5097
  105OSM   H11T10689   5.138   6.577   9.473  1.0251  1.7047 -2.6271
  105OSM   C12S10690   5.128   6.763   9.399  0.0460 -0.2702  0.1878
  105OSM   H12S10691   5.238   6.774   9.401  0.1676 -0.9263 -1.4504
  105OSM   H12T10692   5.090   6.868   9.402  0.6778 -0.0512  0.8084
  105OSM   C13S10693   5.089   6.714   9.260 -0.4114  0.0774 -0.3602
  105OSM   H13S10694   4.978   6.718   9.252 -0.3692 -0.1711 -1.0776
  105OSM   H13T10695   5.126   6.611   9.238  2.1777  1.0309 -0.8557
  105OSM   C14S10696   5.156   6.807   9.152  0.4580 -0.0515  0.2292
  105OSM   H14S10697   5.262   6.808   9.184  1.3750  1.5006 -2.5643
  105OSM   H14T10698   5.111   6.908   9.150 -0.9801 -0.6645 -1.5118
  105OSM   C15S10699   5.146   6.749   9.017 -0.3798  0.4210  1.3293
  105OSM   H15S10700   5.043   6.708   9.007 -0.9539  2.0036  0.2601
  105OSM   H15T10701   5.222   6.669   9.004 -0.5362  0.7381 -2.9975
  105OSM   C16S10702   5.165   6.841   8.898 -0.1412  0.4780  0.8384
  105OSM   H16S10703   5.249   6.910   8.921 -0.0652  0.5047  0.4935
  105OSM   H16T10704   5.076   6.907   8.893  0.3129  1.0424 -0.1583
  105OSM   C17S10705   5.174   6.777   8.759 -0.3793  0.0936 -0.0603
  105OSM   H17S10706   5.250   6.696   8.751  0.3489  0.7043  0.5719
  105OSM   H17T10707   5.215   6.851   8.688  1.0864  1.3753  2.0289
  105OSM   C18S10708   5.046   6.718   8.702 -0.5435  0.5336 -0.2801
  105OSM   H18S10709   5.050   6.694   8.593 -1.1884  1.6911 -0.5665
  105OSM   H18T10710   4.971   6.797   8.722 -0.4072  0.3019  1.2517
  105OSM   H18U10711   5.008   6.634   8.764 -0.7966  0.6801 -0.2367
  105OSM    C1F10712   4.436   6.393  10.250  1.0278  0.3103  0.2245
  105OSM     OF10713   4.352   6.448  10.318 -0.6225  0.3582  0.2118
  105OSM    C2F10714   4.391   6.328  10.124 -0.6521 -0.0475  0.4255
  105OSM    H2F10715   4.360   6.226  10.155  0.7459 -0.7923 -0.5226
  105OSM    H2G10716   4.473   6.330  10.049 -0.6911  1.4934  0.3810
  105OSM    C3F10717   4.270   6.408  10.053  0.0581  0.2954 -0.4132
  105OSM    H3F10718   4.285   6.518  10.067  1.1213 -0.1172  2.4444
  105OSM    H3G10719   4.184   6.378  10.117  0.2958 -0.7436 -0.5615
  105OSM    C4F10720   4.239   6.359   9.906 -0.1465 -0.1037  0.0479
  105OSM    H4F10721   4.326   6.400   9.851 -0.4906  0.3542 -0.1588
  105OSM    H4G10722   4.151   6.409   9.861 -0.6972 -0.6480  0.5010
  105OSM    C5F10723   4.216   6.211   9.892 -0.3296 -0.1266 -0.5364
  105OSM    H5F10724   4.119   6.174   9.931  0.2080 -1.3123 -0.2556
  105OSM    H5G10725   4.289   6.137   9.931 -0.7544 -1.9348 -2.8790
  105OSM    C6F10726   4.199   6.171   9.743 -0.5218  0.6315 -0.1126
  105OSM    H6F10727   4.258   6.243   9.683  2.0297 -0.8903  0.3910
  105OSM    H6G10728   4.096   6.182   9.703 -0.4580  1.4002 -0.0816
  105OSM    C7F10729   4.232   6.025   9.712 -0.0653 -0.2586 -0.6884
  105OSM    H7F10730   4.139   5.971   9.738 -0.5579  0.7844 -0.2708
  105OSM    H7G10731   4.311   5.989   9.782 -0.5240 -1.1052 -0.5903
  105OSM    C8F10732   4.265   5.998   9.561  0.7496  0.0085  0.6568
  105OSM    H8F10733   4.315   5.900   9.572  2.3257  0.7601  0.4392
  105OSM    H8G10734   4.345   6.061   9.517 -0.4590  0.3383 -1.2226
  105OSM    C9F10735   4.136   5.989   9.481 -0.1199  0.9255 -0.0317
  105OSM    H9F10736   4.045   5.967   9.539 -0.4789  3.0925  0.3201
  105OSM   C10F10737   4.119   6.022   9.354 -0.2287  0.0937  0.1925
  105OSM   H10F10738   4.030   6.000   9.294 -0.7419  2.5450 -0.0453
  105OSM   C11F10739   4.225   6.065   9.258  0.3789  0.1913 -0.6972
  105OSM   H11F10740   4.317   6.008   9.282  1.5811  2.7450  1.1824
  105OSM   H11G10741   4.247   6.174   9.262  1.3464 -0.0358  2.1966
  105OSM   C12F10742   4.197   6.034   9.111  0.1384  0.1763  0.6227
  105OSM   H12F10743   4.094   6.056   9.076  0.5201  0.5506 -0.3007
  105OSM   H12G10744   4.206   5.923   9.101 -1.0776  0.2117 -1.4391
  105OSM   C13F10745   4.286   6.113   9.013 -0.9420  0.5388 -0.6067
  105OSM   H13F10746   4.394   6.094   9.034 -0.5144  1.7680 -1.5952
  105OSM   H13G10747   4.271   6.221   9.034  1.2294  0.9707 -0.9777
  105OSM   C14F10748   4.249   6.085   8.870 -0.6456 -0.6618 -0.3957
  105OSM   H14F10749   4.148   6.130   8.861  0.7160  2.8197  0.0763
  105OSM   H14G10750   4.249   5.977   8.844 -0.5490 -0.5020 -1.1045
  105OSM   C15F10751   4.343   6.171   8.786  0.3371  0.0768  0.1595
  105OSM   H15F10752   4.452   6.151   8.799  0.2182 -0.0163  1.1076
  105OSM   H15G10753   4.337   6.280   8.809 -1.9550  0.0839 -0.2790
  105OSM   C16F10754   4.332   6.147   8.641  0.5419  1.0147 -0.3352
  105OSM   H16F10755   4.348   6.038   8.628  2.1998  0.9163  1.9863
  105OSM   H16G10756   4.406   6.207   8.584  1.1464  0.1965 -0.4267
  105OSM   C17F10757   4.193   6.180   8.590 -0.1031 -0.9311 -0.5849
  105OSM   H17F10758   4.168   6.287   8.606 -1.6512 -1.5879  2.0307
  105OSM   H17G10759   4.125   6.120   8.656 -1.5586 -0.4398 -1.5802
  105OSM   C18F10760   4.168   6.155   8.439 -0.8842 -0.4664 -0.2006
  105OSM   H18F10761   4.058   6.145   8.423 -1.1864  1.5638  0.2827
  105OSM   H18G10762   4.225   6.071   8.395  2.7187  1.2111  0.9508
  105OSM   H18H10763   4.192   6.248   8.384  0.9308 -2.4060 -2.9650
  106OSM      N10764   4.098   0.192  11.004  0.3958  0.3267 -0.0423
  106OSM    C1510765   4.079   0.309  11.094  0.7591 -0.6974  0.3174
  106OSM   H15A10766   4.080   0.405  11.045 -0.8508 -1.0542 -0.4751
  106OSM   H15B10767   4.158   0.307  11.168 -0.4585  1.7143  1.7740
  106OSM   H15C10768   3.985   0.306  11.147  0.9170  0.3278  0.6632
  106OSM    C1410769   4.207   0.228  10.914 -0.1381 -0.1834  0.3571
  106OSM   H14A10770   4.165   0.299  10.845 -1.0573  0.4359  1.5176
  106OSM   H14B10771   4.229   0.138  10.858 -1.3341 -0.9354  1.0439
  106OSM   H14C10772   4.294   0.271  10.961 -0.5369 -0.7275  1.6307
  106OSM    C1310773   4.137   0.067  11.083 -0.1137 -0.6499 -0.2390
  106OSM   H13A10774   4.130  -0.016  11.015  0.7200  0.1319 -1.3148
  106OSM   H13B10775   4.065   0.057  11.163  0.4544  1.3645  0.6136
  106OSM   H13C10776   4.236   0.079  11.125 -0.5129 -0.2479  0.6363
  106OSM    C1210777   3.967   0.171  10.931 -0.0213 -0.0636 -0.0585
  106OSM   H12A10778   3.952   0.267  10.883  1.8146  0.3548  0.1173
  106OSM   H12B10779   3.880   0.163  10.994 -1.3258  0.6431 -1.7010
  106OSM    C1110780   3.957   0.052  10.830  0.1900  0.5400  0.5833
  106OSM   H11A10781   4.037   0.054  10.753 -1.9453 -0.8447 -1.8365
  106OSM   H11B10782   3.864   0.074  10.772  1.3426  2.3384 -0.6865
  106OSM      P10783   3.926  -0.204  10.829  0.2057 -0.6353  0.3475
  106OSM    O1310784   3.991  -0.311  10.899 -0.1138  0.2587  0.0000
  106OSM    O1410785   3.778  -0.217  10.807  0.3225 -0.6032 -0.7231
  106OSM    O1110786   3.998  -0.168  10.698 -0.7620 -0.2906 -0.1565
  106OSM    O1210787   3.953  -0.072  10.909  0.1703  0.1622  0.1921
  106OSM    C1S10788   4.072  -0.270  10.632  0.1147  0.4980  0.2998
  106OSM    H1S10789   4.051  -0.372  10.670  1.1729  0.8202  1.8385
  106OSM    H1T10790   4.181  -0.249  10.645 -0.3589  1.7320  2.8894
  106OSM     NF10791   4.080  -0.385  10.403 -0.4591  0.2311 -0.2400
  106OSM    HNF10792   4.171  -0.385  10.363 -1.1877  1.2287 -1.9973
  106OSM    C2S10793   4.038  -0.263  10.475 -0.7807 -0.3420 -0.1897
  106OSM    H2S10794   3.927  -0.253  10.469 -0.6984  0.5098 -0.5010
  106OSM    C3S10795   4.105  -0.141  10.415  0.2020  0.5156 -0.2881
  106OSM    H3S10796   4.216  -0.150  10.424  0.1529  0.8894  0.7761
  106OSM     O310797   4.085  -0.018  10.474  0.1926 -0.5926  0.4410
  106OSM    HO310798   4.048  -0.035  10.561 -0.6703 -1.3034 -0.0483
  106OSM    C4S10799   4.079  -0.135  10.268 -0.0471 -0.4445  0.7450
  106OSM    H4S10800   4.140  -0.205  10.209 -1.0782  1.8335 -3.4161
  106OSM    C5S10801   3.987  -0.062  10.201 -1.4652 -0.5483 -0.0800
  106OSM    H5S10802   3.919   0.005  10.256 -0.2898  2.0790 -1.6309
  106OSM    C6S10803   3.971  -0.070  10.047 -0.2530 -0.7713  0.2593
  106OSM    H6S10804   3.922   0.019  10.002  0.3225 -0.0461  1.0138
  106OSM    H6T10805   3.921  -0.161  10.010  1.6417 -1.5654 -0.4787
  106OSM    C7S10806   4.099  -0.081   9.954 -1.2504 -0.4893 -1.0890
  106OSM    H7S10807   4.171  -0.162   9.979  0.0075  0.3809 -1.7902
  106OSM    H7T10808   4.144   0.020   9.946 -2.6059  0.0137 -2.9676
  106OSM    C8S10809   4.050  -0.102   9.808 -0.3502  0.1222 -0.1730
  106OSM    H8S10810   3.971  -0.027   9.784 -0.0727  0.1562 -1.0290
  106OSM    H8T10811   4.000  -0.202   9.804  0.5055 -0.3842  1.2493
  106OSM    C9S10812   4.163  -0.096   9.713 -0.3677 -0.0743 -0.2821
  106OSM    H9S10813   4.238  -0.173   9.741  1.6896  1.2978 -1.7282
  106OSM    H9T10814   4.213   0.001   9.730 -0.9701 -0.1851  2.5942
  106OSM   C10S10815   4.134  -0.106   9.562 -0.5672 -0.0496  0.2117
  106OSM   H10S10816   4.212  -0.066   9.495 -2.1372 -0.6933 -2.1378
  106OSM   H10T10817   4.049  -0.038   9.536 -1.7216 -0.8038  1.8051
  106OSM   C11S10818   4.087  -0.247   9.507  0.6227 -0.0732  0.2096
  106OSM   H11S10819   3.994  -0.256   9.567  1.4848 -1.6761  1.3743
  106OSM   H11T10820   4.160  -0.329   9.522 -0.6673 -1.3689 -0.4536
  106OSM   C12S10821   4.034  -0.244   9.361 -0.0589 -0.1995  0.5356
  106OSM   H12S10822   3.994  -0.143   9.339  1.4005  0.5314  1.1064
  106OSM   H12T10823   3.948  -0.314   9.355 -1.8811  2.0082 -0.2689
  106OSM   C13S10824   4.138  -0.284   9.264  0.1227  0.2915  0.4267
  106OSM   H13S10825   4.178  -0.385   9.285 -1.0985 -0.3179 -0.1446
  106OSM   H13T10826   4.215  -0.206   9.284  0.7460 -0.6576  1.8679
  106OSM   C14S10827   4.094  -0.295   9.110  0.1215  0.0807  0.1268
  106OSM   H14S10828   4.011  -0.222   9.097  0.8616  1.3902  2.3182
  106OSM   H14T10829   4.040  -0.392   9.109 -1.5325  0.9654  0.3200
  106OSM   C15S10830   4.199  -0.290   9.006  0.2590  0.3788  0.4759
  106OSM   H15S10831   4.289  -0.351   9.030 -0.9397 -0.9147  1.9292
  106OSM   H15T10832   4.239  -0.188   8.987  1.8642 -0.0847  1.1644
  106OSM   C16S10833   4.140  -0.347   8.875 -0.1364  0.7504 -0.2235
  106OSM   H16S10834   4.139  -0.457   8.891  1.3809  0.6552 -0.7064
  106OSM   H16T10835   4.214  -0.331   8.795 -0.6397  1.9958 -0.4505
  106OSM   C17S10836   4.014  -0.290   8.827 -0.1181 -0.2729 -0.4505
  106OSM   H17S10837   4.038  -0.182   8.820  0.0097 -0.0721  2.1217
  106OSM   H17T10838   3.932  -0.304   8.900 -0.7704  2.2131 -0.6361
  106OSM   C18S10839   3.974  -0.344   8.686 -0.9079  0.1499  0.0963
  106OSM   H18S10840   3.874  -0.308   8.655 -0.6923  0.2846 -0.4423
  106OSM   H18T10841   3.976  -0.454   8.672 -0.5294  0.2640 -0.8102
  106OSM   H18U10842   4.060  -0.309   8.626  0.2527 -0.0957  1.5576
  106OSM    C1F10843   4.026  -0.507  10.413  0.0107  0.6326  0.4507
  106OSM     OF10844   3.910  -0.518  10.452 -0.0280  0.3304 -0.1641
  106OSM    C2F10845   4.120  -0.624  10.380  0.1429  0.1474  1.2064
  106OSM    H2F10846   4.218  -0.617  10.431 -0.5256 -1.3568  2.7986
  106OSM    H2G10847   4.143  -0.617  10.271  0.3038 -1.1736  1.1330
  106OSM    C3F10848   4.053  -0.762  10.401 -0.5796 -0.0546  0.2352
  106OSM    H3F10849   3.960  -0.758  10.341  0.7084 -0.3531 -1.8765
  106OSM    H3G10850   4.034  -0.770  10.510 -0.6304  2.0205  0.4074
  106OSM    C4F10851   4.130  -0.888  10.350 -0.2611 -1.0627 -0.7912
  106OSM    H4F10852   4.070  -0.977  10.376 -2.5808  1.1311  2.1758
  106OSM    H4G10853   4.226  -0.890  10.405  0.0708  0.7678 -1.2178
  106OSM    C5F10854   4.160  -0.883  10.192  0.6871  0.4068 -0.3339
  106OSM    H5F10855   4.241  -0.808  10.178  1.1825  0.0573  0.5586
  106OSM    H5G10856   4.060  -0.852  10.155 -0.5268  2.0793  3.7959
  106OSM    C6F10857   4.194  -1.023  10.142 -1.4138 -0.1663  0.2119
  106OSM    H6F10858   4.123  -1.096  10.186 -0.0775 -0.7393  1.4710
  106OSM    H6G10859   4.296  -1.052  10.172 -1.3306 -0.1021 -0.0028
  106OSM    C7F10860   4.174  -1.017   9.981  0.9265  0.6367  0.3429
  106OSM    H7F10861   4.264  -0.960   9.950  0.7863 -0.0228 -1.4049
  106OSM    H7G10862   4.085  -0.958   9.948  1.0499  1.7976  1.9419
  106OSM    C8F10863   4.203  -1.153   9.917  0.0700 -0.1730 -0.3416
  106OSM    H8F10864   4.269  -1.221   9.975  0.0999  0.9961  1.0379
  106OSM    H8G10865   4.251  -1.133   9.818 -0.8153 -1.5246 -1.0703
  106OSM    C9F10866   4.084  -1.232   9.880 -0.8720 -0.1584 -0.2620
  106OSM    H9F10867   4.001  -1.241   9.952  0.5956 -1.2819  1.3665
  106OSM   C10F10868   4.066  -1.288   9.764  0.0116  0.1232  0.6015
  106OSM   H10F10869   3.967  -1.333   9.745 -0.3163  1.3003 -0.6929
  106OSM   C11F10870   4.148  -1.291   9.640 -0.1063 -0.4349 -0.1792
  106OSM   H11F10871   4.146  -1.394   9.597 -0.2492 -1.1134  1.3655
  106OSM   H11G10872   4.254  -1.276   9.670  0.2996 -1.7536 -0.8668
  106OSM   C12F10873   4.099  -1.188   9.537  0.4874 -0.2151 -0.7927
  106OSM   H12F10874   4.085  -1.089   9.586  0.8631 -0.2882 -0.5335
  106OSM   H12G10875   3.996  -1.219   9.510  0.4786 -1.7050  0.8178
  106OSM   C13F10876   4.173  -1.172   9.408  0.5546  0.1379  0.2287
  106OSM   H13F10877   4.280  -1.147   9.425  1.1587  1.2108 -3.9115
  106OSM   H13G10878   4.131  -1.084   9.356  0.8579  0.8991  1.2470
  106OSM   C14F10879   4.168  -1.284   9.300 -0.1501  0.2104  0.1113
  106OSM   H14F10880   4.063  -1.304   9.271 -0.0459  0.7257 -0.6640
  106OSM   H14G10881   4.224  -1.369   9.343 -0.0909 -0.8273 -1.8822
  106OSM   C15F10882   4.229  -1.250   9.161  0.0044 -0.3491 -0.3417
  106OSM   H15F10883   4.330  -1.205   9.172 -0.9346  2.0004 -0.7797
  106OSM   H15G10884   4.184  -1.161   9.113  0.2984  1.3839  2.3660
  106OSM   C16F10885   4.206  -1.364   9.066 -0.6196 -0.2949  0.3054
  106OSM   H16F10886   4.100  -1.396   9.060 -0.3307 -1.0409 -1.7232
  106OSM   H16G10887   4.257  -1.458   9.096  0.0307  0.6912  2.4798
  106OSM   C17F10888   4.261  -1.321   8.935 -0.4999 -0.5438  0.3296
  106OSM   H17F10889   4.372  -1.315   8.941 -0.5669  2.1890  0.2022
  106OSM   H17G10890   4.227  -1.219   8.905 -0.1470 -0.5528 -0.1124
  106OSM   C18F10891   4.215  -1.410   8.814 -0.5712  0.0923 -0.8692
  106OSM   H18F10892   4.204  -1.514   8.851  0.5543  0.8181  1.7433
  106OSM   H18G10893   4.281  -1.405   8.725  0.8280 -0.8426  0.0892
  106OSM   H18H10894   4.117  -1.374   8.775  0.0432  1.8471 -0.9137
  107OSM      N10895   0.872   3.082  11.159 -0.6011 -0.9525  0.6580
  107OSM    C1510896   0.973   2.972  11.162 -0.2524  0.7769  0.0938
  107OSM   H15A10897   1.052   2.997  11.231 -0.6678 -0.0864  0.9008
  107OSM   H15B10898   1.016   2.956  11.065 -0.7375  1.2138 -0.1955
  107OSM   H15C10899   0.928   2.883  11.204  0.2665  0.8504  0.8233
  107OSM    C1410900   0.826   3.105  11.304  0.1350 -0.5092 -0.6346
  107OSM   H14A10901   0.763   3.188  11.333  3.9237  1.7890  1.8044
  107OSM   H14B10902   0.914   3.122  11.363 -1.5900  0.3054  1.8821
  107OSM   H14C10903   0.785   3.011  11.339  1.1638 -0.7563 -0.0624
  107OSM    C1310904   0.948   3.208  11.118 -0.2156  0.5285  0.1149
  107OSM   H13A10905   0.878   3.287  11.095 -1.1907  0.2438  1.9466
  107OSM   H13B10906   0.997   3.190  11.023  1.6581  1.4552  0.8697
  107OSM   H13C10907   1.024   3.242  11.187 -0.0368 -0.1227  0.2414
  107OSM    C1210908   0.762   3.062  11.062  0.1112  0.4079  0.1541
  107OSM   H12A10909   0.691   3.143  11.070 -1.5870 -0.9727 -0.4575
  107OSM   H12B10910   0.713   2.971  11.094  0.0692  0.6080  0.6688
  107OSM    C1110911   0.788   3.038  10.911 -0.3660  0.0100 -0.0691
  107OSM   H11A10912   0.841   3.124  10.866  1.7462 -0.5335  1.2440
  107OSM   H11B10913   0.692   3.031  10.856  1.1948 -0.8674 -2.8976
  107OSM      P10914   0.791   2.773  10.887  0.2194  0.0388  0.0508
  107OSM    O1310915   0.893   2.664  10.867  0.3943 -0.2859 -0.3276
  107OSM    O1410916   0.707   2.761  11.013 -0.5688 -0.1555 -0.2901
  107OSM    O1110917   0.695   2.790  10.761 -0.3079  0.0426  0.0607
  107OSM    O1210918   0.864   2.920  10.892  0.7139 -0.3432  0.0743
  107OSM    C1S10919   0.757   2.811  10.635  0.7093 -0.1808  0.2000
  107OSM    H1S10920   0.842   2.740  10.622  0.4119 -0.2862 -1.3369
  107OSM    H1T10921   0.807   2.909  10.621  0.5970  0.2120  2.2325
  107OSM     NF10922   0.719   2.781  10.400 -0.4750  0.5716  0.6317
  107OSM    HNF10923   0.706   2.848  10.327 -1.9661  0.5176  0.8102
  107OSM    C2S10924   0.646   2.791  10.524 -0.0843  0.2760 -0.5284
  107OSM    H2S10925   0.592   2.695  10.541  0.0440  0.1751 -0.6859
  107OSM    C3S10926   0.546   2.905  10.538  0.3602  0.7208  0.2512
  107OSM    H3S10927   0.596   3.003  10.525  1.2369  0.3665  0.8409
  107OSM     O310928   0.482   2.905  10.667 -0.7358  0.3697  0.2892
  107OSM    HO310929   0.529   2.831  10.705 -0.6808 -1.0438 -2.3047
  107OSM    C4S10930   0.443   2.888  10.425 -0.7143  0.9437 -0.0588
  107OSM    H4S10931   0.491   2.920  10.332  0.2030 -2.6236 -0.9522
  107OSM    C5S10932   0.311   2.838  10.417 -0.0865 -0.5472  0.6676
  107OSM    H5S10933   0.265   2.801  10.510  0.9784 -3.7996  0.0110
  107OSM    C6S10934   0.228   2.827  10.297  0.3088 -0.1783 -0.5666
  107OSM    H6S10935   0.150   2.906  10.306 -0.2511 -0.7705 -0.1781
  107OSM    H6T10936   0.177   2.729  10.294 -1.6373  0.7733  0.0363
  107OSM    C7S10937   0.299   2.857  10.169  0.5498 -0.1505  0.6730
  107OSM    H7S10938   0.387   2.794  10.147  0.2708  0.0076 -1.0298
  107OSM    H7T10939   0.339   2.961  10.168  1.3125 -0.3804 -2.0071
  107OSM    C8S10940   0.208   2.841  10.042  0.3308 -0.5360 -0.5898
  107OSM    H8S10941   0.118   2.904  10.061  0.7212 -0.7042  2.2374
  107OSM    H8T10942   0.170   2.737  10.036 -3.8189  0.7945 -0.9271
  107OSM    C9S10943   0.281   2.880   9.916  0.1768  0.8948  0.0136
  107OSM    H9S10944   0.387   2.847   9.925  0.2934  0.3476 -2.5347
  107OSM    H9T10945   0.274   2.991   9.924 -2.4138  0.7469  0.6829
  107OSM   C10S10946   0.239   2.819   9.786 -0.6144  0.1628  0.4442
  107OSM   H10S10947   0.137   2.852   9.754 -1.2885 -0.8494  1.4399
  107OSM   H10T10948   0.214   2.714   9.810 -0.2323 -0.3247 -1.1825
  107OSM   C11S10949   0.344   2.834   9.678  0.1729 -0.3930  0.8468
  107OSM   H11S10950   0.436   2.785   9.717 -0.7610 -1.6631  1.5352
  107OSM   H11T10951   0.377   2.938   9.656 -2.0861 -0.0103 -1.0610
  107OSM   C12S10952   0.302   2.776   9.539  0.5517  0.1496  0.4325
  107OSM   H12S10953   0.195   2.803   9.525  0.0736 -1.3827  0.8713
  107OSM   H12T10954   0.305   2.667   9.559  1.7766  0.5209  2.6036
  107OSM   C13S10955   0.386   2.812   9.421  0.5238  0.4871  0.1255
  107OSM   H13S10956   0.490   2.827   9.456  1.1948 -0.5570 -1.2997
  107OSM   H13T10957   0.350   2.908   9.379  0.2305 -0.7630 -2.6643
  107OSM   C14S10958   0.378   2.705   9.313  0.3896 -0.2043 -0.2041
  107OSM   H14S10959   0.270   2.691   9.293  0.4450  0.7560 -1.3420
  107OSM   H14T10960   0.420   2.614   9.360  1.8219  0.8461  0.6306
  107OSM   C15S10961   0.456   2.738   9.186 -0.6839  0.0003 -0.1987
  107OSM   H15S10962   0.557   2.763   9.226  0.3637 -4.9716  0.8610
  107OSM   H15T10963   0.400   2.814   9.127 -3.4389  0.1534  2.4107
  107OSM   C16S10964   0.483   2.619   9.090 -0.2877  0.4073  0.4681
  107OSM   H16S10965   0.387   2.576   9.052  0.2989 -0.6394  0.1323
  107OSM   H16T10966   0.514   2.541   9.163 -0.8775  1.3352  1.7560
  107OSM   C17S10967   0.578   2.647   8.972  0.0966  0.0164 -0.1303
  107OSM   H17S10968   0.553   2.744   8.924  2.2392  0.5322 -0.2813
  107OSM   H17T10969   0.572   2.570   8.892 -0.6531 -0.1600  0.0867
  107OSM   C18S10970   0.730   2.647   9.005  0.6810  0.0674 -0.2228
  107OSM   H18S10971   0.786   2.699   8.924 -0.5057  1.5240 -0.1591
  107OSM   H18T10972   0.774   2.547   9.023  1.0295  0.6269  2.3752
  107OSM   H18U10973   0.738   2.708   9.098  0.0925  0.6423 -0.5382
  107OSM    C1F10974   0.806   2.688  10.374 -0.5218 -0.1105 -0.9131
  107OSM     OF10975   0.801   2.579  10.437 -0.9539 -0.8223  0.7140
  107OSM    C2F10976   0.903   2.711  10.264 -0.1783  0.9159  0.4214
  107OSM    H2F10977   1.002   2.709  10.314  0.3812  2.4980 -0.5738
  107OSM    H2G10978   0.885   2.805  10.208 -1.1417  0.7212  0.3830
  107OSM    C3F10979   0.897   2.602  10.156  0.5991 -0.4119 -0.4054
  107OSM    H3F10980   0.793   2.604  10.119  0.6370 -1.5696 -0.6048
  107OSM    H3G10981   0.910   2.497  10.189 -1.8212 -0.6642 -0.1338
  107OSM    C4F10982   0.996   2.631  10.044 -0.3080  0.2716 -0.2762
  107OSM    H4F10983   1.100   2.653  10.078 -0.7060 -0.6580  1.7012
  107OSM    H4G10984   0.960   2.718   9.986  2.3012  0.4410 -1.8340
  107OSM    C5F10985   1.007   2.516   9.942 -0.1524 -0.0595 -0.1805
  107OSM    H5F10986   1.037   2.424   9.995 -1.3581  0.2230  1.0590
  107OSM    H5G10987   1.079   2.534   9.859  1.7262 -1.4585  1.0712
  107OSM    C6F10988   0.877   2.501   9.872 -0.1694 -0.2161  0.2809
  107OSM    H6F10989   0.791   2.492   9.942  0.7042 -0.5309  1.3392
  107OSM    H6G10990   0.876   2.407   9.812 -2.4788 -0.3835  0.4968
  107OSM    C7F10991   0.859   2.600   9.763  0.0684  0.0880 -0.5903
  107OSM    H7F10992   0.952   2.600   9.702  1.0723 -0.4716  0.8610
  107OSM    H7G10993   0.848   2.698   9.814  2.4069  0.4110 -0.5731
  107OSM    C8F10994   0.738   2.571   9.661  0.5483  0.2588  0.3850
  107OSM    H8F10995   0.644   2.591   9.717  0.9875  1.1701  0.8119
  107OSM    H8G10996   0.737   2.467   9.622  0.3968  0.5961 -0.5306
  107OSM    C9F10997   0.739   2.672   9.546 -0.7485  0.0522  0.0959
  107OSM    H9F10998   0.743   2.778   9.576 -0.0284 -0.3029  1.3389
  107OSM   C10F10999   0.743   2.646   9.417  0.1600  0.9798 -0.2081
  107OSM   H10F11000   0.742   2.732   9.347  0.7308  0.0581 -1.3797
  107OSM   C11F11001   0.757   2.506   9.355 -0.0340  0.5736  0.5092
  107OSM   H11F11002   0.690   2.497   9.266 -1.5522 -1.7485  1.7911
  107OSM   H11G11003   0.719   2.425   9.420 -0.9159  0.5638 -0.0019
  107OSM   C12F11004   0.899   2.471   9.297  0.6516 -0.3065  0.1770
  107OSM   H12F11005   0.970   2.488   9.380 -1.2539  0.8514  1.6735
  107OSM   H12G11006   0.925   2.542   9.216  0.0943 -1.9014 -1.4712
  107OSM   C13F11007   0.910   2.324   9.242  0.5545  0.0887  0.1070
  107OSM   H13F11008   0.848   2.326   9.150 -0.8949 -2.3152  0.9244
  107OSM   H13G11009   0.860   2.261   9.319 -0.3961  2.8005  1.8719
  107OSM   C14F11010   1.050   2.266   9.215 -0.5064 -0.4460 -0.0357
  107OSM   H14F11011   1.096   2.271   9.316 -0.0499  2.7581 -0.2896
  107OSM   H14G11012   1.097   2.348   9.155 -0.4228 -1.3299 -1.2153
  107OSM   C15F11013   1.060   2.125   9.148 -0.3368  0.1665 -0.0620
  107OSM   H15F11014   1.008   2.144   9.052  1.6053  4.8099 -0.4285
  107OSM   H15G11015   1.001   2.053   9.209  2.4760 -1.1900  1.2155
  107OSM   C16F11016   1.202   2.085   9.118 -0.0431 -0.2227  0.2413
  107OSM   H16F11017   1.248   2.080   9.220 -0.0167  0.7048  0.2918
  107OSM   H16G11018   1.256   2.159   9.054 -0.4357 -0.8319 -0.8093
  107OSM   C17F11019   1.213   1.960   9.029  0.4559 -0.4306 -0.6695
  107OSM   H17F11020   1.178   1.984   8.926 -1.3390 -0.2077 -0.0436
  107OSM   H17G11021   1.145   1.883   9.070 -0.5421  2.2401  3.1380
  107OSM   C18F11022   1.350   1.905   9.021 -0.0839 -0.3063  0.3351
  107OSM   H18F11023   1.406   1.972   8.952 -1.0133  0.0239 -0.1167
  107OSM   H18G11024   1.357   1.800   8.984 -0.8437  0.3342 -1.7960
  107OSM   H18H11025   1.408   1.902   9.115  2.1340  0.2494 -0.9438
  108OSM      N11026   4.777   3.891  11.157  0.7812  0.3687 -0.2539
  108OSM    C1511027   4.690   3.916  11.283 -0.2390  0.2220 -0.0863
  108OSM   H15A11028   4.718   4.002  11.341 -2.4181  1.4972 -0.8242
  108OSM   H15B11029   4.682   3.834  11.353  1.0287 -0.9999 -1.3079
  108OSM   H15C11030   4.590   3.937  11.247  0.1260 -0.0438 -1.3213
  108OSM    C1411031   4.910   3.846  11.198  0.2234 -0.0597 -0.0289
  108OSM   H14A11032   4.908   3.755  11.256 -0.1402 -0.1645 -0.2037
  108OSM   H14B11033   4.955   3.924  11.258  0.1659  0.9645 -1.2650
  108OSM   H14C11034   4.980   3.831  11.117 -0.7270 -2.1451 -0.5243
  108OSM    C1311035   4.701   3.783  11.084 -0.8896  0.0180 -0.5486
  108OSM   H13A11036   4.608   3.826  11.052 -0.3321  1.0663 -0.8090
  108OSM   H13B11037   4.694   3.695  11.146  0.7499 -1.1040 -1.8683
  108OSM   H13C11038   4.755   3.751  10.996  0.7025 -0.1282  0.4472
  108OSM    C1211039   4.787   4.029  11.085 -0.6990  0.0840 -0.0842
  108OSM   H12A11040   4.826   4.103  11.154  0.3081  0.7338 -1.3042
  108OSM   H12B11041   4.688   4.060  11.056 -0.9518 -1.7788 -1.3936
  108OSM    C1111042   4.866   4.032  10.957 -0.0066 -0.2009 -0.2308
  108OSM   H11A11043   4.959   3.973  10.964  0.4432  0.6778  2.3787
  108OSM   H11B11044   4.887   4.141  10.952 -0.5627 -0.1335 -1.5803
  108OSM      P11045   4.695   4.077  10.753 -0.1178 -0.0342  0.2658
  108OSM    O1311046   4.568   3.999  10.751  0.5792 -0.2523  0.2081
  108OSM    O1411047   4.692   4.216  10.801 -0.4423  1.0271  0.0200
  108OSM    O1111048   4.767   4.070  10.611  0.1410  0.1258  0.1029
  108OSM    O1211049   4.797   3.990  10.841  0.3000 -0.5945 -0.0945
  108OSM    C1S11050   4.765   3.953  10.530  0.1803 -0.4128  0.1829
  108OSM    H1S11051   4.726   3.858  10.571 -0.7460 -0.8357 -1.5712
  108OSM    H1T11052   4.868   3.927  10.495 -0.9904 -1.2703 -2.9810
  108OSM     NF11053   4.682   3.856  10.311  0.0098  0.3375  0.4079
  108OSM    HNF11054   4.749   3.852  10.237 -1.7824  0.5979 -1.2931
  108OSM    C2S11055   4.686   3.977  10.394 -1.0309  0.1340 -0.6233
  108OSM    H2S11056   4.583   4.009  10.424 -0.6831 -0.5137  1.4545
  108OSM    C3S11057   4.756   4.102  10.323 -0.1798 -0.4566 -0.1383
  108OSM    H3S11058   4.860   4.073  10.299  0.7118  2.5483 -0.3198
  108OSM     O311059   4.768   4.227  10.392  0.4289  0.0219 -0.5965
  108OSM    HO311060   4.753   4.214  10.486 -0.3731  2.5691 -0.2986
  108OSM    C4S11061   4.699   4.123  10.185 -0.3193  0.3394  0.3360
  108OSM    H4S11062   4.756   4.078  10.103  0.7756 -0.5297  1.5355
  108OSM    C5S11063   4.595   4.193  10.140  0.0643  0.0760  0.1585
  108OSM    H5S11064   4.541   4.250  10.216  0.6930  1.4752 -0.4101
  108OSM    C6S11065   4.543   4.198   9.993 -0.8603 -0.5019 -0.7367
  108OSM    H6S11066   4.541   4.305   9.960 -0.1324 -0.7938 -1.8007
  108OSM    H6T11067   4.435   4.174   9.995 -1.0980  0.5302  1.1336
  108OSM    C7S11068   4.619   4.114   9.884 -0.0886 -0.7966 -0.3189
  108OSM    H7S11069   4.621   4.007   9.913 -1.2968 -0.8647 -0.4522
  108OSM    H7T11070   4.721   4.158   9.888 -0.5789  0.4959 -1.2345
  108OSM    C8S11071   4.565   4.129   9.743  0.1391 -0.6834  0.0826
  108OSM    H8S11072   4.456   4.110   9.745 -0.0177  0.2004 -0.0715
  108OSM    H8T11073   4.603   4.051   9.673 -0.6960 -0.1994 -0.9358
  108OSM    C9S11074   4.586   4.269   9.682 -0.5349 -0.1103  0.7690
  108OSM    H9S11075   4.693   4.302   9.687 -0.7884  0.5968  1.8184
  108OSM    H9T11076   4.529   4.342   9.742 -1.6361 -0.1012 -0.2612
  108OSM   C10S11077   4.526   4.278   9.542 -0.4274  0.2085  0.6837
  108OSM   H10S11078   4.512   4.387   9.527 -0.6748  0.1749  0.6724
  108OSM   H10T11079   4.425   4.233   9.548 -0.2268 -0.2876  0.3988
  108OSM   C11S11080   4.613   4.220   9.428 -0.5733 -0.0989  0.6268
  108OSM   H11S11081   4.648   4.117   9.452 -0.3873 -0.2307 -0.1879
  108OSM   H11T11082   4.702   4.283   9.411 -0.4462 -1.0170 -2.7239
  108OSM   C12S11083   4.544   4.219   9.290 -0.5656  0.6362  0.4278
  108OSM   H12S11084   4.487   4.311   9.266  2.2637  2.4074  0.0798
  108OSM   H12T11085   4.479   4.128   9.289 -0.1440  0.3328  0.0381
  108OSM   C13S11086   4.645   4.218   9.166  0.5468  0.4080 -0.9791
  108OSM   H13S11087   4.727   4.147   9.189 -1.0597 -1.2194 -0.0298
  108OSM   H13T11088   4.678   4.324   9.152 -2.1732  1.3282 -1.0011
  108OSM   C14S11089   4.578   4.143   9.047  0.5041 -0.1460  0.7552
  108OSM   H14S11090   4.471   4.169   9.030  0.9509  1.1828 -0.2096
  108OSM   H14T11091   4.579   4.035   9.073 -0.6306 -0.0603  1.2439
  108OSM   C15S11092   4.642   4.157   8.905  0.2066 -0.3239 -0.8297
  108OSM   H15S11093   4.597   4.071   8.852 -0.4037  0.3789 -1.4755
  108OSM   H15T11094   4.752   4.141   8.916  0.5935  2.3449  0.0270
  108OSM   C16S11095   4.617   4.292   8.830 -0.3036 -0.0559 -0.2710
  108OSM   H16S11096   4.668   4.290   8.731  0.8265  1.2608  0.2440
  108OSM   H16T11097   4.658   4.372   8.895  1.9983 -0.4432 -1.1430
  108OSM   C17S11098   4.468   4.329   8.791  0.2164  0.1034 -0.1722
  108OSM   H17S11099   4.472   4.428   8.740  2.7165  0.7679  1.1072
  108OSM   H17T11100   4.401   4.340   8.879  0.4173 -0.9597  0.1273
  108OSM   C18S11101   4.406   4.230   8.697 -0.4476  0.2180 -0.2561
  108OSM   H18S11102   4.467   4.232   8.604  0.4555  2.4604  0.3166
  108OSM   H18T11103   4.298   4.250   8.677 -0.4652 -0.1902 -0.5961
  108OSM   H18U11104   4.413   4.130   8.744 -1.3163  0.8089  1.2136
  108OSM    C1F11105   4.606   3.750  10.349 -0.0697 -0.3101  0.3265
  108OSM     OF11106   4.515   3.764  10.435 -0.3943 -0.5564 -0.0801
  108OSM    C2F11107   4.636   3.613  10.291 -0.2318  0.4642  0.4003
  108OSM    H2F11108   4.639   3.534  10.369 -2.3515  0.1777  0.2533
  108OSM    H2G11109   4.740   3.616  10.252 -0.6732  1.5340 -0.7297
  108OSM    C3F11110   4.543   3.571  10.186  0.7679  0.5761  0.8908
  108OSM    H3F11111   4.434   3.581  10.206  0.8237  1.0814  0.9654
  108OSM    H3G11112   4.561   3.465  10.159  0.8600  0.1166  2.6418
  108OSM    C4F11113   4.561   3.654  10.057 -0.3805 -0.7519  0.8421
  108OSM    H4F11114   4.660   3.621  10.020 -1.8384 -0.4616 -3.9948
  108OSM    H4G11115   4.577   3.762  10.075 -1.9978 -0.6060  1.6167
  108OSM    C5F11116   4.454   3.649   9.949  0.6961 -0.5964 -0.1049
  108OSM    H5F11117   4.356   3.683   9.988 -0.1294 -0.3459 -2.2740
  108OSM    H5G11118   4.453   3.544   9.911  2.6345 -1.0624  0.9836
  108OSM    C6F11119   4.486   3.741   9.825  0.4105 -0.0369 -0.0832
  108OSM    H6F11120   4.587   3.716   9.787  0.7218  0.9053  0.0963
  108OSM    H6G11121   4.505   3.842   9.868  2.4795 -0.4655  0.0864
  108OSM    C7F11122   4.370   3.739   9.722 -0.3934 -0.2240 -0.7182
  108OSM    H7F11123   4.274   3.770   9.768 -0.4790 -2.1488  0.5082
  108OSM    H7G11124   4.366   3.632   9.694 -0.2045 -1.0413  2.1581
  108OSM    C8F11125   4.403   3.801   9.585 -0.2630  0.3283 -0.3974
  108OSM    H8F11126   4.504   3.758   9.566 -1.0386 -0.9469 -1.8629
  108OSM    H8G11127   4.417   3.910   9.601 -0.6430  0.1335  1.4886
  108OSM    C9F11128   4.315   3.781   9.465 -0.4721 -0.8911  0.2369
  108OSM    H9F11129   4.210   3.815   9.464 -0.4009 -0.4653  2.5269
  108OSM   C10F11130   4.359   3.714   9.354  0.3591  0.6202 -0.6760
  108OSM   H10F11131   4.292   3.702   9.268 -1.0412  1.6287  0.2382
  108OSM   C11F11132   4.492   3.643   9.342  0.4953 -0.0192  0.4150
  108OSM   H11F11133   4.486   3.566   9.262 -1.4269  0.2829  0.2224
  108OSM   H11G11134   4.544   3.604   9.431  0.2644  0.8223  0.9337
  108OSM   C12F11135   4.588   3.752   9.274  0.2705  0.0305 -0.1566
  108OSM   H12F11136   4.597   3.848   9.329  1.8862  1.0695 -2.0828
  108OSM   H12G11137   4.558   3.772   9.169  0.3503  2.3965  0.2198
  108OSM   C13F11138   4.728   3.697   9.252  0.3086  0.0175  0.2759
  108OSM   H13F11139   4.719   3.606   9.189 -0.7427 -1.2006  2.0977
  108OSM   H13G11140   4.761   3.666   9.354  0.8960 -2.3520 -0.5546
  108OSM   C14F11141   4.824   3.792   9.178 -0.1814  0.2480  0.4326
  108OSM   H14F11142   4.927   3.751   9.186  0.1621  1.2285  1.2648
  108OSM   H14G11143   4.822   3.894   9.223 -2.6735  0.4080  0.1169
  108OSM   C15F11144   4.802   3.798   9.023  0.0102 -0.6409  0.5549
  108OSM   H15F11145   4.713   3.861   9.003 -0.3706 -0.5445  2.3248
  108OSM   H15G11146   4.775   3.703   8.973  0.4444 -0.4573 -0.0358
  108OSM   C16F11147   4.933   3.847   8.962 -0.2292  0.0112  0.0221
  108OSM   H16F11148   5.015   3.773   8.975 -0.1706 -0.3117 -1.8909
  108OSM   H16G11149   4.965   3.942   9.011  0.9634  0.2110 -1.0830
  108OSM   C17F11150   4.918   3.887   8.812 -0.0394 -0.2556 -0.8734
  108OSM   H17F11151   4.859   3.980   8.823  1.6699  0.5884  2.4271
  108OSM   H17G11152   4.861   3.804   8.765 -0.3313 -0.0898 -0.8113
  108OSM   C18F11153   5.039   3.913   8.724  0.0076  0.1814  0.0812
  108OSM   H18F11154   5.104   3.826   8.698  1.4291  1.3963 -0.5932
  108OSM   H18G11155   5.105   3.992   8.767 -0.7354  1.1917 -0.5856
  108OSM   H18H11156   5.002   3.946   8.624 -1.0920 -2.0970 -0.3229
  109OSM      N11157   2.965   2.041  11.515 -0.2746 -0.1795  0.1576
  109OSM    C1511158   2.819   2.069  11.541  0.5789 -0.5250 -0.4425
  109OSM   H15A11159   2.771   1.994  11.602 -0.1467  0.7281  0.5736
  109OSM   H15B11160   2.782   2.061  11.439  1.6386  1.8551 -1.0772
  109OSM   H15C11161   2.802   2.168  11.580 -0.1473 -1.5755  2.1445
  109OSM    C1411162   3.041   2.060  11.654  0.7265  0.6294  0.3590
  109OSM   H14A11163   3.001   1.989  11.725 -1.2854  0.7898 -0.5480
  109OSM   H14B11164   3.024   2.153  11.706 -1.2059  0.1171  0.7023
  109OSM   H14C11165   3.147   2.042  11.643  0.4273  0.1229 -2.2756
  109OSM    C1311166   2.986   1.901  11.469 -0.2462  0.6655 -0.3656
  109OSM   H13A11167   2.932   1.884  11.378  0.2191  0.1418 -0.5496
  109OSM   H13B11168   2.953   1.830  11.543 -1.5515  0.2978 -1.2695
  109OSM   H13C11169   3.090   1.876  11.452 -0.2472 -0.1172  0.6821
  109OSM    C1211170   3.022   2.139  11.423  0.3617  0.3406 -0.5456
  109OSM   H12A11171   3.130   2.132  11.425  0.2873 -1.0432  1.6044
  109OSM   H12B11172   3.003   2.239  11.460  3.2410  0.9945 -0.5182
  109OSM    C1111173   2.965   2.129  11.276  0.2281 -1.0112 -0.3165
  109OSM   H11A11174   3.003   2.043  11.217 -0.7194 -2.1127  0.6341
  109OSM   H11B11175   3.008   2.221  11.230  0.7481 -1.1982 -0.2162
  109OSM      P11176   2.744   2.254  11.266 -0.2522  0.2950  0.1360
  109OSM    O1311177   2.603   2.213  11.281 -0.3303 -0.3358  0.2178
  109OSM    O1411178   2.805   2.350  11.363  0.1196 -0.0679 -0.0717
  109OSM    O1111179   2.759   2.309  11.117  0.3087 -0.0219  0.6682
  109OSM    O1211180   2.827   2.125  11.271  0.1375  0.5241  0.4504
  109OSM    C1S11181   2.737   2.239  11.000  0.3964 -0.2590  0.3228
  109OSM    H1S11182   2.732   2.130  11.016 -0.6430 -0.0172  1.8895
  109OSM    H1T11183   2.825   2.257  10.934  0.2338 -2.7226 -0.6648
  109OSM     NF11184   2.596   2.197  10.806 -1.0356 -0.4715  0.5682
  109OSM    HNF11185   2.623   2.239  10.720 -0.4496 -1.9229  0.0021
  109OSM    C2S11186   2.609   2.282  10.923 -0.0910  0.8803  0.3148
  109OSM    H2S11187   2.513   2.279  10.980 -0.9515  1.5046 -1.0545
  109OSM    C3S11188   2.624   2.436  10.890 -0.2416 -0.5256 -0.0092
  109OSM    H3S11189   2.717   2.460  10.834 -0.7301  0.9130 -0.2469
  109OSM     O311190   2.631   2.520  11.003  0.2694  0.5013 -0.3285
  109OSM    HO311191   2.665   2.462  11.071 -0.5097  0.5856  0.1508
  109OSM    C4S11192   2.504   2.475  10.808  0.1092  0.6763 -0.0465
  109OSM    H4S11193   2.421   2.409  10.836  2.5842 -3.2519 -1.0598
  109OSM    C5S11194   2.499   2.569  10.713  0.3355  0.2710  0.1771
  109OSM    H5S11195   2.590   2.629  10.696 -0.0246  1.1062  1.1440
  109OSM    C6S11196   2.371   2.589  10.634  0.0841 -0.2498 -0.2959
  109OSM    H6S11197   2.354   2.699  10.634 -0.6926 -0.3653  0.5067
  109OSM    H6T11198   2.291   2.536  10.689  0.8200 -0.3145  0.7432
  109OSM    C7S11199   2.357   2.528  10.496 -0.0744 -0.6893 -0.3024
  109OSM    H7S11200   2.249   2.543  10.473 -1.1114 -0.8417  3.7052
  109OSM    H7T11201   2.378   2.419  10.499  1.4903 -0.3940  0.8144
  109OSM    C8S11202   2.452   2.579  10.389 -0.9082  0.2323  0.7212
  109OSM    H8S11203   2.555   2.540  10.406 -0.9423 -0.5621 -0.7116
  109OSM    H8T11204   2.472   2.688  10.400 -0.0763  0.0407  1.1746
  109OSM    C9S11205   2.394   2.540  10.251  0.1147  0.0675 -0.0595
  109OSM    H9S11206   2.441   2.611  10.180  1.3048 -0.5556  0.0762
  109OSM    H9T11207   2.284   2.556  10.258 -0.1309 -0.5773 -1.8910
  109OSM   C10S11208   2.408   2.394  10.214  0.6587  0.1720  0.2785
  109OSM   H10S11209   2.358   2.334  10.293 -0.1622  2.9726  2.0427
  109OSM   H10T11210   2.516   2.369  10.221  0.5629 -0.4180 -0.3059
  109OSM   C11S11211   2.354   2.357  10.075  0.8948  1.1848  0.8560
  109OSM   H11S11212   2.245   2.379  10.071  0.2763 -1.6720 -0.3969
  109OSM   H11T11213   2.364   2.247  10.076 -0.7282  0.9934 -0.3096
  109OSM   C12S11214   2.417   2.431   9.956 -0.0228  0.3699 -0.1175
  109OSM   H12S11215   2.524   2.405   9.940  0.3755  1.2065  1.0256
  109OSM   H12T11216   2.399   2.541   9.959  0.4567  0.4311  2.3718
  109OSM   C13S11217   2.352   2.385   9.829 -0.3417 -0.3742  0.4878
  109OSM   H13S11218   2.254   2.437   9.822 -0.1387 -0.1078 -0.5165
  109OSM   H13T11219   2.345   2.274   9.835 -1.8161 -0.3516 -0.2206
  109OSM   C14S11220   2.427   2.432   9.701 -0.2265  0.2372  0.3634
  109OSM   H14S11221   2.521   2.372   9.698 -0.3183  0.0771  0.6996
  109OSM   H14T11222   2.466   2.534   9.718 -0.1039  0.4316 -0.9735
  109OSM   C15S11223   2.363   2.424   9.567 -0.0261  0.6743 -0.1204
  109OSM   H15S11224   2.431   2.480   9.499 -1.0197  1.1223 -0.7811
  109OSM   H15T11225   2.266   2.477   9.551  0.5022  3.1433  3.7134
  109OSM   C16S11226   2.359   2.278   9.503 -0.0627 -0.0438  0.0685
  109OSM   H16S11227   2.335   2.202   9.581 -2.1780 -0.2117 -0.6689
  109OSM   H16T11228   2.455   2.242   9.460 -0.0961 -1.2272  0.9212
  109OSM   C17S11229   2.274   2.276   9.380  0.2529 -0.2002  0.4039
  109OSM   H17S11230   2.175   2.327   9.392 -0.9661 -2.0328 -1.2700
  109OSM   H17T11231   2.239   2.172   9.363  1.1616 -0.5282  0.5288
  109OSM   C18S11232   2.340   2.328   9.252 -0.3573 -0.4346  0.0454
  109OSM   H18S11233   2.373   2.433   9.266  0.6202 -0.7681  0.3422
  109OSM   H18T11234   2.285   2.323   9.156  2.5419 -2.4666 -1.6804
  109OSM   H18U11235   2.435   2.274   9.234  0.8948  0.8978  2.2016
  109OSM    C1F11236   2.567   2.070  10.808 -0.5366  0.6313  0.0873
  109OSM     OF11237   2.532   2.012  10.912 -0.0320 -0.1812  0.2167
  109OSM    C2F11238   2.566   2.005  10.680  0.2367  0.0960 -0.1771
  109OSM    H2F11239   2.620   2.069  10.607 -0.6470 -0.7279 -1.5862
  109OSM    H2G11240   2.468   2.003  10.629  0.6926 -0.0283 -1.0601
  109OSM    C3F11241   2.635   1.865  10.679 -0.1165  0.2934 -0.7753
  109OSM    H3F11242   2.570   1.809  10.750  0.6487  0.3083 -0.0361
  109OSM    H3G11243   2.733   1.893  10.724 -0.3793  0.4537 -0.2900
  109OSM    C4F11244   2.626   1.803  10.543 -0.0710 -1.1656 -0.6959
  109OSM    H4F11245   2.688   1.866  10.475 -0.1834 -0.4951 -0.1947
  109OSM    H4G11246   2.525   1.824  10.502  0.4138 -0.7757 -1.7275
  109OSM    C5F11247   2.656   1.660  10.532  0.1791 -0.4384  0.0488
  109OSM    H5F11248   2.601   1.588  10.597 -1.8690  1.1582  0.1861
  109OSM    H5G11249   2.762   1.646  10.561 -0.0453 -4.5856 -0.5059
  109OSM    C6F11250   2.630   1.601  10.396 -0.0137  0.5097 -0.2217
  109OSM    H6F11251   2.588   1.677  10.326 -0.4178 -0.8373 -1.5004
  109OSM    H6G11252   2.544   1.532  10.407  0.5745 -0.2895 -0.5505
  109OSM    C7F11253   2.753   1.527  10.342  0.1160 -0.3966  0.1685
  109OSM    H7F11254   2.791   1.448  10.410 -0.0011 -0.8841 -0.3247
  109OSM    H7G11255   2.827   1.610  10.337 -2.8925  2.4843 -0.0683
  109OSM    C8F11256   2.731   1.475  10.201 -0.2003 -0.3584 -0.5656
  109OSM    H8F11257   2.670   1.549  10.144  1.0144  0.5694 -0.7073
  109OSM    H8G11258   2.661   1.389  10.202 -0.5088 -0.1010  0.4046
  109OSM    C9F11259   2.859   1.467  10.125 -0.1811  0.0151 -0.3331
  109OSM    H9F11260   2.938   1.411  10.178 -0.0832 -0.9728 -1.4594
  109OSM   C10F11261   2.893   1.520  10.008  0.2539  0.4999 -0.9142
  109OSM   H10F11262   2.993   1.494   9.972  0.2328  0.7226 -1.1360
  109OSM   C11F11263   2.800   1.613   9.929 -0.1652  0.0560  0.2839
  109OSM   H11F11264   2.806   1.704   9.992  0.0823  3.3450 -4.0136
  109OSM   H11G11265   2.694   1.581   9.920 -0.7491  2.1309 -0.9304
  109OSM   C12F11266   2.842   1.655   9.787  0.1177 -0.3861 -0.1899
  109OSM   H12F11267   2.935   1.715   9.797  0.8971 -1.5829 -0.0823
  109OSM   H12G11268   2.770   1.722   9.737 -0.1458 -0.1444  0.4975
  109OSM   C13F11269   2.872   1.536   9.701  0.2384  0.2655  0.0796
  109OSM   H13F11270   2.779   1.475   9.699  0.9226 -0.8034 -0.9747
  109OSM   H13G11271   2.959   1.481   9.744 -0.9082 -0.1348  1.9815
  109OSM   C14F11272   2.916   1.587   9.568  0.1423  0.5708  0.3933
  109OSM   H14F11273   3.005   1.649   9.588 -0.1941  1.2864 -0.3029
  109OSM   H14G11274   2.836   1.657   9.536  0.0998  1.2640  1.9194
  109OSM   C15F11275   2.938   1.476   9.469 -1.0788  0.5510  0.3367
  109OSM   H15F11276   2.855   1.403   9.460 -0.8513  0.0609  1.9084
  109OSM   H15G11277   3.023   1.406   9.483  0.4695  1.3170 -3.7630
  109OSM   C16F11278   2.948   1.543   9.332 -0.8403 -0.1201 -0.0654
  109OSM   H16F11279   3.031   1.616   9.346  1.2840 -2.3532 -0.3607
  109OSM   H16G11280   2.854   1.594   9.302 -0.3555  1.6209  1.1883
  109OSM   C17F11281   2.981   1.435   9.221  0.6797 -0.6477  0.5097
  109OSM   H17F11282   2.882   1.386   9.207  0.1459  0.9416 -1.6626
  109OSM   H17G11283   3.058   1.367   9.264  1.7637  1.1679  1.5488
  109OSM   C18F11284   3.032   1.491   9.087 -0.2950  0.3033 -0.5680
  109OSM   H18F11285   3.135   1.532   9.100 -1.1054  1.6346  2.2997
  109OSM   H18G11286   2.973   1.578   9.054 -1.9059  0.1198  1.6482
  109OSM   H18H11287   3.044   1.415   9.006 -0.5653 -0.1515 -0.1870
  110OSM      N11288   5.178   3.298  10.845 -0.3520 -0.4637  0.5284
  110OSM    C1511289   5.249   3.419  10.782 -0.3697  0.0099 -0.6512
  110OSM   H15A11290   5.346   3.435  10.826  0.2672  2.4974 -2.6833
  110OSM   H15B11291   5.177   3.500  10.788 -3.7665 -2.8113  0.3472
  110OSM   H15C11292   5.258   3.399  10.677  2.0313  0.6167 -0.6170
  110OSM    C1411293   5.150   3.335  10.990  0.1695  0.6200  0.2078
  110OSM   H14A11294   5.090   3.425  10.989 -2.1529 -0.7710 -2.7028
  110OSM   H14B11295   5.240   3.363  11.043 -1.6683  0.2614  3.8584
  110OSM   H14C11296   5.094   3.256  11.038 -0.3693  0.7052 -0.2642
  110OSM    C1311297   5.049   3.267  10.772 -0.1983  0.2557  0.6702
  110OSM   H13A11298   5.066   3.220  10.677  1.0417  3.5225 -0.8699
  110OSM   H13B11299   4.988   3.355  10.754 -3.9275 -1.7748  2.1362
  110OSM   H13C11300   4.986   3.197  10.826  0.3184  1.0776  2.4258
  110OSM    C1211301   5.264   3.179  10.828  0.1323 -0.4677  0.3257
  110OSM   H12A11302   5.262   3.149  10.724 -0.5989 -0.2391  0.2740
  110OSM   H12B11303   5.228   3.093  10.882 -0.8324  0.2008  0.7593
  110OSM    C1111304   5.409   3.184  10.885 -0.3688  0.4820 -0.1120
  110OSM   H11A11305   5.403   3.245  10.977  1.2641  1.8896 -0.8773
  110OSM   H11B11306   5.473   3.247  10.819  0.1034  0.8933  0.7288
  110OSM      P11307   5.571   2.971  10.856 -0.1144  0.4714  0.3395
  110OSM    O1311308   5.698   3.039  10.880  0.1390 -0.0590 -0.2374
  110OSM    O1411309   5.560   2.834  10.907 -0.0824  0.4602 -0.1553
  110OSM    O1111310   5.536   2.961  10.705 -0.1187  0.0772 -0.3455
  110OSM    O1211311   5.455   3.050  10.922  0.8792 -0.0262 -0.7247
  110OSM    C1S11312   5.426   2.889  10.646 -0.5973 -0.5487  0.6789
  110OSM    H1S11313   5.334   2.914  10.704 -0.5864  0.0313  0.4543
  110OSM    H1T11314   5.434   2.779  10.655 -1.8567 -0.6134  1.3425
  110OSM     NF11315   5.258   2.913  10.465 -0.7538  0.1504  0.1340
  110OSM    HNF11316   5.254   2.824  10.420 -1.4706  0.0390  0.4144
  110OSM    C2S11317   5.400   2.946  10.508  0.0815 -1.3003  0.1463
  110OSM    H2S11318   5.412   3.056  10.516  1.3635 -1.2710 -1.5732
  110OSM    C3S11319   5.514   2.902  10.411  0.9976  0.1791 -0.4188
  110OSM    H3S11320   5.480   2.803  10.376  0.0334  0.3402  0.0274
  110OSM     O311321   5.644   2.874  10.473 -0.5989 -0.1804  0.5360
  110OSM    HO311322   5.627   2.890  10.566 -0.5840  0.5950  0.4059
  110OSM    C4S11323   5.540   3.000  10.296  0.6545 -0.4026 -0.1520
  110OSM    H4S11324   5.594   3.087  10.335  2.3716 -1.0515 -0.9977
  110OSM    C5S11325   5.525   2.981  10.166 -0.2157  0.4211  0.1020
  110OSM    H5S11326   5.475   2.890  10.130 -0.7898 -0.1876  2.3119
  110OSM    C6S11327   5.566   3.086  10.069  0.4567  1.1104 -0.5384
  110OSM    H6S11328   5.489   3.095   9.990 -1.4851 -2.7911  0.6755
  110OSM    H6T11329   5.656   3.033  10.029 -1.3825 -3.2754  0.5578
  110OSM    C7S11330   5.611   3.229  10.109 -0.3752 -0.0467 -0.6590
  110OSM    H7S11331   5.684   3.221  10.193 -0.7461  0.0817 -0.3210
  110OSM    H7T11332   5.526   3.287  10.151 -0.3516  0.0077 -0.6861
  110OSM    C8S11333   5.661   3.304   9.984 -0.6741  0.3784 -0.5586
  110OSM    H8S11334   5.678   3.407  10.023 -1.3485  0.0797  0.5758
  110OSM    H8T11335   5.581   3.310   9.908  0.1558 -1.0015 -1.5821
  110OSM    C9S11336   5.791   3.257   9.921 -0.0047  0.0022  0.3958
  110OSM    H9S11337   5.770   3.159   9.873 -2.1779 -0.1434  1.5118
  110OSM    H9T11338   5.879   3.250   9.988  1.0604 -0.5332 -1.0172
  110OSM   C10S11339   5.834   3.327   9.792  0.9547 -0.5953 -0.7541
  110OSM   H10S11340   5.849   3.430   9.832 -0.4540 -1.3959  2.1039
  110OSM   H10T11341   5.749   3.326   9.720 -0.1666 -1.3089  0.5350
  110OSM   C11S11342   5.959   3.267   9.721 -0.2178  0.1692 -0.1518
  110OSM   H11S11343   5.949   3.159   9.699  1.1143  0.0741 -0.3931
  110OSM   H11T11344   6.040   3.279   9.797 -1.9849  0.1757  1.8073
  110OSM   C12S11345   5.984   3.352   9.600 -0.8677 -0.0619  0.3487
  110OSM   H12S11346   5.962   3.461   9.605 -0.6110  0.0569 -0.8654
  110OSM   H12T11347   5.917   3.335   9.514 -0.0740  0.0541 -0.3078
  110OSM   C13S11348   6.126   3.318   9.535  0.0921 -0.0260  0.1903
  110OSM   H13S11349   6.138   3.208   9.533 -0.7983 -0.1243 -0.0265
  110OSM   H13T11350   6.205   3.350   9.606 -0.5732  0.1034  0.8831
  110OSM   C14S11351   6.147   3.363   9.392  0.3499  0.1061  0.1947
  110OSM   H14S11352   6.251   3.356   9.355  0.4295  0.5470  0.3313
  110OSM   H14T11353   6.112   3.467   9.377  0.1806 -0.0263 -0.3651
  110OSM   C15S11354   6.079   3.259   9.300  0.3618  0.0376  0.1325
  110OSM   H15S11355   5.975   3.240   9.333 -0.1090  1.6986 -0.3262
  110OSM   H15T11356   6.139   3.166   9.316  0.5494  0.6522  3.8455
  110OSM   C16S11357   6.094   3.303   9.147  0.7170  0.5778  0.1636
  110OSM   H16S11358   6.202   3.325   9.136  0.9487  0.4849  1.9410
  110OSM   H16T11359   6.027   3.392   9.142 -0.8484 -0.6336 -1.5483
  110OSM   C17S11360   6.026   3.191   9.056 -0.7659  0.2422 -0.2897
  110OSM   H17S11361   5.943   3.162   9.124  1.0306 -2.5519  0.8931
  110OSM   H17T11362   6.090   3.100   9.057 -2.7700 -1.3397 -2.7753
  110OSM   C18S11363   6.002   3.230   8.914 -0.0978  0.7215 -0.5401
  110OSM   H18S11364   5.962   3.333   8.919  0.6482  1.0569 -1.2117
  110OSM   H18T11365   5.922   3.174   8.860  0.5321 -0.4305 -0.3077
  110OSM   H18U11366   6.088   3.222   8.844 -0.6890  1.6452 -1.4026
  110OSM    C1F11367   5.149   2.982  10.505 -0.3627 -0.0138  0.0809
  110OSM     OF11368   5.167   3.090  10.561  0.1990  0.8977 -0.6595
  110OSM    C2F11369   5.008   2.931  10.476 -0.4574  0.4446 -0.6309
  110OSM    H2F11370   4.946   2.968  10.561 -2.8794  0.8626 -2.4771
  110OSM    H2G11371   5.010   2.820  10.486  0.3727  0.4169 -0.9886
  110OSM    C3F11372   4.957   2.977  10.345 -0.5153  0.5606  0.2637
  110OSM    H3F11373   5.029   2.947  10.265 -0.5002 -1.0827  0.8529
  110OSM    H3G11374   4.953   3.088  10.342 -1.7613  0.5778  1.7387
  110OSM    C4F11375   4.820   2.907  10.330  1.1999  0.2514  0.2144
  110OSM    H4F11376   4.743   2.930  10.406 -0.6617 -2.5240 -0.6760
  110OSM    H4G11377   4.848   2.799  10.335  0.5541  0.0811  0.2863
  110OSM    C5F11378   4.765   2.935  10.194 -0.2800  0.7359  0.1954
  110OSM    H5F11379   4.661   2.897  10.199  0.7731 -2.4717  0.0262
  110OSM    H5G11380   4.812   2.873  10.115  1.4618  0.3010  1.4931
  110OSM    C6F11381   4.779   3.085  10.134 -0.1415  0.6457 -0.1002
  110OSM    H6F11382   4.886   3.115  10.135  0.0249  0.0678  0.4647
  110OSM    H6G11383   4.732   3.147  10.214 -0.8442 -1.5546  1.2743
  110OSM    C7F11384   4.700   3.104  10.004 -1.0326  1.0345 -0.8740
  110OSM    H7F11385   4.600   3.062  10.027 -0.5162 -0.3540 -1.0730
  110OSM    H7G11386   4.740   3.034   9.927 -1.8219  0.4217 -0.7303
  110OSM    C8F11387   4.684   3.249   9.961 -0.5182 -1.0247 -0.4532
  110OSM    H8F11388   4.698   3.306  10.055  1.1967 -0.8183 -0.7985
  110OSM    H8G11389   4.581   3.265   9.922 -0.4992 -1.3175 -0.6329
  110OSM    C9F11390   4.782   3.306   9.867 -0.5336 -1.3398  0.5031
  110OSM    H9F11391   4.886   3.278   9.892  0.7073 -0.3399 -2.9475
  110OSM   C10F11392   4.763   3.361   9.747 -0.4506  0.1612  0.4648
  110OSM   H10F11393   4.849   3.393   9.685 -1.8721  2.0113 -0.6598
  110OSM   C11F11394   4.623   3.384   9.681  1.1299  0.4242 -0.4083
  110OSM   H11F11395   4.600   3.492   9.699  1.4922  0.3522  0.5007
  110OSM   H11G11396   4.545   3.318   9.725  3.4461 -2.2146 -0.0004
  110OSM   C12F11397   4.622   3.376   9.523  0.4076 -0.1267  0.6386
  110OSM   H12F11398   4.697   3.451   9.488 -2.1307  2.1820 -0.2058
  110OSM   H12G11399   4.524   3.404   9.479  1.4107  0.1537 -1.5416
  110OSM   C13F11400   4.642   3.236   9.464  0.7555 -0.2356 -0.3341
  110OSM   H13F11401   4.586   3.171   9.534 -1.2501  0.4199 -1.2450
  110OSM   H13G11402   4.748   3.205   9.460  0.6499 -0.4543 -1.7718
  110OSM   C14F11403   4.572   3.217   9.321 -0.7171 -0.1524  0.3665
  110OSM   H14F11404   4.465   3.244   9.331 -0.5011  0.3955  1.2487
  110OSM   H14G11405   4.575   3.110   9.290  0.2884  0.0363 -0.2307
  110OSM   C15F11406   4.633   3.306   9.220 -0.6055 -0.2348  0.1576
  110OSM   H15F11407   4.587   3.406   9.240 -1.6030 -0.6715  0.1187
  110OSM   H15G11408   4.594   3.264   9.125  0.8055  0.0630 -0.5705
  110OSM   C16F11409   4.780   3.308   9.207  0.4275 -0.0881 -0.4743
  110OSM   H16F11410   4.817   3.205   9.221 -0.5429 -0.5079 -0.9448
  110OSM   H16G11411   4.819   3.368   9.293  0.5678 -0.4116 -0.3125
  110OSM   C17F11412   4.820   3.372   9.072 -1.3933  0.2799  0.3847
  110OSM   H17F11413   4.920   3.421   9.078 -1.7595  1.0420  0.4364
  110OSM   H17G11414   4.753   3.454   9.038  0.3854  1.0934 -1.3799
  110OSM   C18F11415   4.836   3.268   8.956 -0.4765  0.1577 -0.1773
  110OSM   H18F11416   4.737   3.226   8.929 -1.1820  1.6616 -0.0054
  110OSM   H18G11417   4.894   3.183   8.998 -1.5929 -0.7573 -0.4279
  110OSM   H18H11418   4.889   3.314   8.869  0.0143  0.7561  0.4233
  111OSM      N11419   4.371   0.946  10.814 -0.5555  0.2415  0.5250
  111OSM    C1511420   4.276   0.986  10.716  0.4047  0.1009  0.4208
  111OSM   H15A11421   4.289   0.930  10.624 -0.2163  1.4237 -0.5086
  111OSM   H15B11422   4.299   1.084  10.675  2.4783 -0.4107  0.2363
  111OSM   H15C11423   4.171   0.998  10.739  0.7010  3.7061  0.4721
  111OSM    C1411424   4.501   0.940  10.751 -0.0629  0.2849  0.2537
  111OSM   H14A11425   4.580   0.925  10.822 -0.4540 -0.7868  0.4852
  111OSM   H14B11426   4.516   1.028  10.690 -2.3597  0.1471 -0.6254
  111OSM   H14C11427   4.504   0.862  10.677  2.1585  2.9318 -2.7353
  111OSM    C1311428   4.392   1.053  10.916  0.7920 -0.6812 -0.8235
  111OSM   H13A11429   4.296   1.084  10.955  2.2920 -0.0473  2.8201
  111OSM   H13B11430   4.431   1.142  10.868  1.0468 -0.7508 -0.7421
  111OSM   H13C11431   4.456   1.031  11.000 -0.0444  1.7058  0.5515
  111OSM    C1211432   4.330   0.820  10.878 -0.4415 -0.1140 -0.4585
  111OSM   H12A11433   4.235   0.827  10.931 -0.9094 -2.7911 -0.7703
  111OSM   H12B11434   4.401   0.789  10.953  0.5453  2.0417 -0.4359
  111OSM    C1111435   4.311   0.689  10.787  0.4388 -0.0480  0.3177
  111OSM   H11A11436   4.225   0.709  10.720 -1.1066  0.4745  2.3312
  111OSM   H11B11437   4.288   0.597  10.844 -1.5810  0.9164  1.1868
  111OSM      P11438   4.552   0.572  10.770  0.3774 -0.1544  0.2367
  111OSM    O1311439   4.674   0.651  10.762  0.4330 -0.1171  0.0249
  111OSM    O1411440   4.522   0.516  10.904 -0.3979  0.0431  0.3321
  111OSM    O1111441   4.555   0.459  10.662 -0.2980 -0.0018  0.2948
  111OSM    O1211442   4.429   0.669  10.709 -0.1942  0.8424 -0.5743
  111OSM    C1S11443   4.498   0.490  10.531 -0.1939 -0.0913 -0.6148
  111OSM    H1S11444   4.530   0.590  10.494  2.5815 -0.5204  0.3551
  111OSM    H1T11445   4.387   0.498  10.530 -0.1149  1.1503 -0.3449
  111OSM     NF11446   4.462   0.446  10.294  0.3668 -1.1140  0.0627
  111OSM    HNF11447   4.365   0.429  10.285 -0.3395  0.8040  2.8226
  111OSM    C2S11448   4.519   0.385  10.411  0.1199  0.2059 -0.6507
  111OSM    H2S11449   4.628   0.366  10.412  0.1672  0.1123  2.2085
  111OSM    C3S11450   4.453   0.245  10.449  0.1475  0.0401 -0.3461
  111OSM    H3S11451   4.345   0.253  10.470  0.2329 -2.0617  1.2439
  111OSM     O311452   4.504   0.199  10.579  0.1596 -0.5438 -0.0593
  111OSM    HO311453   4.515   0.282  10.625 -0.9727 -1.0542  1.1939
  111OSM    C4S11454   4.471   0.143  10.343  0.4564 -0.2014 -0.2591
  111OSM    H4S11455   4.572   0.125  10.304 -0.2923  0.0382 -2.4693
  111OSM    C5S11456   4.372   0.073  10.293 -0.2063  0.7774 -0.4091
  111OSM    H5S11457   4.274   0.107  10.328 -0.3728 -2.0201  2.4078
  111OSM    C6S11458   4.376  -0.036  10.187  0.1084  0.2567 -0.0497
  111OSM    H6S11459   4.278  -0.047  10.136  0.4956 -0.8087 -0.5882
  111OSM    H6T11460   4.395  -0.133  10.238  0.2393  1.0445  1.4443
  111OSM    C7S11461   4.495  -0.028  10.089  0.6348  0.7977  0.1669
  111OSM    H7S11462   4.588  -0.056  10.144  0.3828  1.9258  1.2062
  111OSM    H7T11463   4.516   0.071  10.043 -4.4222  1.3946 -1.3917
  111OSM    C8S11464   4.490  -0.142   9.982  0.6750  0.2204 -1.0687
  111OSM    H8S11465   4.388  -0.146   9.937 -1.2495 -1.0560  2.9306
  111OSM    H8T11466   4.494  -0.244  10.026 -1.0065  1.0129  1.1262
  111OSM    C9S11467   4.592  -0.129   9.872 -0.4471 -0.8538  0.3041
  111OSM    H9S11468   4.685  -0.184   9.896  0.0572 -0.2726 -0.2569
  111OSM    H9T11469   4.619  -0.024   9.846 -0.5022 -1.0515 -0.5915
  111OSM   C10S11470   4.536  -0.171   9.738 -0.0537  0.6911  0.3411
  111OSM   H10S11471   4.455  -0.099   9.716 -0.4503  0.2267  0.2777
  111OSM   H10T11472   4.485  -0.269   9.739 -2.4214  1.8075 -1.3884
  111OSM   C11S11473   4.638  -0.164   9.626  0.2424  0.2276  0.7453
  111OSM   H11S11474   4.715  -0.240   9.651  0.9053  0.5552 -0.2411
  111OSM   H11T11475   4.689  -0.065   9.629  0.4649  0.1699 -0.5406
  111OSM   C12S11476   4.572  -0.196   9.486 -1.3166  0.3030  0.1855
  111OSM   H12S11477   4.492  -0.123   9.462  1.6650  3.2131 -1.7648
  111OSM   H12T11478   4.525  -0.297   9.495  0.1281 -0.5208 -1.1517
  111OSM   C13S11479   4.670  -0.205   9.363 -0.4301 -0.3354 -0.2450
  111OSM   H13S11480   4.752  -0.279   9.380  1.2242  1.2315 -1.0946
  111OSM   H13T11481   4.728  -0.111   9.357  0.7371 -0.9522  0.7878
  111OSM   C14S11482   4.598  -0.208   9.231 -0.0392  0.4178 -0.4900
  111OSM   H14S11483   4.535  -0.117   9.225 -2.5818 -1.3359 -3.5466
  111OSM   H14T11484   4.513  -0.279   9.221 -0.3449  0.8894 -1.2760
  111OSM   C15S11485   4.685  -0.225   9.105 -0.5022  0.3965  1.0757
  111OSM   H15S11486   4.736  -0.322   9.121 -1.6018 -0.3681  0.0765
  111OSM   H15T11487   4.760  -0.143   9.113  1.0475 -1.1262  3.6243
  111OSM   C16S11488   4.605  -0.220   8.976 -0.1097 -0.0411  0.3033
  111OSM   H16S11489   4.557  -0.120   8.971  1.3629  0.6253 -1.1919
  111OSM   H16T11490   4.524  -0.297   8.975 -1.7230  1.5574  1.1034
  111OSM   C17S11491   4.694  -0.239   8.851 -0.5444  0.2805 -0.4634
  111OSM   H17S11492   4.759  -0.328   8.865 -0.0038  0.8202  0.5706
  111OSM   H17T11493   4.769  -0.157   8.852  0.8627 -0.9589 -0.2975
  111OSM   C18S11494   4.633  -0.232   8.711 -0.4979  0.3794  0.0852
  111OSM   H18S11495   4.704  -0.265   8.632 -1.0285 -0.2750 -0.1302
  111OSM   H18T11496   4.601  -0.127   8.696  1.7251  1.0303 -0.5904
  111OSM   H18U11497   4.544  -0.296   8.693  0.9306 -1.2843 -1.5387
  111OSM    C1F11498   4.529   0.544  10.235  0.1281  0.1757 -0.6100
  111OSM     OF11499   4.643   0.581  10.279  0.0182 -0.2512 -0.0846
  111OSM    C2F11500   4.472   0.608  10.114  0.0616 -0.7267 -0.5339
  111OSM    H2F11501   4.444   0.712  10.141 -0.5620 -1.4276  1.7546
  111OSM    H2G11502   4.387   0.548  10.076 -1.2446  0.1176  0.9484
  111OSM    C3F11503   4.582   0.619  10.005  0.4346  0.4286  0.1195
  111OSM    H3F11504   4.608   0.517   9.969  0.0580  0.5505 -0.5021
  111OSM    H3G11505   4.675   0.665  10.043 -0.2743  1.1803  1.0027
  111OSM    C4F11506   4.538   0.706   9.887 -0.2755  0.2125 -0.4058
  111OSM    H4F11507   4.535   0.813   9.919  1.1142  0.1572 -0.0488
  111OSM    H4G11508   4.442   0.668   9.845 -0.5356  1.2550 -0.8113
  111OSM    C5F11509   4.637   0.715   9.775 -0.0578  0.0402  0.1715
  111OSM    H5F11510   4.663   0.610   9.751 -1.3260 -0.2070 -0.2475
  111OSM    H5G11511   4.726   0.773   9.807 -0.5709  0.3265  1.1266
  111OSM    C6F11512   4.587   0.765   9.639 -0.1051 -0.0116 -0.3028
  111OSM    H6F11513   4.547   0.869   9.644 -0.7835 -0.3136  1.1248
  111OSM    H6G11514   4.497   0.706   9.612 -0.8508  0.7146  0.5073
  111OSM    C7F11515   4.691   0.755   9.530  0.8192 -0.3813 -0.6786
  111OSM    H7F11516   4.742   0.657   9.543 -1.1683 -1.1563  2.5669
  111OSM    H7G11517   4.762   0.839   9.540 -0.4923  0.7470 -0.4285
  111OSM    C8F11518   4.625   0.776   9.390  0.3053 -0.5671  0.8282
  111OSM    H8F11519   4.589   0.880   9.399  1.5378 -0.1490  1.1157
  111OSM    H8G11520   4.538   0.710   9.371 -0.4019  1.0651 -2.1756
  111OSM    C9F11521   4.726   0.751   9.282  0.5215 -0.1288 -0.0262
  111OSM    H9F11522   4.794   0.666   9.295 -2.0237 -2.9484 -3.2218
  111OSM   C10F11523   4.744   0.819   9.169  0.2175 -0.5230  0.8647
  111OSM   H10F11524   4.814   0.773   9.098 -0.7286 -0.5896 -0.0318
  111OSM   C11F11525   4.686   0.951   9.115 -0.7217  0.1213 -0.5009
  111OSM   H11F11526   4.766   1.020   9.082  0.2903 -0.2464  1.0430
  111OSM   H11G11527   4.627   1.005   9.192 -0.2493  1.2961 -0.9534
  111OSM   C12F11528   4.590   0.938   8.991 -0.3399  0.0728 -0.6937
  111OSM   H12F11529   4.567   1.044   8.969 -0.5420  0.8173  2.6061
  111OSM   H12G11530   4.497   0.887   9.026 -1.1405  1.1750 -1.1678
  111OSM   C13F11531   4.645   0.864   8.869 -0.1004 -0.1084 -0.0629
  111OSM   H13F11532   4.557   0.872   8.802  0.3323 -0.0295 -0.6287
  111OSM   H13G11533   4.667   0.762   8.908 -0.9200 -0.2068  0.1551
  111OSM   C14F11534   4.772   0.924   8.806  0.6668  0.2438 -0.2195
  111OSM   H14F11535   4.867   0.911   8.862  1.1070 -0.4509 -1.1004
  111OSM   H14G11536   4.765   1.032   8.782  2.8110  0.3324 -0.6380
  111OSM   C15F11537   4.817   0.857   8.675  0.1321 -0.0096  0.1829
  111OSM   H15F11538   4.865   0.758   8.686 -0.1181 -0.5243 -2.7749
  111OSM   H15G11539   4.902   0.912   8.630  0.9017 -1.6989 -0.5042
  111OSM   C16F11540   4.700   0.851   8.575 -0.4135 -0.1608 -0.3862
  111OSM   H16F11541   4.656   0.953   8.567  2.0213  1.0621  0.6189
  111OSM   H16G11542   4.617   0.790   8.616 -1.4590  3.4212  3.5403
  111OSM   C17F11543   4.733   0.795   8.433  0.1086  0.4021  0.0606
  111OSM   H17F11544   4.764   0.688   8.432  0.8020  0.5958  0.0556
  111OSM   H17G11545   4.808   0.864   8.389 -1.1370  1.9243  0.2521
  111OSM   C18F11546   4.602   0.794   8.351  0.0470 -0.3845 -0.1996
  111OSM   H18F11547   4.578   0.894   8.310 -1.1301 -1.8431 -3.3889
  111OSM   H18G11548   4.517   0.758   8.413 -0.0880  2.2266  1.2725
  111OSM   H18H11549   4.618   0.734   8.259  0.7134 -1.9327  0.8595
  112OSM      N11550   3.020   3.519  10.997  0.0658  0.8015 -0.2856
  112OSM    C1511551   3.018   3.413  11.111  0.4710 -0.3020 -0.3604
  112OSM   H15A11552   2.930   3.350  11.103 -2.0550  3.1275 -2.9949
  112OSM   H15B11553   3.011   3.463  11.206 -1.0250  0.9884 -1.0933
  112OSM   H15C11554   3.110   3.356  11.109  1.8928  1.6349  2.6708
  112OSM    C1411555   3.167   3.568  10.981  0.0542 -0.2307  0.1125
  112OSM   H14A11556   3.193   3.632  11.065 -0.1432 -1.0791  0.8374
  112OSM   H14B11557   3.175   3.639  10.900 -0.5297  3.7912  3.2199
  112OSM   H14C11558   3.235   3.484  10.980  3.6741  2.4299 -1.9346
  112OSM    C1311559   2.978   3.448  10.873 -0.2098 -0.3677  0.1651
  112OSM   H13A11560   3.052   3.371  10.858 -0.8411 -1.2548  1.3686
  112OSM   H13B11561   2.993   3.528  10.802  0.6393 -0.5251  0.1612
  112OSM   H13C11562   2.884   3.395  10.869 -0.8563  0.6131  1.4926
  112OSM    C1211563   2.929   3.637  11.028  0.1099  0.1324  0.0549
  112OSM   H12A11564   2.926   3.666  11.132 -0.4664  0.2371  0.0141
  112OSM   H12B11565   2.828   3.599  11.016  0.2107  0.3318 -1.6031
  112OSM    C1111566   2.941   3.764  10.936  0.3041 -0.8419  0.7233
  112OSM   H11A11567   3.044   3.793  10.966 -0.0342  0.0140  1.0702
  112OSM   H11B11568   2.880   3.842  10.986  1.0555 -1.2342  2.3494
  112OSM      P11569   2.959   3.864  10.700 -0.1595  0.0319 -0.1259
  112OSM    O1311570   2.886   3.980  10.753  0.4527 -0.5433  0.1528
  112OSM    O1411571   3.106   3.876  10.687 -0.2408  0.0679 -0.2869
  112OSM    O1111572   2.902   3.819  10.560  0.3390 -0.3280  0.5869
  112OSM    O1211573   2.921   3.743  10.801 -0.0093  0.2197 -0.3712
  112OSM    C1S11574   2.947   3.703  10.497 -0.2820 -0.1912  0.0444
  112OSM    H1S11575   2.909   3.611  10.547 -1.2202  1.5200  2.7302
  112OSM    H1T11576   3.056   3.706  10.480 -0.3830  2.5416 -0.5643
  112OSM     NF11577   2.935   3.589  10.278  0.1912 -0.2984 -0.2464
  112OSM    HNF11578   3.014   3.599  10.218 -0.8333  1.1935 -1.4207
  112OSM    C2S11579   2.902   3.714  10.350 -0.4624 -0.2498  0.9775
  112OSM    H2S11580   2.791   3.722  10.354 -0.5503 -0.5779 -0.2942
  112OSM    C3S11581   2.960   3.843  10.286 -0.0253  0.1933 -0.0522
  112OSM    H3S11582   3.071   3.836  10.285 -0.0002  0.0923  1.2070
  112OSM     O311583   2.932   3.964  10.353  0.1519 -0.2553  0.1355
  112OSM    HO311584   2.916   3.941  10.445 -1.1258 -2.5320 -0.5512
  112OSM    C4S11585   2.920   3.850  10.135 -0.8740  0.3810  0.0820
  112OSM    H4S11586   2.983   3.790  10.069 -1.7847 -0.1247 -0.3505
  112OSM    C5S11587   2.817   3.913  10.087  0.1844  0.5736 -0.6153
  112OSM    H5S11588   2.745   3.953  10.159 -0.1627 -1.2920  0.1041
  112OSM    C6S11589   2.775   3.934   9.939 -0.0819 -0.6001 -0.0920
  112OSM    H6S11590   2.809   4.028   9.891  1.2536 -1.7256 -1.4738
  112OSM    H6T11591   2.665   3.924   9.929  0.0055 -2.4430  0.4812
  112OSM    C7S11592   2.824   3.824   9.844 -0.6908  0.0074  0.1513
  112OSM    H7S11593   2.787   3.726   9.881 -0.6728 -0.6753 -1.5560
  112OSM    H7T11594   2.935   3.828   9.842 -0.5811 -1.8638 -2.1822
  112OSM    C8S11595   2.794   3.832   9.699  0.2849  0.7338 -0.4008
  112OSM    H8S11596   2.867   3.904   9.657  0.1417  0.9407 -0.2964
  112OSM    H8T11597   2.690   3.865   9.679  0.2294 -0.6855 -2.9037
  112OSM    C9S11598   2.791   3.700   9.635 -0.3124 -0.4755  0.1934
  112OSM    H9S11599   2.711   3.640   9.684  0.8084  0.1266  2.9648
  112OSM    H9T11600   2.885   3.648   9.660 -0.6025 -0.6712  0.9062
  112OSM   C10S11601   2.792   3.707   9.487 -0.1215 -0.4049  0.2815
  112OSM   H10S11602   2.870   3.774   9.446 -1.1896 -0.2098 -1.5746
  112OSM   H10T11603   2.700   3.752   9.442 -0.1034 -0.5771  0.0660
  112OSM   C11S11604   2.824   3.577   9.412  0.2425 -0.0202 -0.3481
  112OSM   H11S11605   2.752   3.499   9.445  0.3239 -1.5591 -3.4486
  112OSM   H11T11606   2.930   3.557   9.438  0.6362  0.4551 -1.5430
  112OSM   C12S11607   2.809   3.614   9.261 -0.1299 -0.2111 -0.2557
  112OSM   H12S11608   2.838   3.716   9.229  0.9095 -0.3170  0.3032
  112OSM   H12T11609   2.700   3.606   9.243 -0.1757 -0.1536  0.0003
  112OSM   C13S11610   2.870   3.502   9.176  0.2947 -0.3372 -0.1027
  112OSM   H13S11611   2.811   3.410   9.190 -1.6019  0.8772  0.2409
  112OSM   H13T11612   2.979   3.499   9.201  0.0806  0.2228  0.9671
  112OSM   C14S11613   2.859   3.537   9.025 -0.0504 -0.3185  0.5458
  112OSM   H14S11614   2.908   3.634   9.002 -0.1230 -0.6247 -1.0065
  112OSM   H14T11615   2.754   3.533   8.989 -0.0793 -0.6860  0.6618
  112OSM   C15S11616   2.920   3.442   8.925  0.6844 -0.3176  0.1204
  112OSM   H15S11617   2.893   3.342   8.966 -0.9610  0.9292  2.2292
  112OSM   H15T11618   3.030   3.453   8.928  0.6480 -0.2212  2.0237
  112OSM   C16S11619   2.867   3.449   8.778 -0.2733  0.4759 -0.9714
  112OSM   H16S11620   2.762   3.417   8.761  0.0693 -0.2677 -1.7444
  112OSM   H16T11621   2.931   3.385   8.713 -1.4444 -1.1460 -0.5751
  112OSM   C17S11622   2.884   3.595   8.726  1.1416 -0.0259 -0.0008
  112OSM   H17S11623   2.993   3.617   8.726  0.6877  2.7476 -1.8191
  112OSM   H17T11624   2.826   3.661   8.794  0.7218 -0.6620  0.2670
  112OSM   C18S11625   2.835   3.615   8.586  0.2308  0.1602  0.2945
  112OSM   H18S11626   2.831   3.722   8.558 -2.2672  0.2070  0.6196
  112OSM   H18T11627   2.735   3.568   8.575  1.7475 -3.2480 -0.2820
  112OSM   H18U11628   2.896   3.544   8.525 -1.0455 -2.5705  1.9754
  112OSM    C1F11629   2.874   3.465  10.304 -0.2279 -0.3905 -1.2781
  112OSM     OF11630   2.780   3.462  10.386 -0.4189 -0.4995  0.1065
  112OSM    C2F11631   2.928   3.338  10.240 -0.0541 -0.0560  0.2205
  112OSM    H2F11632   2.979   3.281  10.321  1.1992 -0.6900 -0.9736
  112OSM    H2G11633   3.004   3.363  10.164 -0.7566  0.2392 -0.4027
  112OSM    C3F11634   2.816   3.247  10.181  0.2746  1.1367 -0.3126
  112OSM    H3F11635   2.752   3.203  10.260 -1.6075  2.2790 -1.1261
  112OSM    H3G11636   2.880   3.163  10.149  1.5930  1.3388  1.6271
  112OSM    C4F11637   2.726   3.301  10.067 -1.2489 -0.4139 -0.0852
  112OSM    H4F11638   2.672   3.393  10.099 -2.9561 -1.3407 -0.1828
  112OSM    H4G11639   2.653   3.224  10.035 -0.4216 -0.5300 -1.8206
  112OSM    C5F11640   2.804   3.361   9.942 -0.2354  0.2063 -0.3013
  112OSM    H5F11641   2.894   3.417   9.977 -0.9080  1.2202 -0.1451
  112OSM    H5G11642   2.737   3.439   9.900 -0.5578 -0.0034 -0.1684
  112OSM    C6F11643   2.844   3.241   9.850 -0.0065 -0.0156  0.3899
  112OSM    H6F11644   2.773   3.158   9.874 -1.5554  1.2655  0.4024
  112OSM    H6G11645   2.945   3.196   9.865  0.5180  1.1362  0.4082
  112OSM    C7F11646   2.825   3.273   9.705  0.4823 -0.1637  0.2018
  112OSM    H7F11647   2.870   3.372   9.683  2.2882 -0.9038  0.3832
  112OSM    H7G11648   2.717   3.285   9.681 -0.1597 -3.3215  1.0467
  112OSM    C8F11649   2.873   3.157   9.614  0.3664  0.2712  0.1776
  112OSM    H8F11650   2.825   3.064   9.652  1.3493 -0.1993  0.3015
  112OSM    H8G11651   2.981   3.132   9.626  0.0463 -0.7972  0.9565
  112OSM    C9F11652   2.846   3.188   9.468 -0.2551 -0.4632  0.3150
  112OSM    H9F11653   2.885   3.281   9.426  0.4625 -1.4631 -1.3088
  112OSM   C10F11654   2.773   3.121   9.381 -0.0079 -0.2422  0.1787
  112OSM   H10F11655   2.768   3.162   9.279  0.6873  1.2357  0.7080
  112OSM   C11F11656   2.680   3.004   9.388 -0.5936 -0.3580  0.2925
  112OSM   H11F11657   2.573   3.032   9.398  0.1012  2.3947  0.6442
  112OSM   H11G11658   2.704   2.942   9.477  1.2173 -2.2384 -1.4097
  112OSM   C12F11659   2.701   2.906   9.275  0.4793  0.2621 -0.2938
  112OSM   H12F11660   2.632   2.821   9.293 -0.3716  0.9091 -0.4247
  112OSM   H12G11661   2.809   2.883   9.263  1.1270  2.2932  1.0783
  112OSM   C13F11662   2.667   2.957   9.130  0.0860 -0.3071  0.6980
  112OSM   H13F11663   2.745   3.033   9.108  1.2440 -1.2293  1.4450
  112OSM   H13G11664   2.568   3.006   9.124  0.2298 -0.1505 -0.7629
  112OSM   C14F11665   2.684   2.834   9.037 -0.6011  0.1405 -0.0539
  112OSM   H14F11666   2.601   2.762   9.055  0.8603 -1.0667  2.3075
  112OSM   H14G11667   2.773   2.776   9.070 -0.4251  0.2365 -0.3669
  112OSM   C15F11668   2.689   2.859   8.877  0.8523 -0.0586 -0.1490
  112OSM   H15F11669   2.598   2.915   8.849  0.3576 -1.4399 -1.4570
  112OSM   H15G11670   2.688   2.762   8.823 -3.4335 -0.2283 -0.0602
  112OSM   C16F11671   2.811   2.940   8.858 -0.3625  0.1416  0.0002
  112OSM   H16F11672   2.897   2.902   8.917  1.9644  2.6577 -1.5223
  112OSM   H16G11673   2.795   3.043   8.896 -0.6483 -0.5781  1.9558
  112OSM   C17F11674   2.846   2.944   8.714 -0.3540  0.4188  0.0489
  112OSM   H17F11675   2.767   2.943   8.636 -1.1836 -1.6113  0.8441
  112OSM   H17G11676   2.901   2.851   8.688 -0.4654  0.5198 -0.5505
  112OSM   C18F11677   2.947   3.058   8.687 -0.2113 -0.3484  0.1343
  112OSM   H18F11678   2.897   3.152   8.720  0.0868 -0.0435 -0.2796
  112OSM   H18G11679   2.961   3.065   8.577  1.3600 -0.6308  0.2968
  112OSM   H18H11680   3.043   3.034   8.738  1.1009  1.0295 -1.5593
  113OSM      N11681   5.651   3.884  11.212 -0.5335 -0.2381  0.3634
  113OSM    C1511682   5.673   3.885  11.363 -0.5253 -0.2330  0.4217
  113OSM   H15A11683   5.769   3.926  11.389 -0.7336  2.0736 -1.9705
  113OSM   H15B11684   5.661   3.791  11.415  3.2167 -1.0594  0.0862
  113OSM   H15C11685   5.611   3.959  11.412  0.5661  0.7016  0.4242
  113OSM    C1411686   5.513   3.823  11.195 -0.9531  0.7150 -0.2622
  113OSM   H14A11687   5.438   3.855  11.266 -0.5148 -2.0070  1.5644
  113OSM   H14B11688   5.524   3.718  11.217  0.7514  1.1193  1.0662
  113OSM   H14C11689   5.471   3.834  11.096 -1.8355  1.2854  0.1635
  113OSM    C1311690   5.645   4.030  11.170  0.3961 -0.3396  0.4846
  113OSM   H13A11691   5.736   4.079  11.202 -1.4443  3.1068  0.8563
  113OSM   H13B11692   5.563   4.093  11.202  0.0733 -0.5618  0.1031
  113OSM   H13C11693   5.637   4.029  11.062  0.0467 -1.4006  0.5105
  113OSM    C1211694   5.759   3.811  11.129  0.4640 -0.2354  0.0574
  113OSM   H12A11695   5.852   3.861  11.150 -0.7429  1.1705  2.4919
  113OSM   H12B11696   5.731   3.812  11.025 -0.9208 -2.7491  0.3223
  113OSM    C1111697   5.780   3.661  11.159 -0.2570 -0.4238 -0.1914
  113OSM   H11A11698   5.809   3.647  11.265 -2.8092 -4.2380  0.1744
  113OSM   H11B11699   5.870   3.629  11.100  2.5271 -0.0569  3.4988
  113OSM      P11700   5.626   3.531  10.996 -0.0896  0.2784 -0.2470
  113OSM    O1311701   5.692   3.402  10.968 -0.1460  0.1822 -0.5363
  113OSM    O1411702   5.478   3.541  10.983 -0.3575 -0.5228 -0.0878
  113OSM    O1111703   5.688   3.643  10.906  0.4397  0.3956 -0.2516
  113OSM    O1211704   5.660   3.575  11.140  0.2769  0.1661  0.4931
  113OSM    C1S11705   5.646   3.670  10.773 -0.4360 -0.1369 -0.6340
  113OSM    H1S11706   5.573   3.754  10.774  0.5271  0.7563 -1.7714
  113OSM    H1T11707   5.590   3.585  10.729 -0.0208  0.1182 -1.6805
  113OSM     NF11708   5.722   3.663  10.531 -0.4271 -0.3276  0.1397
  113OSM    HNF11709   5.771   3.595  10.478  0.4393 -0.7862  1.5011
  113OSM    C2S11710   5.763   3.701  10.666  0.1317  0.6830 -0.3709
  113OSM    H2S11711   5.778   3.811  10.677  1.7480  0.3441  1.6044
  113OSM    C3S11712   5.893   3.633  10.704  0.9391  0.0556  0.0881
  113OSM    H3S11713   5.875   3.524  10.687  0.8610 -0.4127  2.7043
  113OSM     O311714   5.931   3.650  10.842 -0.0732  0.6784  0.0979
  113OSM    HO311715   5.855   3.674  10.895 -0.0147 -0.0721  0.5390
  113OSM    C4S11716   6.002   3.689  10.620 -0.0637 -0.0482  0.7440
  113OSM    H4S11717   5.997   3.799  10.616  1.5137  0.0418 -2.4543
  113OSM    C5S11718   6.100   3.627  10.553  0.1989 -0.1788  0.3254
  113OSM    H5S11719   6.078   3.519  10.547 -3.2614  0.4460 -0.8532
  113OSM    C6S11720   6.217   3.683  10.471  0.2474 -1.2743  0.0299
  113OSM    H6S11721   6.304   3.709  10.535 -0.2496  2.1930 -0.5295
  113OSM    H6T11722   6.173   3.773  10.423  1.0366 -0.5448  0.6562
  113OSM    C7S11723   6.274   3.599  10.363  0.9447  0.0604  0.4906
  113OSM    H7S11724   6.316   3.502  10.398 -0.0747 -1.0585 -1.2532
  113OSM    H7T11725   6.363   3.652  10.322  1.3786 -0.5697  0.6016
  113OSM    C8S11726   6.175   3.582  10.247 -0.6201 -0.0144 -0.1824
  113OSM    H8S11727   6.162   3.676  10.189  1.0879  0.0716 -0.4792
  113OSM    H8T11728   6.079   3.539  10.284 -0.2923 -0.4613  0.1641
  113OSM    C9S11729   6.211   3.482  10.139 -0.2886 -0.3336  0.0652
  113OSM    H9S11730   6.126   3.486  10.067 -0.7493  1.2637  0.6631
  113OSM    H9T11731   6.225   3.384  10.189 -0.1922  0.0235  0.7516
  113OSM   C10S11732   6.332   3.511  10.061 -0.0729 -0.4658 -0.4739
  113OSM   H10S11733   6.426   3.502  10.119  0.6215  2.3555 -0.9778
  113OSM   H10T11734   6.348   3.619  10.040  1.0984 -0.3637  0.8281
  113OSM   C11S11735   6.343   3.434   9.922  0.1562 -0.7750  0.4503
  113OSM   H11S11736   6.247   3.466   9.875  0.5933 -0.4346 -0.2366
  113OSM   H11T11737   6.340   3.324   9.938 -1.7121 -0.7486  0.5468
  113OSM   C12S11738   6.467   3.485   9.845 -0.1741 -0.1353  0.5176
  113OSM   H12S11739   6.560   3.460   9.899 -1.2083 -1.6673  1.6665
  113OSM   H12T11740   6.472   3.596   9.835  0.4322 -0.3262 -2.4657
  113OSM   C13S11741   6.474   3.443   9.699  0.3549 -0.3497 -0.2754
  113OSM   H13S11742   6.395   3.505   9.651  0.7269  2.3060  2.2323
  113OSM   H13T11743   6.455   3.334   9.689  0.5950 -0.3118 -1.1723
  113OSM   C14S11744   6.608   3.479   9.635  0.3736  0.2325  0.1571
  113OSM   H14S11745   6.687   3.409   9.669  0.0911  0.3314  1.0604
  113OSM   H14T11746   6.624   3.584   9.666 -1.3389  0.7490 -0.5899
  113OSM   C15S11747   6.596   3.464   9.478 -0.5668  0.4717 -0.2579
  113OSM   H15S11748   6.503   3.512   9.442 -0.1553  0.3943 -1.4795
  113OSM   H15T11749   6.598   3.362   9.436 -0.1680 -0.1046  1.0818
  113OSM   C16S11750   6.708   3.532   9.403 -0.4357  0.5825  0.2644
  113OSM   H16S11751   6.810   3.492   9.424 -1.0035 -1.7238 -1.0920
  113OSM   H16T11752   6.696   3.637   9.439 -2.9022  0.8117 -1.0201
  113OSM   C17S11753   6.700   3.525   9.249  0.7572 -0.5931 -0.7122
  113OSM   H17S11754   6.603   3.567   9.216  1.6826  0.3391 -2.3744
  113OSM   H17T11755   6.699   3.414   9.241 -1.6319 -0.5861 -1.0903
  113OSM   C18S11756   6.818   3.588   9.175 -0.4931 -0.1790 -0.2677
  113OSM   H18S11757   6.790   3.618   9.071  1.8688  1.9413 -0.4009
  113OSM   H18T11758   6.909   3.524   9.174  0.8014  1.5721 -0.3612
  113OSM   H18U11759   6.846   3.679   9.232 -2.9520 -0.5332  1.6510
  113OSM    C1F11760   5.638   3.751  10.475 -0.0597  0.2109  0.5831
  113OSM     OF11761   5.603   3.854  10.528 -0.0567  0.4355 -0.0696
  113OSM    C2F11762   5.588   3.714  10.335  0.2294  0.1170  0.1721
  113OSM    H2F11763   5.477   3.704  10.342  0.1953  1.2422  1.6196
  113OSM    H2G11764   5.638   3.621  10.301 -1.8529 -1.5236  1.3222
  113OSM    C3F11765   5.614   3.833  10.245 -1.0697  0.3006  0.2679
  113OSM    H3F11766   5.722   3.855  10.238 -0.9783 -0.6241 -2.0685
  113OSM    H3G11767   5.558   3.922  10.281  0.0315  0.5801  1.3511
  113OSM    C4F11768   5.568   3.814  10.094 -0.0451  0.7646 -0.8348
  113OSM    H4F11769   5.581   3.912  10.043 -0.8204  0.7992 -0.9806
  113OSM    H4G11770   5.459   3.793  10.093 -0.6058  3.2253 -3.1091
  113OSM    C5F11771   5.634   3.693  10.025  0.4451 -0.1124  0.5367
  113OSM    H5F11772   5.608   3.597  10.076  1.7883  0.8725  3.2859
  113OSM    H5G11773   5.742   3.707  10.047  0.2366  2.7448  0.0568
  113OSM    C6F11774   5.602   3.694   9.872  0.5039 -0.2378 -0.4340
  113OSM    H6F11775   5.671   3.618   9.829  1.6714 -0.9105  2.3461
  113OSM    H6G11776   5.608   3.794   9.825  0.5027  0.6350  1.3189
  113OSM    C7F11777   5.453   3.648   9.842  0.1990  0.3598 -0.3794
  113OSM    H7F11778   5.379   3.708   9.899 -2.6197 -0.8365 -2.5342
  113OSM    H7G11779   5.441   3.546   9.885  2.1495  0.1637 -0.2307
  113OSM    C8F11780   5.424   3.652   9.689  0.0865 -0.1459 -0.8015
  113OSM    H8F11781   5.414   3.758   9.657 -0.7653 -0.1156 -0.4784
  113OSM    H8G11782   5.316   3.626   9.688 -0.0725  0.4613 -0.4141
  113OSM    C9F11783   5.515   3.566   9.613 -0.3465 -0.6419  0.9655
  113OSM    H9F11784   5.498   3.458   9.612  0.0670 -0.7403  2.3512
  113OSM   C10F11785   5.617   3.611   9.535  0.4646  0.3169  0.0350
  113OSM   H10F11786   5.666   3.535   9.472 -1.1850  0.5088 -1.5741
  113OSM   C11F11787   5.644   3.758   9.512  0.3363  0.4286  0.2345
  113OSM   H11F11788   5.668   3.810   9.608 -0.1497  0.9668  0.0745
  113OSM   H11G11789   5.555   3.812   9.472 -0.4036  1.1590  2.6829
  113OSM   C12F11790   5.763   3.775   9.413  0.0348 -0.1508 -1.1956
  113OSM   H12F11791   5.729   3.757   9.308 -0.6253 -0.1747 -0.9838
  113OSM   H12G11792   5.838   3.697   9.440  0.2602  0.3539 -0.3253
  113OSM   C13F11793   5.826   3.911   9.417 -0.6321 -0.5670 -0.2531
  113OSM   H13F11794   5.918   3.900   9.357  0.9806 -1.7254  2.2628
  113OSM   H13G11795   5.848   3.943   9.521 -0.3651  0.8957 -0.7317
  113OSM   C14F11796   5.749   4.022   9.342 -0.2010 -1.0685 -0.0344
  113OSM   H14F11797   5.672   4.057   9.414  1.0552  0.3795  0.6485
  113OSM   H14G11798   5.703   3.969   9.256  2.1839 -0.4282 -1.8051
  113OSM   C15F11799   5.840   4.124   9.275 -0.0073 -0.2575 -0.1704
  113OSM   H15F11800   5.930   4.086   9.223  1.7372  1.2454  1.5975
  113OSM   H15G11801   5.882   4.198   9.346 -2.1968  1.9573 -1.0308
  113OSM   C16F11802   5.757   4.219   9.184  0.1191 -0.2688 -0.0388
  113OSM   H16F11803   5.665   4.237   9.244  0.9593 -1.2584  1.6132
  113OSM   H16G11804   5.734   4.160   9.092  0.0896 -0.5732  0.1630
  113OSM   C17F11805   5.845   4.341   9.150 -0.0764  0.0818  0.0181
  113OSM   H17F11806   5.877   4.382   9.248  0.1570 -0.3995  0.1472
  113OSM   H17G11807   5.788   4.421   9.098  2.3981  1.7782 -0.3216
  113OSM   C18F11808   5.966   4.322   9.063  0.0539  0.8666  0.5071
  113OSM   H18F11809   6.035   4.408   9.071 -0.4281  1.4646 -1.3660
  113OSM   H18G11810   5.938   4.312   8.956  2.3019  1.2154 -0.1744
  113OSM   H18H11811   6.030   4.239   9.101  1.7098  0.6890 -2.3822
  114OSM      N11812   6.176   2.750  10.964 -0.2230 -0.2636 -0.0962
  114OSM    C1511813   6.026   2.758  10.940  0.7761  0.3737  0.8530
  114OSM   H15A11814   5.977   2.678  10.993  0.0615  0.6383  0.6133
  114OSM   H15B11815   6.000   2.744  10.836 -1.4796 -1.3914  1.5740
  114OSM   H15C11816   5.989   2.856  10.966 -0.2541  0.1430  0.3047
  114OSM    C1411817   6.209   2.788  11.105  0.4800  0.6528  0.0049
  114OSM   H14A11818   6.173   2.887  11.131 -0.5713  0.3766 -0.3405
  114OSM   H14B11819   6.316   2.795  11.118  0.4347  0.9263  0.2331
  114OSM   H14C11820   6.165   2.715  11.171 -1.4148 -0.8393 -2.6991
  114OSM    C1311821   6.217   2.612  10.945  0.4175  0.0084  0.4645
  114OSM   H13A11822   6.185   2.543  11.021 -0.3021  0.5304  0.6535
  114OSM   H13B11823   6.325   2.604  10.943  0.5159  1.1833  0.3443
  114OSM   H13C11824   6.176   2.572  10.854  0.3158 -0.2170  0.6100
  114OSM    C1211825   6.250   2.838  10.868 -0.5474  0.8450  0.5969
  114OSM   H12A11826   6.206   2.937  10.875 -2.4389 -0.0534  2.3441
  114OSM   H12B11827   6.224   2.804  10.769  0.4025  2.7425 -0.3649
  114OSM    C1111828   6.400   2.845  10.870 -0.6790  0.0690 -0.2011
  114OSM   H11A11829   6.421   2.914  10.785  2.1899 -1.1104 -0.5853
  114OSM   H11B11830   6.444   2.745  10.849 -1.7594 -0.3433 -0.5319
  114OSM      P11831   6.609   2.879  11.016 -0.3367 -0.0413 -0.3377
  114OSM    O1311832   6.660   3.002  11.083  0.3065 -0.4375  0.1450
  114OSM    O1411833   6.619   2.752  11.092 -0.3243 -0.3689 -0.3303
  114OSM    O1111834   6.675   2.861  10.872  0.9299  0.1934  0.2661
  114OSM    O1211835   6.458   2.891  10.988 -0.2493  0.1066 -0.4160
  114OSM    C1S11836   6.715   2.981  10.807  0.2109  0.6046 -0.1611
  114OSM    H1S11837   6.803   3.022  10.861  0.3783  1.9532 -1.3999
  114OSM    H1T11838   6.631   3.053  10.795 -1.7311 -1.3796  0.6905
  114OSM     NF11839   6.823   3.057  10.589 -0.3217 -0.4658  0.9090
  114OSM    HNF11840   6.778   3.089  10.507 -0.8136 -0.4638  1.1785
  114OSM    C2S11841   6.767   2.942  10.666 -0.2393 -0.2844  0.0707
  114OSM    H2S11842   6.852   2.872  10.679  1.2038  1.5771  1.1558
  114OSM    C3S11843   6.654   2.872  10.588  0.3599  0.6005  0.0661
  114OSM    H3S11844   6.567   2.942  10.583 -1.1173 -1.1965 -0.7129
  114OSM     O311845   6.594   2.753  10.643  0.1587  0.1249 -0.2120
  114OSM    HO311846   6.615   2.755  10.737  1.3112  2.6493 -0.4346
  114OSM    C4S11847   6.695   2.821  10.453  0.0257 -0.1623  0.0610
  114OSM    H4S11848   6.799   2.787  10.441 -0.0852 -0.9271  1.0954
  114OSM    C5S11849   6.616   2.832  10.343 -0.0949  0.3744 -0.1345
  114OSM    H5S11850   6.515   2.876  10.350  0.1719  0.8095  1.3666
  114OSM    C6S11851   6.656   2.793  10.207  0.5154  0.3689  0.5744
  114OSM    H6S11852   6.714   2.698  10.207  1.5222  0.9646  0.1953
  114OSM    H6T11853   6.716   2.874  10.160 -0.5906 -0.1233 -1.8342
  114OSM    C7S11854   6.549   2.769  10.101 -0.3580  0.1580 -0.4722
  114OSM    H7S11855   6.596   2.754  10.002  0.7727  0.6525 -0.0301
  114OSM    H7T11856   6.483   2.855  10.077  0.7478  0.8487 -1.1356
  114OSM    C8S11857   6.463   2.643  10.128  0.5210 -0.0029  0.1975
  114OSM    H8S11858   6.410   2.665  10.223  1.1702  2.1792  0.1014
  114OSM    H8T11859   6.535   2.564  10.157 -0.1553 -1.2920 -1.4722
  114OSM    C9S11860   6.376   2.613  10.013  0.0514 -0.1635  0.2099
  114OSM    H9S11861   6.434   2.618   9.918  2.8097 -0.2621  1.8015
  114OSM    H9T11862   6.290   2.684  10.017  0.5413  0.4643 -0.1832
  114OSM   C10S11863   6.325   2.469  10.016 -0.0153  0.0937 -0.1475
  114OSM   H10S11864   6.251   2.441  10.094  0.7922  2.0846  1.4270
  114OSM   H10T11865   6.407   2.399  10.042 -1.1905 -0.4964  2.2388
  114OSM   C11S11866   6.271   2.440   9.871 -0.2586  0.0507  0.5892
  114OSM   H11S11867   6.231   2.539   9.842 -0.8327 -0.7383 -1.5107
  114OSM   H11T11868   6.178   2.379   9.880 -0.9441  1.2464  2.1540
  114OSM   C12S11869   6.357   2.378   9.767 -0.5495  0.2462  0.2061
  114OSM   H12S11870   6.418   2.294   9.807  0.9649  0.7011 -1.0680
  114OSM   H12T11871   6.436   2.442   9.723  0.8549 -1.7169 -0.2421
  114OSM   C13S11872   6.268   2.321   9.655  0.0565 -0.1231  0.7426
  114OSM   H13S11873   6.188   2.250   9.685 -2.8231  1.4200 -2.5428
  114OSM   H13T11874   6.327   2.271   9.576 -1.6553 -0.6465 -0.2578
  114OSM   C14S11875   6.204   2.428   9.557  0.5088 -0.0351  0.0380
  114OSM   H14S11876   6.120   2.469   9.617  0.4953  0.1079 -0.0790
  114OSM   H14T11877   6.156   2.379   9.469  0.3646  0.3424 -0.0945
  114OSM   C15S11878   6.286   2.539   9.505 -0.6488  0.2832 -0.2962
  114OSM   H15S11879   6.385   2.540   9.556 -0.5069  0.6060 -0.5751
  114OSM   H15T11880   6.234   2.633   9.534 -2.2158 -0.8474  0.6640
  114OSM   C16S11881   6.315   2.535   9.352  0.5148  0.4059 -0.4946
  114OSM   H16S11882   6.364   2.632   9.329 -3.0035  2.1946 -0.9496
  114OSM   H16T11883   6.215   2.532   9.304 -0.5642  0.8842  1.6130
  114OSM   C17S11884   6.405   2.422   9.296 -0.7437 -0.1920  0.1146
  114OSM   H17S11885   6.365   2.322   9.326 -0.8198  0.0787  0.9527
  114OSM   H17T11886   6.505   2.445   9.338  0.1646 -0.3067 -1.8710
  114OSM   C18S11887   6.418   2.419   9.148  0.0165  0.1012 -0.0330
  114OSM   H18S11888   6.501   2.361   9.102  1.0813  1.3397  0.2784
  114OSM   H18T11889   6.427   2.520   9.104  0.5662  0.4294  0.8067
  114OSM   H18U11890   6.323   2.388   9.100 -0.8374 -0.1106  1.7489
  114OSM    C1F11891   6.930   3.127  10.624  0.6013 -0.0926 -0.4165
  114OSM     OF11892   7.016   3.073  10.695 -0.3230 -0.3754 -0.5784
  114OSM    C2F11893   6.935   3.271  10.589  0.0813 -0.0629  0.1522
  114OSM    H2F11894   6.969   3.322  10.681 -0.5373  1.5134 -0.4662
  114OSM    H2G11895   6.837   3.314  10.560 -0.8368 -3.5769 -2.7098
  114OSM    C3F11896   7.040   3.284  10.466  0.4628 -0.4101 -0.6676
  114OSM    H3F11897   7.130   3.223  10.485  0.6918 -0.7269 -2.6088
  114OSM    H3G11898   7.071   3.391  10.460  1.1814 -0.6827 -2.1610
  114OSM    C4F11899   6.983   3.259  10.327 -0.3334  0.5897 -0.6910
  114OSM    H4F11900   6.899   3.328  10.307  1.2840  2.3759 -1.6293
  114OSM    H4G11901   6.950   3.155  10.308  1.2432 -0.0795  0.0101
  114OSM    C5F11902   7.083   3.292  10.218 -0.8994  1.1798 -0.1598
  114OSM    H5F11903   7.169   3.222  10.221 -1.0248  1.0216 -0.1850
  114OSM    H5G11904   7.130   3.391  10.236  0.8062  0.0888  1.7845
  114OSM    C6F11905   7.015   3.279  10.078  0.5500 -0.4049 -0.1767
  114OSM    H6F11906   6.934   3.355  10.072 -1.6800 -2.7778 -2.0808
  114OSM    H6G11907   6.957   3.184  10.076 -1.1379  0.5146  1.5097
  114OSM    C7F11908   7.115   3.296   9.956  0.4762 -0.9731  0.5241
  114OSM    H7F11909   7.049   3.285   9.867  0.9407 -1.4857  0.2390
  114OSM    H7G11910   7.191   3.216   9.969 -1.1150 -2.6087  0.1607
  114OSM    C8F11911   7.184   3.439   9.956 -0.4759  0.2647 -0.3192
  114OSM    H8F11912   7.257   3.442   9.873 -0.6733  2.4292 -0.4587
  114OSM    H8G11913   7.243   3.447  10.050 -0.5777 -0.7053 -0.1644
  114OSM    C9F11914   7.084   3.549   9.939 -0.4284 -0.4623 -0.1264
  114OSM    H9F11915   7.070   3.613  10.027 -0.3524  0.7144 -0.9422
  114OSM   C10F11916   7.041   3.594   9.814 -0.4557 -0.0623 -1.1325
  114OSM   H10F11917   6.966   3.674   9.818  0.0770  0.4388 -0.9704
  114OSM   C11F11918   7.071   3.545   9.672  0.1321  0.3143  0.0372
  114OSM   H11F11919   6.983   3.564   9.608  0.1653 -1.8432 -0.7552
  114OSM   H11G11920   7.094   3.436   9.668  0.0020  0.2885 -0.0031
  114OSM   C12F11921   7.184   3.625   9.616  0.0091  0.2808  0.2026
  114OSM   H12F11922   7.281   3.615   9.670  0.8801  1.2269 -1.1026
  114OSM   H12G11923   7.155   3.732   9.618  1.4202  0.6941  0.2283
  114OSM   C13F11924   7.202   3.600   9.462  0.3091 -0.5215  0.2951
  114OSM   H13F11925   7.099   3.608   9.422  0.5807 -1.0218 -0.5166
  114OSM   H13G11926   7.222   3.492   9.447 -0.7226 -0.9740  1.9797
  114OSM   C14F11927   7.308   3.693   9.390  0.5017  0.2482  0.1340
  114OSM   H14F11928   7.411   3.661   9.413  0.6026  0.5937  0.1657
  114OSM   H14G11929   7.286   3.795   9.428  0.1121 -0.3156  1.4828
  114OSM   C15F11930   7.282   3.698   9.240  0.0003 -0.5275 -0.6668
  114OSM   H15F11931   7.341   3.780   9.195  2.2631 -0.8237  1.5042
  114OSM   H15G11932   7.175   3.728   9.230 -0.3283 -1.2996  0.2966
  114OSM   C16F11933   7.320   3.574   9.160  0.4963  0.3288 -0.0013
  114OSM   H16F11934   7.277   3.485   9.211 -1.9592  0.4069 -1.7385
  114OSM   H16G11935   7.431   3.572   9.150  0.3356 -0.2940 -2.4250
  114OSM   C17F11936   7.248   3.582   9.023  0.3771  0.0342  0.1218
  114OSM   H17F11937   7.249   3.684   8.980 -1.5747 -0.6432 -1.7591
  114OSM   H17G11938   7.140   3.571   9.047  0.0853  0.3938 -0.9792
  114OSM   C18F11939   7.283   3.477   8.915  0.0958 -0.1119 -0.1086
  114OSM   H18F11940   7.201   3.409   8.886  1.6260 -1.2796 -1.9363
  114OSM   H18G11941   7.368   3.413   8.947 -1.4840 -1.8258  0.8577
  114OSM   H18H11942   7.315   3.526   8.821  0.8479 -0.1911  0.0933
  115OSM      N11943   6.474   5.261   6.007  0.0843 -0.7058  0.2373
  115OSM    C1511944   6.611   5.336   6.044 -0.0609  0.6812  0.4722
  115OSM   H15A11945   6.655   5.285   6.128  0.1849  1.2639  0.6984
  115OSM   H15B11946   6.590   5.440   6.063 -1.1324  0.7908 -1.1187
  115OSM   H15C11947   6.674   5.317   5.959 -0.8508  2.2675 -0.5134
  115OSM    C1411948   6.428   5.308   5.868  0.7472 -0.1816  0.1362
  115OSM   H14A11949   6.398   5.411   5.856  1.4812 -0.0767 -0.9032
  115OSM   H14B11950   6.354   5.242   5.824  0.1967  0.2534  0.3988
  115OSM   H14C11951   6.509   5.301   5.797 -0.7606  2.5389 -2.0634
  115OSM    C1311952   6.495   5.119   6.000  0.8102  0.3003 -0.2993
  115OSM   H13A11953   6.558   5.094   5.916 -1.1230  0.5172 -1.8753
  115OSM   H13B11954   6.408   5.056   5.991  2.5784 -2.2167 -0.8408
  115OSM   H13C11955   6.537   5.075   6.090  3.0434 -0.4785 -1.6481
  115OSM    C1211956   6.369   5.306   6.105  0.3713 -0.2516  0.2342
  115OSM   H12A11957   6.276   5.260   6.074 -1.3008  3.4035 -0.5961
  115OSM   H12B11958   6.359   5.413   6.099 -0.9608 -0.4575 -2.5981
  115OSM    C1111959   6.383   5.269   6.258  0.1409 -0.7397  0.1848
  115OSM   H11A11960   6.294   5.305   6.314 -1.5438 -1.0518 -2.1393
  115OSM   H11B11961   6.467   5.330   6.297  2.2524 -2.1688 -1.8521
  115OSM      P11962   6.306   5.028   6.269 -0.1812  0.2845  0.3843
  115OSM    O1311963   6.211   5.061   6.162  0.0140  0.2337  0.6054
  115OSM    O1411964   6.373   4.894   6.255  0.4351  0.2268  0.0315
  115OSM    O1111965   6.224   5.041   6.399  0.0408 -0.1830 -0.1344
  115OSM    O1211966   6.417   5.137   6.272 -0.9024 -0.3006 -0.5911
  115OSM    C1S11967   6.278   5.022   6.528 -0.7034  0.5330 -0.1990
  115OSM    H1S11968   6.388   5.008   6.528 -0.5508  1.4122  1.5557
  115OSM    H1T11969   6.247   4.920   6.558 -1.6327  0.4167 -1.4439
  115OSM     NF11970   6.313   5.081   6.765 -0.5781 -0.1607  0.1366
  115OSM    HNF11971   6.263   5.020   6.826  0.3390  0.3814  1.4635
  115OSM    C2S11972   6.245   5.122   6.645  0.2014 -0.1489  0.3443
  115OSM    H2S11973   6.282   5.222   6.615  3.8027 -2.0096 -2.0129
  115OSM    C3S11974   6.088   5.142   6.657  0.0037  1.1794 -0.4219
  115OSM    H3S11975   6.044   5.040   6.664  2.0518  0.3599  1.9089
  115OSM     O311976   6.035   5.191   6.535  0.1357  0.3586 -0.3127
  115OSM    HO311977   6.089   5.150   6.466  0.0293 -1.0313  0.4007
  115OSM    C4S11978   6.063   5.240   6.770  0.1081 -1.1458 -1.1476
  115OSM    H4S11979   6.096   5.345   6.758  1.7134 -1.2252  1.7612
  115OSM    C5S11980   5.993   5.223   6.881 -0.2453  0.0536 -0.6197
  115OSM    H5S11981   5.954   5.121   6.894  1.1899 -0.5668 -1.0130
  115OSM    C6S11982   5.969   5.319   6.992  0.8630 -0.7579  0.3724
  115OSM    H6S11983   5.860   5.317   7.013  0.8281 -4.1091  0.4665
  115OSM    H6T11984   6.003   5.421   6.964 -1.9482 -0.0255 -0.6259
  115OSM    C7S11985   6.042   5.280   7.121  0.5407 -0.5059 -0.0261
  115OSM    H7S11986   6.152   5.298   7.118  0.2724  1.1557 -0.9435
  115OSM    H7T11987   6.018   5.180   7.163 -1.9847  0.5357  1.2447
  115OSM    C8S11988   5.996   5.376   7.232  0.3297  0.6394 -0.2277
  115OSM    H8S11989   5.885   5.370   7.236  0.3753 -0.9667 -0.7468
  115OSM    H8T11990   6.017   5.481   7.201 -3.3356  1.5099 -0.2766
  115OSM    C9S11991   6.072   5.353   7.367 -0.3123 -0.6798  0.8010
  115OSM    H9S11992   6.179   5.334   7.342 -0.3156  2.9294 -3.0418
  115OSM    H9T11993   6.026   5.263   7.413 -0.2159 -1.0371  0.2109
  115OSM   C10S11994   6.083   5.476   7.458  0.6183 -0.8957 -0.2201
  115OSM   H10S11995   5.982   5.509   7.491  1.0187  1.7931 -1.4215
  115OSM   H10T11996   6.126   5.568   7.413 -1.2086  0.3320  0.3877
  115OSM   C11S11997   6.161   5.450   7.587 -0.1019 -0.4242 -0.6617
  115OSM   H11S11998   6.263   5.432   7.546 -0.0474  0.4209 -0.9327
  115OSM   H11T11999   6.125   5.357   7.635 -0.6047 -0.1910 -0.5694
  115OSM   C12S12000   6.146   5.566   7.689 -0.5542  0.0650  0.1641
  115OSM   H12S12001   6.039   5.586   7.709 -0.2032  0.8299  1.3820
  115OSM   H12T12002   6.188   5.657   7.642 -0.8280 -0.1065 -0.4180
  115OSM   C13S12003   6.216   5.546   7.825  0.1618  0.2341  0.2606
  115OSM   H13S12004   6.234   5.649   7.863  0.1612  0.7095 -0.9685
  115OSM   H13T12005   6.318   5.504   7.815  0.6271  0.7513  2.2959
  115OSM   C14S12006   6.129   5.469   7.919 -0.0862 -0.9662 -0.3363
  115OSM   H14S12007   6.087   5.387   7.857 -1.3207  0.6092 -1.6550
  115OSM   H14T12008   6.044   5.532   7.953  1.2801  0.3880  0.7271
  115OSM   C15S12009   6.208   5.420   8.039  0.0778  0.0385  0.3357
  115OSM   H15S12010   6.309   5.466   8.024 -1.2450  3.6366  1.3837
  115OSM   H15T12011   6.224   5.311   8.027 -0.9052 -0.0011 -0.7590
  115OSM   C16S12012   6.151   5.468   8.173  0.2326 -0.8253 -0.3345
  115OSM   H16S12013   6.045   5.439   8.188 -0.1481  0.0950 -1.1963
  115OSM   H16T12014   6.151   5.578   8.163 -0.9011 -0.5068  2.2488
  115OSM   C17S12015   6.225   5.432   8.294 -0.6440  0.0075 -0.0078
  115OSM   H17S12016   6.185   5.344   8.349  2.1205 -1.1104  0.3543
  115OSM   H17T12017   6.205   5.516   8.364  0.1760  1.3913 -1.3930
  115OSM   C18S12018   6.371   5.405   8.279  0.2345 -0.4535 -1.1233
  115OSM   H18S12019   6.407   5.374   8.380 -1.5226 -2.3155 -1.0110
  115OSM   H18T12020   6.432   5.490   8.240  0.0400  1.6320  2.6329
  115OSM   H18U12021   6.396   5.311   8.226  1.5241 -0.1850 -1.0341
  115OSM    C1F12022   6.445   5.089   6.783 -0.1072 -0.4073  0.1831
  115OSM     OF12023   6.523   5.137   6.703 -0.6435  0.4974  0.0304
  115OSM    C2F12024   6.498   5.026   6.902 -0.5991  0.0816 -0.5686
  115OSM    H2F12025   6.608   5.024   6.890 -0.4881 -0.9037  0.5037
  115OSM    H2G12026   6.480   4.917   6.892  0.8935 -0.1561 -0.8700
  115OSM    C3F12027   6.454   5.087   7.034  0.5187 -0.6496 -0.3373
  115OSM    H3F12028   6.344   5.084   7.047  0.4716 -1.2945 -0.8136
  115OSM    H3G12029   6.474   5.196   7.025 -0.0736 -0.5466 -0.4565
  115OSM    C4F12030   6.516   5.018   7.159 -1.2071  0.2027  0.1633
  115OSM    H4F12031   6.620   5.055   7.164 -1.3282  0.3731  3.0046
  115OSM    H4G12032   6.509   4.907   7.165  2.6512 -0.0714  2.2516
  115OSM    C5F12033   6.438   5.063   7.284  0.4877 -1.0474  0.2327
  115OSM    H5F12034   6.331   5.034   7.280  0.3803 -1.0292  1.9929
  115OSM    H5G12035   6.443   5.174   7.286 -2.1087 -0.8459  3.4110
  115OSM    C6F12036   6.499   5.016   7.416 -0.5561  0.2987 -0.3268
  115OSM    H6F12037   6.600   5.058   7.436  0.1647  0.1035 -3.0524
  115OSM    H6G12038   6.522   4.908   7.400  0.0661  0.3853 -0.0504
  115OSM    C7F12039   6.418   5.044   7.544  0.7240  0.6731  0.0980
  115OSM    H7F12040   6.311   5.014   7.533  1.0282 -0.8224  0.9104
  115OSM    H7G12041   6.428   5.153   7.563  0.5170  0.8043 -0.5262
  115OSM    C8F12042   6.464   4.972   7.673  0.4727 -0.8275 -0.5264
  115OSM    H8F12043   6.426   5.040   7.752 -0.4944 -1.7856 -0.1349
  115OSM    H8G12044   6.575   4.975   7.673  0.4592  0.3085 -0.6820
  115OSM    C9F12045   6.413   4.836   7.688  0.2379  0.3775  0.9606
  115OSM    H9F12046   6.450   4.766   7.612 -1.0178  0.5260  0.1798
  115OSM   C10F12047   6.311   4.802   7.767  0.1277 -0.3450  0.3706
  115OSM   H10F12048   6.281   4.697   7.778  0.7218 -1.0261 -3.3341
  115OSM   C11F12049   6.230   4.888   7.855  0.0629  0.3166 -0.7127
  115OSM   H11F12050   6.120   4.873   7.851  0.3690 -2.7955  0.0130
  115OSM   H11G12051   6.258   4.995   7.848  0.1641  0.2186 -2.3118
  115OSM   C12F12052   6.260   4.860   8.001 -0.2051 -0.4800 -0.8696
  115OSM   H12F12053   6.364   4.877   8.037 -0.8506  1.6329  0.1381
  115OSM   H12G12054   6.235   4.753   8.019 -0.3111 -0.8053 -2.7319
  115OSM   C13F12055   6.187   4.959   8.100  0.7180 -0.4309  0.6039
  115OSM   H13F12056   6.077   4.946   8.096  0.4656 -0.8304  4.6426
  115OSM   H13G12057   6.208   5.066   8.078  0.8011 -0.6398 -0.3548
  115OSM   C14F12058   6.219   4.930   8.250 -0.1481  0.1166  0.5674
  115OSM   H14F12059   6.326   4.900   8.241 -0.1746  0.1068  0.2539
  115OSM   H14G12060   6.161   4.841   8.280  0.1958  0.0367  1.0062
  115OSM   C15F12061   6.206   5.048   8.345 -0.2257  0.4403  0.2365
  115OSM   H15F12062   6.099   5.076   8.344  0.4154  3.1898 -0.4789
  115OSM   H15G12063   6.262   5.143   8.333  0.3312  0.4859  2.6353
  115OSM   C16F12064   6.230   4.999   8.491  0.0176 -0.0688  0.0761
  115OSM   H16F12065   6.324   4.940   8.500 -0.9648 -1.9716 -1.4830
  115OSM   H16G12066   6.153   4.924   8.519  0.2265  0.0838  1.1069
  115OSM   C17F12067   6.212   5.123   8.580 -0.0281 -0.1310 -0.3447
  115OSM   H17F12068   6.129   5.183   8.537 -2.2599 -4.2197 -2.3255
  115OSM   H17G12069   6.300   5.189   8.566 -0.6126  0.9360  0.7844
  115OSM   C18F12070   6.185   5.106   8.729  0.2613 -0.7190  0.6240
  115OSM   H18F12071   6.146   5.197   8.779  0.1744 -0.7615  0.6339
  115OSM   H18G12072   6.271   5.054   8.777  1.1955 -0.4132 -0.6610
  115OSM   H18H12073   6.108   5.027   8.744  1.1609 -1.3336  2.3042
  116OSM      N12074   4.801   2.822   6.059 -0.4657  0.5561  0.4045
  116OSM    C1512075   4.661   2.765   6.072  0.0796 -0.5710 -0.9784
  116OSM   H15A12076   4.662   2.681   6.140 -2.1002  1.0912  1.2655
  116OSM   H15B12077   4.628   2.741   5.972  0.7493  0.6473 -1.5270
  116OSM   H15C12078   4.596   2.843   6.108 -0.5359  0.3632 -3.8309
  116OSM    C1412079   4.863   2.840   6.195 -0.1918 -0.1609  0.4316
  116OSM   H14A12080   4.945   2.908   6.181 -1.0931  0.9981  0.5944
  116OSM   H14B12081   4.881   2.747   6.248 -0.9246 -1.3740 -1.3309
  116OSM   H14C12082   4.795   2.898   6.256  0.4523  4.1783 -2.5394
  116OSM    C1312083   4.880   2.728   5.974  0.1093 -0.2986 -0.5247
  116OSM   H13A12084   4.895   2.636   6.029  1.5043  0.7931  0.9992
  116OSM   H13B12085   4.980   2.760   5.948 -0.0120  1.1890  0.7123
  116OSM   H13C12086   4.817   2.706   5.889 -1.4728 -0.8219  0.7271
  116OSM    C1212087   4.792   2.959   5.985 -0.2509 -0.6663 -0.2410
  116OSM   H12A12088   4.754   2.947   5.885  3.0871  0.2384 -1.7551
  116OSM   H12B12089   4.896   2.990   5.977 -0.0477 -0.7478  1.5834
  116OSM    C1112090   4.726   3.078   6.053  0.9399 -1.0768  0.0154
  116OSM   H11A12091   4.727   3.158   5.975  0.0413  0.1584  1.2058
  116OSM   H11B12092   4.782   3.129   6.134  1.1348 -0.9302 -0.2078
  116OSM      P12093   4.518   3.106   6.213  0.3642 -0.3385 -0.2646
  116OSM    O1312094   4.503   3.251   6.191 -0.1039  0.6653 -0.6149
  116OSM    O1412095   4.395   3.030   6.239  0.1483  0.2196  0.2531
  116OSM    O1112096   4.614   3.078   6.337 -0.2231  0.1547 -0.0545
  116OSM    O1212097   4.592   3.052   6.090 -0.3507  0.2153  0.4311
  116OSM    C1S12098   4.586   3.145   6.454 -0.2335  0.2894 -0.4703
  116OSM    H1S12099   4.507   3.098   6.516  1.6481 -1.4664  0.7777
  116OSM    H1T12100   4.578   3.255   6.443  0.2514  0.3278 -0.4658
  116OSM     NF12101   4.682   3.204   6.671  0.2421  0.1288  0.4365
  116OSM    HNF12102   4.719   3.296   6.678 -0.4499  0.6710 -2.0518
  116OSM    C2S12103   4.707   3.132   6.553 -0.0616  0.0465 -0.7859
  116OSM    H2S12104   4.714   3.024   6.580  1.8619  0.4591  0.5447
  116OSM    C3S12105   4.848   3.169   6.495 -0.2163  0.7796  0.5861
  116OSM    H3S12106   4.849   3.277   6.468  2.0061  0.8058  0.6061
  116OSM     O312107   4.881   3.088   6.382 -0.5010 -0.3863  0.0300
  116OSM    HO312108   4.793   3.056   6.363 -1.4785  1.2633  1.4740
  116OSM    C4S12109   4.957   3.152   6.600 -0.0012  0.2683  0.1353
  116OSM    H4S12110   4.959   3.245   6.658 -0.9772  0.6502 -0.4170
  116OSM    C5S12111   5.033   3.043   6.625  0.0091 -0.2826 -0.3592
  116OSM    H5S12112   5.037   2.950   6.567 -0.4253 -1.0575  0.8252
  116OSM    C6S12113   5.123   3.046   6.740 -0.4911  0.0539 -0.1711
  116OSM    H6S12114   5.132   3.149   6.781  1.9339  0.2357 -0.9672
  116OSM    H6T12115   5.225   3.010   6.713 -0.1637  0.5993  0.3180
  116OSM    C7S12116   5.077   2.955   6.852  0.6088 -0.1760 -0.4522
  116OSM    H7S12117   5.169   2.934   6.911  0.7256  0.7417 -0.2850
  116OSM    H7T12118   5.038   2.857   6.817  0.7173 -1.5403  2.8213
  116OSM    C8S12119   4.967   3.015   6.947 -0.1756 -0.3926  0.4419
  116OSM    H8S12120   4.913   2.935   7.002  0.0554 -0.7691  0.1269
  116OSM    H8T12121   4.896   3.077   6.888 -0.0545 -0.3346  0.3576
  116OSM    C9S12122   5.020   3.119   7.051  0.0282 -0.6032 -0.0741
  116OSM    H9S12123   4.933   3.162   7.105  1.6663  1.8281  0.7882
  116OSM    H9T12124   5.061   3.212   7.007 -0.0641  0.4025  1.8686
  116OSM   C10S12125   5.106   3.060   7.164 -0.2535  0.3601  0.0873
  116OSM   H10S12126   5.206   3.088   7.125  0.9382 -1.9541  1.2509
  116OSM   H10T12127   5.078   2.953   7.175 -0.7920  0.5148  0.2581
  116OSM   C11S12128   5.076   3.127   7.298 -0.5286  0.0991 -0.3097
  116OSM   H11S12129   4.971   3.103   7.326 -1.0403 -1.0827 -2.9251
  116OSM   H11T12130   5.084   3.237   7.287  0.9989 -0.0559 -1.0489
  116OSM   C12S12131   5.161   3.086   7.416 -0.2055  0.3860 -0.0591
  116OSM   H12S12132   5.266   3.112   7.393  0.1935 -0.5099  0.6480
  116OSM   H12T12133   5.158   2.976   7.432 -2.8613  0.4513  0.3070
  116OSM   C13S12134   5.114   3.154   7.541  0.0189 -0.0785 -0.0451
  116OSM   H13S12135   5.008   3.134   7.566 -0.0367  0.0112 -0.2093
  116OSM   H13T12136   5.114   3.263   7.520 -0.1547  0.0647  0.6885
  116OSM   C14S12137   5.202   3.121   7.662  0.8173  0.4588  0.2392
  116OSM   H14S12138   5.304   3.165   7.649 -0.1216  2.9330  0.5567
  116OSM   H14T12139   5.211   3.011   7.673  0.3119  0.4966  1.1292
  116OSM   C15S12140   5.135   3.175   7.794  1.0988 -0.3201 -0.0538
  116OSM   H15S12141   5.039   3.121   7.806  0.6881 -0.4861 -3.2174
  116OSM   H15T12142   5.110   3.283   7.792 -0.4066 -0.5358  2.6011
  116OSM   C16S12143   5.224   3.149   7.913  0.0949  0.7469  0.6842
  116OSM   H16S12144   5.330   3.163   7.882 -1.0289  0.7792 -3.7888
  116OSM   H16T12145   5.214   3.044   7.950  2.0392 -0.0826 -0.9467
  116OSM   C17S12146   5.187   3.242   8.026  0.2302 -0.2111 -0.5258
  116OSM   H17S12147   5.088   3.217   8.070  1.2644 -1.2307  1.3257
  116OSM   H17T12148   5.191   3.349   7.997 -0.1829 -0.3482 -1.1014
  116OSM   C18S12149   5.285   3.221   8.133  0.2631  0.3852  0.1983
  116OSM   H18S12150   5.347   3.132   8.109 -1.1747 -0.9485  1.1875
  116OSM   H18T12151   5.239   3.176   8.224  2.7241 -1.4792  0.6490
  116OSM   H18U12152   5.338   3.313   8.165  2.0522 -0.1497 -1.0829
  116OSM    C1F12153   4.607   3.158   6.770  0.0751 -0.3342 -0.1251
  116OSM     OF12154   4.579   3.039   6.771  0.1582  0.6795  0.3707
  116OSM    C2F12155   4.544   3.249   6.868  0.6270 -0.0654 -0.1108
  116OSM    H2F12156   4.451   3.290   6.822  0.8386 -1.1339 -1.5587
  116OSM    H2G12157   4.597   3.343   6.893 -1.8058  1.2314  0.4895
  116OSM    C3F12158   4.496   3.184   7.000 -0.5407  0.0729 -0.6692
  116OSM    H3F12159   4.583   3.175   7.067  1.6076 -0.1405 -3.3010
  116OSM    H3G12160   4.455   3.083   6.976  0.7069  0.1265 -3.3646
  116OSM    C4F12161   4.396   3.269   7.081  0.3824  0.1183  0.3318
  116OSM    H4F12162   4.301   3.281   7.024 -0.3081 -1.0450  1.2243
  116OSM    H4G12163   4.436   3.371   7.102  1.4811  0.0053 -1.0259
  116OSM    C5F12164   4.368   3.199   7.215 -0.0840 -0.2708  0.0453
  116OSM    H5F12165   4.348   3.094   7.184  1.1536 -1.0602  1.7551
  116OSM    H5G12166   4.274   3.239   7.257 -0.7508 -2.0582  0.3308
  116OSM    C6F12167   4.484   3.199   7.320 -0.5242 -0.3174  0.6404
  116OSM    H6F12168   4.550   3.288   7.324  0.5124 -0.9717 -0.9626
  116OSM    H6G12169   4.551   3.115   7.293 -2.7294 -2.0631  0.3287
  116OSM    C7F12170   4.431   3.182   7.461  0.3338 -0.1867  0.5918
  116OSM    H7F12171   4.373   3.087   7.453 -0.2100  0.1934 -0.1326
  116OSM    H7G12172   4.340   3.245   7.474  1.3015  1.1493  1.0996
  116OSM    C8F12173   4.526   3.203   7.582 -0.0764 -0.8064 -0.0670
  116OSM    H8F12174   4.473   3.192   7.679 -1.0733 -0.7438 -0.5962
  116OSM    H8G12175   4.550   3.311   7.575 -0.4599 -0.6582  0.7876
  116OSM    C9F12176   4.651   3.119   7.558  0.2307 -0.6939 -0.0604
  116OSM    H9F12177   4.700   3.117   7.459  0.8146  0.5552  0.1805
  116OSM   C10F12178   4.707   3.034   7.648  0.7280 -0.5718 -0.3362
  116OSM   H10F12179   4.803   2.988   7.620  0.3136 -0.9305 -1.1889
  116OSM   C11F12180   4.661   3.009   7.787 -0.5820  0.6842  0.1758
  116OSM   H11F12181   4.690   2.903   7.802 -0.9831  0.3822 -1.0919
  116OSM   H11G12182   4.551   3.000   7.791 -0.4411 -1.7162  0.3057
  116OSM   C12F12183   4.736   3.099   7.887 -0.4838  0.5578  0.4580
  116OSM   H12F12184   4.742   3.205   7.852  0.8177 -0.2564 -1.9741
  116OSM   H12G12185   4.839   3.061   7.901  0.1871  1.9132 -0.5311
  116OSM   C13F12186   4.671   3.090   8.027 -0.1253  0.3487  0.1732
  116OSM   H13F12187   4.645   2.985   8.049  1.0306 -0.1384 -0.7012
  116OSM   H13G12188   4.579   3.151   8.017 -0.7392  0.0931  3.2309
  116OSM   C14F12189   4.771   3.149   8.129 -0.1230 -0.0864 -0.0775
  116OSM   H14F12190   4.803   3.252   8.100 -0.7116  0.3497  0.7979
  116OSM   H14G12191   4.854   3.076   8.119 -1.8811 -2.3198  0.9486
  116OSM   C15F12192   4.729   3.144   8.279  0.3867 -0.6031  0.4482
  116OSM   H15F12193   4.696   3.039   8.291 -0.8160 -0.1996  0.8346
  116OSM   H15G12194   4.644   3.215   8.292  1.2762  1.5117 -3.4754
  116OSM   C16F12195   4.846   3.174   8.382  0.8633  0.8074  0.2573
  116OSM   H16F12196   4.852   3.283   8.401 -1.3150  0.6593  2.3613
  116OSM   H16G12197   4.935   3.127   8.336 -0.8240 -0.4093 -1.9686
  116OSM   C17F12198   4.834   3.119   8.523 -0.2976  0.0913  0.2326
  116OSM   H17F12199   4.789   3.018   8.516  0.8539 -0.4283  0.0616
  116OSM   H17G12200   4.761   3.181   8.579 -0.5207 -1.5877  1.8826
  116OSM   C18F12201   4.967   3.117   8.596  0.6462 -0.7046  0.3060
  116OSM   H18F12202   5.043   3.053   8.546 -0.1581 -0.1924 -1.6889
  116OSM   H18G12203   4.955   3.078   8.699  1.7307 -1.5594  0.1329
  116OSM   H18H12204   5.007   3.221   8.598 -2.3651  0.5610  0.1297
  117OSM      N12205   5.011   4.598   6.024 -0.3163 -0.1474  0.1633
  117OSM    C1512206   5.139   4.535   5.979  0.4044 -0.0794 -0.1165
  117OSM   H15A12207   5.177   4.581   5.889  1.4923 -2.0587 -0.7276
  117OSM   H15B12208   5.124   4.431   5.952  1.9882 -0.2336 -0.4647
  117OSM   H15C12209   5.219   4.534   6.050  1.5564  1.4716 -1.3156
  117OSM    C1412210   5.034   4.739   6.050 -0.1827  0.1578  0.3253
  117OSM   H14A12211   5.075   4.752   6.149 -0.2795 -2.1235  0.7182
  117OSM   H14B12212   4.939   4.789   6.038 -0.7503 -1.0597 -0.4665
  117OSM   H14C12213   5.094   4.780   5.970 -0.9673 -0.0173 -0.3689
  117OSM    C1312214   4.914   4.562   5.919 -0.3630 -0.1685  0.7842
  117OSM   H13A12215   4.812   4.587   5.945 -0.9259 -1.0869 -0.4262
  117OSM   H13B12216   4.914   4.455   5.905  0.5619  0.0011 -0.6549
  117OSM   H13C12217   4.942   4.598   5.821 -1.0743  0.1215  0.6840
  117OSM    C1212218   4.962   4.542   6.153  0.2795  0.1102 -0.1938
  117OSM   H12A12219   5.045   4.540   6.223  0.9330 -0.3183 -0.9681
  117OSM   H12B12220   4.931   4.439   6.148 -1.7380  0.5956  0.9492
  117OSM    C1112221   4.844   4.613   6.229  0.1806 -0.0568 -0.0765
  117OSM   H11A12222   4.879   4.717   6.246 -1.9611  0.4299  1.9763
  117OSM   H11B12223   4.840   4.561   6.328 -0.5345 -1.5289 -0.8397
  117OSM      P12224   4.610   4.497   6.182 -0.2701 -0.3825  0.0316
  117OSM    O1312225   4.529   4.496   6.058 -0.5317 -0.2225  0.6969
  117OSM    O1412226   4.677   4.373   6.224 -0.8236 -0.0636 -0.1681
  117OSM    O1112227   4.528   4.553   6.305 -0.2934  0.1326 -0.8250
  117OSM    O1212228   4.720   4.610   6.156 -0.1169 -0.2504 -0.6960
  117OSM    C1S12229   4.526   4.485   6.431 -0.5876 -0.4899  0.3511
  117OSM    H1S12230   4.621   4.484   6.489 -0.6205  1.1242  0.4767
  117OSM    H1T12231   4.487   4.381   6.417  1.1154 -1.0745 -0.3279
  117OSM     NF12232   4.419   4.499   6.654 -0.6450 -0.3298 -0.1889
  117OSM    HNF12233   4.343   4.440   6.680  0.4609 -1.5896  0.3488
  117OSM    C2S12234   4.420   4.552   6.516 -0.0460  0.2377  0.4808
  117OSM    H2S12235   4.453   4.658   6.516  0.5071  0.0962 -1.4323
  117OSM    C3S12236   4.286   4.542   6.441 -0.2428  0.6010 -0.1734
  117OSM    H3S12237   4.253   4.437   6.425 -1.0250  1.3001 -4.3981
  117OSM     O312238   4.278   4.596   6.306 -0.1031  0.3953 -0.2148
  117OSM    HO312239   4.368   4.629   6.294  1.3010 -2.6005  0.9651
  117OSM    C4S12240   4.186   4.606   6.525 -0.0593  0.4996  0.3594
  117OSM    H4S12241   4.138   4.526   6.584  1.5569 -0.3857  0.5338
  117OSM    C5S12242   4.161   4.742   6.539  0.6285 -0.0061 -0.0954
  117OSM    H5S12243   4.213   4.818   6.478  0.5473  0.3017  0.2220
  117OSM    C6S12244   4.045   4.790   6.626  0.2847 -0.4119 -0.9019
  117OSM    H6S12245   3.963   4.716   6.634 -2.0537  2.0006 -1.1834
  117OSM    H6T12246   3.997   4.873   6.571  0.8620  0.8936  0.4966
  117OSM    C7S12247   4.081   4.828   6.772  0.1815 -0.1641  0.7204
  117OSM    H7S12248   4.021   4.921   6.782 -1.5938 -1.3145  1.2214
  117OSM    H7T12249   4.188   4.856   6.780  0.1981 -0.7082  2.6346
  117OSM    C8S12250   4.056   4.722   6.880  0.2686  0.1356  0.9219
  117OSM    H8S12251   4.117   4.635   6.849  0.1314  0.9354 -1.8284
  117OSM    H8T12252   3.951   4.684   6.881  0.6962 -1.1470 -0.0460
  117OSM    C9S12253   4.108   4.779   7.014 -0.5017 -0.1934 -0.1379
  117OSM    H9S12254   4.027   4.835   7.067 -0.0613  0.0946  0.2395
  117OSM    H9T12255   4.184   4.859   7.000 -0.4229  0.0621  1.4837
  117OSM   C10S12256   4.151   4.666   7.108  0.0647  0.5881 -0.4259
  117OSM   H10S12257   4.228   4.598   7.067 -1.1152 -0.2410 -1.3457
  117OSM   H10T12258   4.049   4.621   7.115 -0.6392  1.2681 -4.1011
  117OSM   C11S12259   4.212   4.718   7.240  0.3594 -0.0188 -0.0351
  117OSM   H11S12260   4.138   4.772   7.303  0.2708 -0.4721  0.2532
  117OSM   H11T12261   4.297   4.785   7.217  1.4987 -1.2453  0.5060
  117OSM   C12S12262   4.261   4.612   7.332  0.0976  0.2911  0.3330
  117OSM   H12S12263   4.354   4.572   7.285  0.0870 -1.5407  1.7469
  117OSM   H12T12264   4.184   4.532   7.334  2.0355 -1.6557  1.5365
  117OSM   C13S12265   4.272   4.647   7.486 -0.3979 -0.0523 -0.1712
  117OSM   H13S12266   4.301   4.550   7.532  0.5185  0.6549  0.7908
  117OSM   H13T12267   4.172   4.678   7.522  0.8448  2.6807  1.2792
  117OSM   C14S12268   4.371   4.769   7.523  0.2635  0.5046  0.1171
  117OSM   H14S12269   4.331   4.855   7.464 -3.1405 -3.2006 -3.6749
  117OSM   H14T12270   4.470   4.735   7.485  0.2921  0.6868  0.0264
  117OSM   C15S12271   4.359   4.798   7.672  0.1609  0.1883 -0.2254
  117OSM   H15S12272   4.260   4.843   7.695 -0.1842 -0.1325 -1.0225
  117OSM   H15T12273   4.427   4.880   7.703 -0.1600  0.3798 -0.0285
  117OSM   C16S12274   4.398   4.684   7.761  0.9030 -0.0221 -0.3752
  117OSM   H16S12275   4.502   4.648   7.749  0.8737 -1.0495  1.9699
  117OSM   H16T12276   4.322   4.604   7.748 -0.2381  1.2338 -1.6403
  117OSM   C17S12277   4.404   4.716   7.912 -0.3238  0.3236  0.0408
  117OSM   H17S12278   4.323   4.789   7.930 -0.2328  0.1860  1.0530
  117OSM   H17T12279   4.506   4.760   7.925  0.0593 -0.2941 -0.7901
  117OSM   C18S12280   4.387   4.606   8.009 -0.5016  0.3356  0.9256
  117OSM   H18S12281   4.291   4.550   8.009 -1.3878  1.7438 -0.5285
  117OSM   H18T12282   4.397   4.637   8.116  4.3728 -2.6118  1.6162
  117OSM   H18U12283   4.472   4.536   7.996 -0.7325 -0.2028  2.1374
  117OSM    C1F12284   4.511   4.538   6.741 -0.3796  0.1358  0.5504
  117OSM     OF12285   4.589   4.634   6.717  0.3606  0.0320  0.2734
  117OSM    C2F12286   4.520   4.469   6.873  0.5716  0.2977 -0.4686
  117OSM    H2F12287   4.561   4.370   6.845  2.1871  1.2119 -1.4617
  117OSM    H2G12288   4.418   4.477   6.918  1.2703  1.4383  0.9875
  117OSM    C3F12289   4.616   4.534   6.972 -0.0885  0.2329 -0.3160
  117OSM    H3F12290   4.592   4.642   6.979  0.4404  0.3933 -0.9084
  117OSM    H3G12291   4.724   4.533   6.944  0.6185 -0.0926  2.1134
  117OSM    C4F12292   4.592   4.480   7.115  0.6892  0.2145 -0.3488
  117OSM    H4F12293   4.607   4.371   7.103 -3.0222 -0.2555 -1.9994
  117OSM    H4G12294   4.489   4.498   7.152  1.0479  0.6163  0.5032
  117OSM    C5F12295   4.691   4.531   7.221  0.0683  0.0027  1.5240
  117OSM    H5F12296   4.675   4.636   7.253  1.6734 -0.5495  4.5168
  117OSM    H5G12297   4.794   4.515   7.182 -0.9502 -2.8743 -0.3079
  117OSM    C6F12298   4.682   4.460   7.345  0.1563  0.7118 -0.2149
  117OSM    H6F12299   4.677   4.352   7.318  1.3274  0.8454 -1.0310
  117OSM    H6G12300   4.584   4.494   7.387 -1.3312 -1.2367 -1.8821
  117OSM    C7F12301   4.800   4.489   7.439  0.5776  0.0497  0.6092
  117OSM    H7F12302   4.797   4.595   7.472 -2.4522  0.8012 -1.6567
  117OSM    H7G12303   4.897   4.467   7.390  0.4480  0.2370  0.2696
  117OSM    C8F12304   4.793   4.397   7.566  0.0698  0.1970 -0.0482
  117OSM    H8F12305   4.789   4.290   7.536 -0.3498 -0.6303  2.6721
  117OSM    H8G12306   4.693   4.408   7.613 -0.2672 -1.0163 -0.4382
  117OSM    C9F12307   4.909   4.428   7.659 -0.0885 -0.4145 -0.8069
  117OSM    H9F12308   5.010   4.400   7.625  0.1813 -0.5274  0.0433
  117OSM   C10F12309   4.899   4.480   7.787  0.0172 -0.1258 -0.3604
  117OSM   H10F12310   4.995   4.502   7.836 -0.3042  0.2092  0.1235
  117OSM   C11F12311   4.777   4.516   7.870 -0.4152 -0.4335 -0.1462
  117OSM   H11F12312   4.677   4.502   7.824  0.2637 -2.0571 -1.2094
  117OSM   H11G12313   4.792   4.623   7.896  1.0190 -0.4007 -1.0213
  117OSM   C12F12314   4.780   4.434   8.003 -0.1273 -0.0132  0.5754
  117OSM   H12F12315   4.696   4.469   8.066 -0.8525 -1.1275  0.2663
  117OSM   H12G12316   4.873   4.457   8.059 -0.7049 -0.2511  1.6623
  117OSM   C13F12317   4.766   4.279   7.989  0.3007 -0.3496  0.3592
  117OSM   H13F12318   4.834   4.233   7.914 -0.5727 -0.7404 -0.2165
  117OSM   H13G12319   4.661   4.258   7.960  0.5709  1.6003 -2.4723
  117OSM   C14F12320   4.797   4.221   8.125  0.5915 -0.1970  0.2408
  117OSM   H14F12321   4.729   4.276   8.194 -1.3087 -0.6667 -1.1722
  117OSM   H14G12322   4.901   4.227   8.164 -0.2088 -0.9016  2.7184
  117OSM   C15F12323   4.758   4.077   8.129 -0.3560  0.2358  0.4308
  117OSM   H15F12324   4.802   4.020   8.044 -0.0561  0.6419  0.3119
  117OSM   H15G12325   4.647   4.074   8.120 -0.2856  1.2513 -1.3635
  117OSM   C16F12326   4.793   4.011   8.263 -0.6926 -0.0482  0.4924
  117OSM   H16F12327   4.903   4.019   8.280 -0.7644  0.0874  0.9260
  117OSM   H16G12328   4.782   3.901   8.265  0.5790 -0.3139 -2.4252
  117OSM   C17F12329   4.714   4.067   8.380 -0.9209 -0.8498  1.0250
  117OSM   H17F12330   4.751   4.169   8.403 -2.2131  0.4461 -1.9793
  117OSM   H17G12331   4.611   4.077   8.339 -0.5871 -1.7020 -0.0681
  117OSM   C18F12332   4.706   3.994   8.511 -0.0614  0.3157 -0.0227
  117OSM   H18F12333   4.663   3.894   8.492  0.6433 -0.0660  0.3288
  117OSM   H18G12334   4.631   4.039   8.581 -1.3017 -0.6588 -0.7042
  117OSM   H18H12335   4.811   3.976   8.545  0.0912 -3.0526 -1.9533
  118OSM      N12336   4.486   0.217   6.191  0.2905 -0.5350  0.1040
  118OSM    C1512337   4.573   0.152   6.095 -0.5017  1.0165  0.1124
  118OSM   H15A12338   4.663   0.210   6.082  1.2211 -1.4473  0.1895
  118OSM   H15B12339   4.520   0.139   6.001 -0.0640  1.8733 -0.2600
  118OSM   H15C12340   4.593   0.048   6.117 -0.7733  0.3881 -2.3000
  118OSM    C1412341   4.422   0.341   6.138 -0.0797 -0.0848 -0.1000
  118OSM   H14A12342   4.501   0.414   6.125  0.9145 -1.5019 -2.8701
  118OSM   H14B12343   4.354   0.393   6.204  0.5825 -0.3503  0.8119
  118OSM   H14C12344   4.383   0.328   6.038  0.7592 -0.0638 -0.4454
  118OSM    C1312345   4.374   0.124   6.226  0.3970  0.7498 -0.1980
  118OSM   H13A12346   4.314   0.106   6.138 -0.6014 -4.6000  1.1943
  118OSM   H13B12347   4.313   0.164   6.305  0.2827  1.1240 -0.4723
  118OSM   H13C12348   4.403   0.024   6.255 -1.7593  0.0301 -0.3591
  118OSM    C1212349   4.567   0.256   6.320  0.0428  0.1852  0.1833
  118OSM   H12A12350   4.600   0.159   6.355 -2.5446 -1.2149 -0.9380
  118OSM   H12B12351   4.491   0.298   6.385 -0.3966 -0.0660 -0.1577
  118OSM    C1112352   4.684   0.350   6.294  0.7493 -0.0590  0.2586
  118OSM   H11A12353   4.709   0.404   6.388 -0.9132 -0.4263  0.9660
  118OSM   H11B12354   4.660   0.442   6.236  0.4915 -0.0015  0.4494
  118OSM      P12355   4.869   0.165   6.318 -0.2193 -0.3354 -0.2185
  118OSM    O1312356   4.789   0.045   6.303 -0.3598  0.1411 -0.2511
  118OSM    O1412357   5.009   0.159   6.277  0.0094  0.2723  0.9902
  118OSM    O1112358   4.864   0.206   6.466  0.1743  0.1710 -0.5306
  118OSM    O1212359   4.796   0.284   6.240 -0.0208  0.0067  0.4633
  118OSM    C1S12360   4.950   0.148   6.566 -0.3130  0.2255 -0.4871
  118OSM    H1S12361   5.055   0.182   6.553  0.8404 -2.0502  1.9285
  118OSM    H1T12362   4.948   0.037   6.555 -0.5966  0.2294 -0.4689
  118OSM     NF12363   4.995   0.123   6.807  0.5380  0.4170  0.5602
  118OSM    HNF12364   4.969   0.046   6.864  0.9208 -0.0877  0.0589
  118OSM    C2S12365   4.904   0.180   6.714  0.0713  0.0484  0.0581
  118OSM    H2S12366   4.900   0.290   6.730  0.5860  0.4990 -2.5655
  118OSM    C3S12367   4.749   0.138   6.725 -0.2318 -0.7600 -0.2287
  118OSM    H3S12368   4.754   0.031   6.695  0.1833 -1.3710  1.8242
  118OSM     O312369   4.652   0.197   6.640 -0.4095  0.0163 -0.5166
  118OSM    HO312370   4.703   0.256   6.584 -0.1008  0.4482  0.2031
  118OSM    C4S12371   4.705   0.154   6.865  0.1606  0.1160  0.1671
  118OSM    H4S12372   4.730   0.255   6.901 -0.9620  0.2232  0.6810
  118OSM    C5S12373   4.638   0.068   6.950  0.2806 -0.6753  0.9354
  118OSM    H5S12374   4.607  -0.029   6.909  0.5359 -0.4555  0.1938
  118OSM    C6S12375   4.584   0.084   7.092 -0.0985  0.7013 -0.4107
  118OSM    H6S12376   4.630   0.013   7.164  0.0941  1.9158  0.7088
  118OSM    H6T12377   4.481   0.042   7.092 -1.4468  3.7224  0.0816
  118OSM    C7S12378   4.590   0.222   7.145 -0.5406 -0.8141 -0.4567
  118OSM    H7S12379   4.573   0.298   7.066  0.8246  1.1695  1.0418
  118OSM    H7T12380   4.695   0.247   7.172 -0.0183  0.5954 -3.3899
  118OSM    C8S12381   4.493   0.244   7.265  0.3205  0.2376  0.7804
  118OSM    H8S12382   4.388   0.222   7.236  0.7992 -1.5324  0.2794
  118OSM    H8T12383   4.509   0.352   7.284 -0.9037  0.5872 -0.0567
  118OSM    C9S12384   4.527   0.163   7.386  0.2087 -0.3293  0.0417
  118OSM    H9S12385   4.637   0.167   7.402  0.2624 -1.1320 -0.0753
  118OSM    H9T12386   4.497   0.057   7.370  0.2137 -0.4403  0.7563
  118OSM   C10S12387   4.452   0.208   7.511  0.5385  0.2131 -0.6402
  118OSM   H10S12388   4.348   0.177   7.489  0.7305 -0.5696 -0.4818
  118OSM   H10T12389   4.444   0.318   7.524 -0.2309 -0.0157  1.2752
  118OSM   C11S12390   4.508   0.144   7.629 -0.1359  0.2621  0.0940
  118OSM   H11S12391   4.598   0.201   7.661 -0.4829  0.7907  0.1329
  118OSM   H11T12392   4.533   0.037   7.608 -0.2256  0.3049 -0.2283
  118OSM   C12S12393   4.389   0.136   7.731 -0.4333 -0.1160 -0.2840
  118OSM   H12S12394   4.305   0.089   7.676 -1.2909  1.5375 -0.4749
  118OSM   H12T12395   4.365   0.242   7.757  0.8069  0.6581 -2.0965
  118OSM   C13S12396   4.417   0.047   7.857  0.6028 -0.0256  0.3330
  118OSM   H13S12397   4.426  -0.059   7.826  2.3597  0.5240 -1.2309
  118OSM   H13T12398   4.323   0.059   7.915 -1.4223 -0.2539 -2.6537
  118OSM   C14S12399   4.537   0.090   7.942  0.4443 -0.2779 -0.8797
  118OSM   H14S12400   4.541   0.198   7.969  0.0002 -0.8323  1.6857
  118OSM   H14T12401   4.624   0.078   7.873 -1.2385  0.8576 -3.3384
  118OSM   C15S12402   4.563   0.002   8.069 -0.0018 -0.1576  0.5814
  118OSM   H15S12403   4.544  -0.104   8.044 -3.7845  0.0881  1.8532
  118OSM   H15T12404   4.483   0.024   8.143 -0.7693 -0.0558 -0.2743
  118OSM   C16S12405   4.713   0.028   8.116  0.1024 -1.0130 -0.4817
  118OSM   H16S12406   4.720   0.136   8.142  0.8646 -1.3316  0.7240
  118OSM   H16T12407   4.778   0.007   8.028 -1.1896  0.2296 -1.7911
  118OSM   C17S12408   4.753  -0.068   8.228  0.3626  0.2642 -0.4160
  118OSM   H17S12409   4.864  -0.078   8.228  0.6134  2.0880  1.8306
  118OSM   H17T12410   4.708  -0.166   8.203 -2.3488  1.0819  0.8909
  118OSM   C18S12411   4.704  -0.030   8.370 -0.3576 -0.0226  0.3592
  118OSM   H18S12412   4.595  -0.024   8.385 -0.2836  0.5086  0.7429
  118OSM   H18T12413   4.751   0.067   8.397  2.5233 -2.1223  3.6891
  118OSM   H18U12414   4.747  -0.110   8.433  0.7683 -0.3841 -0.8125
  118OSM    C1F12415   5.128   0.148   6.807  0.3456  0.5626  0.8383
  118OSM     OF12416   5.177   0.227   6.730 -0.0910 -0.4209 -0.8771
  118OSM    C2F12417   5.203   0.075   6.915 -0.2002 -0.0513  0.8387
  118OSM    H2F12418   5.248  -0.017   6.872  0.8481  0.9557 -0.2990
  118OSM    H2G12419   5.134   0.062   7.001 -1.1266 -0.9123 -0.0053
  118OSM    C3F12420   5.326   0.143   6.981 -0.2778 -1.1980  0.7254
  118OSM    H3F12421   5.279   0.223   7.042  0.0628  0.4148 -1.0091
  118OSM    H3G12422   5.391   0.185   6.901 -2.1481 -0.6503 -0.5880
  118OSM    C4F12423   5.397   0.043   7.074  0.1273  0.4985  0.7192
  118OSM    H4F12424   5.453  -0.028   7.010  0.9673  1.2673  0.5784
  118OSM    H4G12425   5.311  -0.009   7.121 -1.2744 -0.6293 -2.7478
  118OSM    C5F12426   5.509   0.112   7.151  0.2887 -0.0917 -0.0960
  118OSM    H5F12427   5.467   0.198   7.208  0.1637  0.1096 -0.4917
  118OSM    H5G12428   5.576   0.157   7.075 -2.6726 -1.8891 -4.1247
  118OSM    C6F12429   5.575   0.014   7.243  0.2689  0.6805  0.4286
  118OSM    H6F12430   5.590  -0.084   7.192 -0.6010 -0.0295  1.4886
  118OSM    H6G12431   5.502  -0.009   7.324  1.0202  0.2329  0.9895
  118OSM    C7F12432   5.718   0.038   7.290 -0.2860 -0.0824 -0.0927
  118OSM    H7F12433   5.719   0.139   7.338  5.1337 -0.5609  1.4246
  118OSM    H7G12434   5.790   0.044   7.206 -0.5495  1.0190 -0.2595
  118OSM    C8F12435   5.766  -0.067   7.396  0.6938  0.5865  0.7158
  118OSM    H8F12436   5.734  -0.166   7.358 -2.0549  1.6930 -0.1030
  118OSM    H8G12437   5.704  -0.049   7.486 -1.7188  0.4639 -0.8403
  118OSM    C9F12438   5.920  -0.053   7.433  0.0173 -0.1693 -0.0996
  118OSM    H9F12439   5.986  -0.085   7.351  0.0756  0.7743 -0.4301
  118OSM   C10F12440   5.975   0.012   7.535 -0.1038  0.5768  0.3758
  118OSM   H10F12441   6.083   0.013   7.553 -0.4150 -0.1802  2.6517
  118OSM   C11F12442   5.888   0.080   7.640 -0.6606 -0.0749 -0.5940
  118OSM   H11F12443   5.780   0.092   7.618 -1.5234 -1.8866  2.1488
  118OSM   H11G12444   5.936   0.178   7.661 -0.1395 -0.5202  0.3589
  118OSM   C12F12445   5.887  -0.004   7.775 -0.2827  0.1228 -1.0442
  118OSM   H12F12446   5.990  -0.047   7.775  0.6132  2.0829  0.3200
  118OSM   H12G12447   5.808  -0.081   7.771 -1.7544  1.6163 -2.2020
  118OSM   C13F12448   5.856   0.084   7.902  0.3373 -0.6086 -0.2884
  118OSM   H13F12449   5.750   0.119   7.896  0.4474  0.4320  2.2845
  118OSM   H13G12450   5.923   0.173   7.898  0.4760 -0.6469  0.8582
  118OSM   C14F12451   5.870   0.004   8.035 -0.6397  0.3922 -0.3656
  118OSM   H14F12452   5.823  -0.097   8.037 -0.4394  0.2915 -0.6732
  118OSM   H14G12453   5.809   0.057   8.111  0.5963 -2.4324  2.8115
  118OSM   C15F12454   6.016  -0.018   8.076 -0.4467 -0.1654  0.6406
  118OSM   H15F12455   6.075  -0.048   7.986  0.9291  2.8228  0.4307
  118OSM   H15G12456   6.019  -0.095   8.156  2.3925  0.1186  0.9242
  118OSM   C16F12457   6.075   0.105   8.133 -0.1364  0.2080 -0.3521
  118OSM   H16F12458   6.038   0.192   8.076 -1.3213 -0.0372  0.0194
  118OSM   H16G12459   6.186   0.106   8.123 -0.2880  0.3872 -2.4332
  118OSM   C17F12460   6.040   0.118   8.285 -0.6594 -0.3560 -0.2779
  118OSM   H17F12461   6.074   0.024   8.334 -2.4481 -0.9859 -0.1898
  118OSM   H17G12462   5.929   0.119   8.289 -0.6411  0.6484 -0.0403
  118OSM   C18F12463   6.099   0.241   8.359 -0.6161 -0.4235  0.7518
  118OSM   H18F12464   6.091   0.223   8.469 -2.6112 -1.3581  0.4957
  118OSM   H18G12465   6.062   0.340   8.327 -0.8338 -0.1899  1.6939
  118OSM   H18H12466   6.206   0.242   8.329 -0.6427 -1.1610  0.6164
  119OSM      N12467   2.025   2.641   5.996  0.5184 -0.5330 -0.0692
  119OSM    C1512468   2.069   2.718   5.877 -0.4722 -0.2946 -0.0534
  119OSM   H15A12469   2.177   2.715   5.883 -0.4540  0.8460  0.5221
  119OSM   H15B12470   2.045   2.823   5.886  1.8577  0.1134  3.3231
  119OSM   H15C12471   2.025   2.676   5.788  0.4454 -0.2339 -0.5403
  119OSM    C1412472   1.875   2.665   6.015  0.3009 -0.4078 -0.0137
  119OSM   H14A12473   1.849   2.627   6.113  2.8924 -1.4299  0.3605
  119OSM   H14B12474   1.813   2.630   5.935 -0.8600  3.3199 -0.9682
  119OSM   H14C12475   1.856   2.772   6.019  2.4138  0.0214 -0.3636
  119OSM    C1312476   2.056   2.496   5.959 -0.5514  0.0941  0.4986
  119OSM   H13A12477   2.152   2.490   5.910 -2.0862 -2.2214 -2.5275
  119OSM   H13B12478   1.975   2.460   5.897 -1.7209  0.2727  1.8529
  119OSM   H13C12479   2.065   2.432   6.046 -2.9687  0.0456  0.7826
  119OSM    C1212480   2.099   2.697   6.124  0.6322  0.1597  0.4972
  119OSM   H12A12481   2.062   2.644   6.211  1.1530  0.4773  0.9248
  119OSM   H12B12482   2.071   2.800   6.140  0.7512  0.2527  0.1151
  119OSM    C1112483   2.260   2.684   6.106  0.6084 -0.4797 -0.5590
  119OSM   H11A12484   2.274   2.577   6.078  0.6276 -0.9910  1.2372
  119OSM   H11B12485   2.307   2.701   6.205 -0.1340  0.4208 -0.3400
  119OSM      P12486   2.348   2.925   6.052 -0.0984  0.2772  0.0524
  119OSM    O1312487   2.485   2.934   6.112  0.1698 -0.1187  0.3466
  119OSM    O1412488   2.320   3.016   5.936 -0.0036  0.0440 -0.8550
  119OSM    O1112489   2.225   2.941   6.151 -0.2243  0.2265  0.2340
  119OSM    O1212490   2.313   2.775   6.010 -0.0508  0.0050 -0.5945
  119OSM    C1S12491   2.248   2.946   6.296 -0.3902 -0.0458  0.2077
  119OSM    H1S12492   2.343   2.999   6.318  0.1501 -1.1650  0.6082
  119OSM    H1T12493   2.246   2.850   6.351 -1.3650 -0.1783 -0.0348
  119OSM     NF12494   2.174   3.033   6.509  0.0482  0.2779 -0.2611
  119OSM    HNF12495   2.137   2.964   6.571  3.3807  1.0332  2.9510
  119OSM    C2S12496   2.134   3.027   6.367  0.0813  0.0836  0.7843
  119OSM    H2S12497   2.138   3.130   6.325  0.4281 -0.4868 -0.6331
  119OSM    C3S12498   1.992   2.965   6.342  0.4494  0.0771  0.7652
  119OSM    H3S12499   1.985   2.865   6.390  1.1075 -0.7152 -0.6947
  119OSM     O312500   1.955   2.952   6.207 -0.0399 -0.0180 -0.3505
  119OSM    HO312501   2.038   2.963   6.161  0.4844 -3.4670 -0.4633
  119OSM    C4S12502   1.894   3.063   6.408  0.2252  0.2562 -1.4664
  119OSM    H4S12503   1.884   3.160   6.358 -0.8292  1.2294  0.5147
  119OSM    C5S12504   1.832   3.044   6.525  0.3698 -0.0798 -0.9964
  119OSM    H5S12505   1.853   2.957   6.589  2.9876  2.8566  2.6749
  119OSM    C6S12506   1.725   3.139   6.574  0.2679  0.9167  0.7078
  119OSM    H6S12507   1.630   3.081   6.582  0.3376  0.8335  0.9494
  119OSM    H6T12508   1.703   3.232   6.517 -2.2157 -0.2124 -0.3263
  119OSM    C7S12509   1.756   3.180   6.721  0.3467  0.4647 -0.1210
  119OSM    H7S12510   1.715   3.283   6.734 -2.3363 -0.3855 -1.2363
  119OSM    H7T12511   1.867   3.180   6.724  0.4492 -3.1490  2.5044
  119OSM    C8S12512   1.698   3.092   6.837 -0.0425  0.9083  0.2446
  119OSM    H8S12513   1.728   2.985   6.835  0.6024  1.0860 -0.3269
  119OSM    H8T12514   1.588   3.087   6.823 -0.2135  2.1769  1.0108
  119OSM    C9S12515   1.730   3.145   6.976  0.5955  0.6196 -0.0182
  119OSM    H9S12516   1.713   3.253   6.997  1.9615  1.0630 -1.0566
  119OSM    H9T12517   1.837   3.126   6.995  0.9425  1.7297 -0.7700
  119OSM   C10S12518   1.654   3.068   7.093 -0.3566  0.5266  0.3585
  119OSM   H10S12519   1.672   2.959   7.080  1.6618  0.9318 -0.7888
  119OSM   H10T12520   1.547   3.088   7.075 -0.2014  0.5884 -0.5332
  119OSM   C11S12521   1.701   3.102   7.233  0.0869  0.2097 -0.3329
  119OSM   H11S12522   1.659   3.199   7.268 -3.3492 -0.9697 -0.8599
  119OSM   H11T12523   1.810   3.121   7.246  0.1115  0.0124 -0.2492
  119OSM   C12S12524   1.669   2.990   7.334 -0.1457 -0.3874  0.0070
  119OSM   H12S12525   1.738   2.903   7.320  0.0307 -0.0401 -1.4568
  119OSM   H12T12526   1.571   2.947   7.306  0.3495 -1.7927  0.3437
  119OSM   C13S12527   1.673   3.053   7.474 -0.0681  0.6410 -0.9816
  119OSM   H13S12528   1.576   3.107   7.479 -0.9727 -0.9398 -0.8963
  119OSM   H13T12529   1.763   3.116   7.494 -0.7064  1.4597 -0.6315
  119OSM   C14S12530   1.673   2.952   7.591 -0.4286 -0.4201 -0.0025
  119OSM   H14S12531   1.737   2.862   7.575 -1.1478 -0.6324 -1.9450
  119OSM   H14T12532   1.571   2.911   7.603 -1.2230  1.7320  1.1673
  119OSM   C15S12533   1.722   3.016   7.723 -0.0081 -0.1855 -0.2520
  119OSM   H15S12534   1.669   3.111   7.745  1.4215  0.1241  2.2210
  119OSM   H15T12535   1.832   3.033   7.722  0.0822 -0.5362  1.3384
  119OSM   C16S12536   1.710   2.928   7.847 -0.6522 -0.3656  0.3383
  119OSM   H16S12537   1.772   2.837   7.835 -0.4366 -0.2676  0.6651
  119OSM   H16T12538   1.607   2.887   7.852  0.2992 -3.1724 -0.9865
  119OSM   C17S12539   1.750   3.013   7.970  0.2597 -0.0515 -0.6850
  119OSM   H17S12540   1.685   3.103   7.970  0.9682  0.4808  0.0810
  119OSM   H17T12541   1.853   3.053   7.965  0.9928 -1.9339 -1.6229
  119OSM   C18S12542   1.749   2.952   8.111  0.4271 -0.0191  0.4697
  119OSM   H18S12543   1.772   3.032   8.185  0.0318  1.8483 -1.3232
  119OSM   H18T12544   1.829   2.876   8.114  2.1266  1.6079 -1.0997
  119OSM   H18U12545   1.648   2.908   8.128 -0.4769  1.6068 -0.3884
  119OSM    C1F12546   2.276   3.098   6.562 -0.2520  0.5545 -0.0714
  119OSM     OF12547   2.337   3.184   6.502  0.1109 -0.3275  0.3106
  119OSM    C2F12548   2.311   3.056   6.698 -0.8120 -0.2383  0.4836
  119OSM    H2F12549   2.344   2.951   6.684 -0.8872 -0.0739 -1.0699
  119OSM    H2G12550   2.219   3.068   6.758 -0.5090 -2.3320  1.4419
  119OSM    C3F12551   2.425   3.151   6.755 -0.2045  1.2530  0.8153
  119OSM    H3F12552   2.403   3.257   6.732 -0.6179  1.2448  1.1876
  119OSM    H3G12553   2.527   3.128   6.716 -0.0864  1.1756  1.1697
  119OSM    C4F12554   2.430   3.142   6.908  0.4613  0.5197 -0.6280
  119OSM    H4F12555   2.456   3.040   6.942  0.4702  1.1002  1.2321
  119OSM    H4G12556   2.331   3.153   6.957  0.2217 -1.1840 -0.6791
  119OSM    C5F12557   2.534   3.243   6.970 -0.0897  0.0238 -0.4262
  119OSM    H5F12558   2.528   3.340   6.916  0.7468  0.5398  0.3760
  119OSM    H5G12559   2.635   3.200   6.959  0.2350  0.4959  0.6068
  119OSM    C6F12560   2.491   3.279   7.115  0.1012 -0.5590 -0.1858
  119OSM    H6F12561   2.380   3.284   7.127 -0.4160 -4.4669 -1.9016
  119OSM    H6G12562   2.534   3.378   7.140 -0.0478 -0.5899  0.1986
  119OSM    C7F12563   2.541   3.177   7.217  0.3962  0.1426  0.0847
  119OSM    H7F12564   2.651   3.165   7.214  0.5732  1.5103 -3.0121
  119OSM    H7G12565   2.506   3.077   7.181  2.6020 -0.6355 -0.0421
  119OSM    C8F12566   2.488   3.191   7.370 -0.3704 -0.2024 -0.7491
  119OSM    H8F12567   2.378   3.206   7.370 -0.3010  0.7520 -3.2378
  119OSM    H8G12568   2.522   3.291   7.404  1.1332 -1.2280  0.9275
  119OSM    C9F12569   2.534   3.087   7.467 -0.2384  0.9076  0.1386
  119OSM    H9F12570   2.527   2.983   7.433 -0.9388  1.1999 -0.6545
  119OSM   C10F12571   2.570   3.099   7.596  0.8172  0.2097 -0.0859
  119OSM   H10F12572   2.611   3.013   7.651  0.4610  0.9325  1.3680
  119OSM   C11F12573   2.585   3.229   7.669  0.5265 -0.1356  0.1147
  119OSM   H11F12574   2.548   3.320   7.617  0.3226 -2.1260 -3.5551
  119OSM   H11G12575   2.692   3.243   7.694  0.6908 -2.2113  0.7737
  119OSM   C12F12576   2.516   3.222   7.815 -0.4705 -1.0758  0.3049
  119OSM   H12F12577   2.408   3.198   7.805 -0.2905 -3.0264  2.2933
  119OSM   H12G12578   2.519   3.325   7.857 -2.0248 -0.1058 -1.7848
  119OSM   C13F12579   2.573   3.113   7.904 -1.2038  0.0220  0.1350
  119OSM   H13F12580   2.683   3.117   7.911 -0.9989  1.4721 -2.5782
  119OSM   H13G12581   2.544   3.016   7.858  2.0087  0.0471 -2.2682
  119OSM   C14F12582   2.530   3.113   8.051 -0.0569 -0.0743 -0.1917
  119OSM   H14F12583   2.527   3.006   8.080 -0.9726 -0.2155 -0.7447
  119OSM   H14G12584   2.426   3.151   8.060 -1.0786 -2.2448 -2.0062
  119OSM   C15F12585   2.622   3.198   8.147 -0.1240  0.2622 -0.1147
  119OSM   H15F12586   2.649   3.298   8.106 -1.5909  1.2685  1.2694
  119OSM   H15G12587   2.720   3.148   8.166  0.6686  2.4270  2.0503
  119OSM   C16F12588   2.553   3.215   8.283 -0.0749  0.5735  0.0230
  119OSM   H16F12589   2.531   3.113   8.321  2.7599 -0.2395 -0.2859
  119OSM   H16G12590   2.457   3.271   8.277 -1.0084 -0.6864  2.3661
  119OSM   C17F12591   2.641   3.292   8.387  0.1469 -0.3735  0.7103
  119OSM   H17F12592   2.585   3.295   8.483 -1.0844 -3.2860  0.1711
  119OSM   H17G12593   2.652   3.396   8.350  1.9525 -0.2777  1.4054
  119OSM   C18F12594   2.786   3.243   8.410  0.0134 -0.5871 -0.4660
  119OSM   H18F12595   2.782   3.132   8.421  0.3060 -0.5041  0.6226
  119OSM   H18G12596   2.827   3.287   8.504 -1.5568 -1.4826  0.7012
  119OSM   H18H12597   2.857   3.281   8.333  0.4349  0.4351  0.4044
  120OSM      N12598   4.381   2.287   6.397 -0.4626  0.1505 -0.3521
  120OSM    C1512599   4.421   2.195   6.279 -0.7631 -0.3094 -0.1628
  120OSM   H15A12600   4.357   2.212   6.193 -2.6952  1.6146  1.5204
  120OSM   H15B12601   4.409   2.089   6.297 -1.1820  0.0240  1.7461
  120OSM   H15C12602   4.519   2.219   6.243 -1.2552  0.9783 -0.7181
  120OSM    C1412603   4.362   2.428   6.358  0.0938 -0.1419  0.4945
  120OSM   H14A12604   4.282   2.429   6.286  0.1249 -2.8617  0.3341
  120OSM   H14B12605   4.444   2.478   6.308 -0.3881 -0.1387 -0.2954
  120OSM   H14C12606   4.348   2.482   6.451 -1.6386  2.9285 -1.3771
  120OSM    C1312607   4.246   2.235   6.441 -0.8099 -0.3618 -0.1402
  120OSM   H13A12608   4.206   2.305   6.513 -1.4088 -0.6179 -0.2212
  120OSM   H13B12609   4.248   2.133   6.477 -1.5798  0.1202  1.3566
  120OSM   H13C12610   4.165   2.247   6.371 -0.8953  3.2997  0.3689
  120OSM    C1212611   4.475   2.262   6.516 -0.0962  0.5426 -0.2124
  120OSM   H12A12612   4.469   2.157   6.543 -1.0567  0.2600 -1.4037
  120OSM   H12B12613   4.437   2.312   6.603 -2.6127 -1.7200  0.1194
  120OSM    C1112614   4.622   2.301   6.497  0.0374  0.2378  0.7240
  120OSM   H11A12615   4.651   2.231   6.416 -2.0819  0.4211 -0.2494
  120OSM   H11B12616   4.670   2.271   6.593  1.1252  0.5116  0.2770
  120OSM      P12617   4.728   2.484   6.329 -0.1286  0.0840  0.0844
  120OSM    O1312618   4.860   2.419   6.314  0.3433 -0.2498  0.2841
  120OSM    O1412619   4.633   2.505   6.208 -0.4804  0.3865  0.6102
  120OSM    O1112620   4.768   2.630   6.370  0.5769 -0.5643 -0.1625
  120OSM    O1212621   4.649   2.439   6.461 -0.1088  0.0132 -0.1239
  120OSM    C1S12622   4.666   2.724   6.416 -0.3581  0.6068 -0.9508
  120OSM    H1S12623   4.574   2.706   6.357  1.3836 -1.6606 -3.1463
  120OSM    H1T12624   4.694   2.828   6.387  1.1376  0.4456 -0.2001
  120OSM     NF12625   4.527   2.804   6.617  0.0159 -0.4949  0.5923
  120OSM    HNF12626   4.546   2.875   6.685 -2.8578  0.7506  0.2149
  120OSM    C2S12627   4.637   2.719   6.574  0.0967 -0.0679 -0.1966
  120OSM    H2S12628   4.603   2.618   6.604  1.3111 -0.0388  1.4411
  120OSM    C3S12629   4.760   2.746   6.666 -0.4979  0.5453  0.0899
  120OSM    H3S12630   4.790   2.853   6.661  1.1407  0.1043 -0.0546
  120OSM     O312631   4.877   2.683   6.618  0.6192  0.5115  0.3603
  120OSM    HO312632   4.837   2.644   6.540  0.3298  0.5648  0.4789
  120OSM    C4S12633   4.736   2.698   6.804 -0.6872  0.3141  0.2440
  120OSM    H4S12634   4.764   2.592   6.815  0.4505  0.6874  1.0516
  120OSM    C5S12635   4.700   2.766   6.910  0.4154 -0.1978 -0.0599
  120OSM    H5S12636   4.695   2.874   6.891 -0.7227 -0.0269  1.0384
  120OSM    C6S12637   4.688   2.725   7.053  0.4356  0.3779  0.3343
  120OSM    H6S12638   4.756   2.639   7.072 -3.3930 -2.8750  0.5205
  120OSM    H6T12639   4.585   2.686   7.067 -0.2502  2.1810  0.5057
  120OSM    C7S12640   4.690   2.835   7.162  0.0842  0.0061  0.4260
  120OSM    H7S12641   4.616   2.913   7.133  1.6949  1.6169  0.4969
  120OSM    H7T12642   4.791   2.880   7.164 -0.2768  0.8019  1.5721
  120OSM    C8S12643   4.641   2.789   7.306  0.1168  0.2387  0.7234
  120OSM    H8S12644   4.538   2.753   7.286  0.5518 -0.5216 -0.2605
  120OSM    H8T12645   4.636   2.886   7.361 -0.4081  1.1430 -0.8423
  120OSM    C9S12646   4.707   2.666   7.368  0.0808 -0.8472 -0.3100
  120OSM    H9S12647   4.679   2.574   7.311 -1.5791 -0.8675  0.4830
  120OSM    H9T12648   4.677   2.648   7.473  0.3086  0.9167  0.0832
  120OSM   C10S12649   4.866   2.668   7.371  0.6280 -0.2174  0.4807
  120OSM   H10S12650   4.905   2.688   7.269 -0.7534 -0.2993 -0.0914
  120OSM   H10T12651   4.906   2.571   7.406 -0.7306 -2.0366 -2.5578
  120OSM   C11S12652   4.917   2.769   7.469 -0.3589  0.9024  0.1413
  120OSM   H11S12653   4.891   2.873   7.440  1.0765  0.9772 -1.0039
  120OSM   H11T12654   5.027   2.764   7.453 -0.5580  1.2692 -1.5370
  120OSM   C12S12655   4.886   2.718   7.611  0.6081 -0.1117 -0.4964
  120OSM   H12S12656   4.887   2.607   7.615 -0.8982 -0.1136  0.6041
  120OSM   H12T12657   4.782   2.734   7.646  0.8915 -2.1302  1.4079
  120OSM   C13S12658   4.988   2.773   7.716 -0.4819 -0.1869 -0.6234
  120OSM   H13S12659   5.003   2.882   7.707  1.0840 -0.2606  0.6534
  120OSM   H13T12660   5.083   2.721   7.693  0.2074  1.1351 -0.8500
  120OSM   C14S12661   4.937   2.744   7.862 -0.2961  0.2346 -0.6019
  120OSM   H14S12662   4.926   2.635   7.885  3.9153 -0.4110 -0.8038
  120OSM   H14T12663   4.834   2.784   7.875 -1.8166 -3.7876  1.7968
  120OSM   C15S12664   5.036   2.797   7.962 -0.1462 -0.9012 -0.5046
  120OSM   H15S12665   5.038   2.905   7.934 -1.7282 -0.6478  0.2686
  120OSM   H15T12666   5.143   2.771   7.944 -0.3497 -1.9842 -0.1840
  120OSM   C16S12667   4.993   2.791   8.108  0.8330 -0.4473  0.0432
  120OSM   H16S12668   4.990   2.686   8.142 -0.9456 -0.4970 -0.1650
  120OSM   H16T12669   4.892   2.833   8.125  1.6852  1.3267  1.0805
  120OSM   C17S12670   5.093   2.866   8.190  0.6678  0.0246  0.6432
  120OSM   H17S12671   5.080   2.976   8.182 -1.6293 -0.3195 -1.5272
  120OSM   H17T12672   5.196   2.846   8.154  0.4937  0.6442 -0.2156
  120OSM   C18S12673   5.083   2.844   8.347 -0.5797 -0.1090  0.1658
  120OSM   H18S12674   5.117   2.742   8.375  1.8295  0.4906 -0.3299
  120OSM   H18T12675   4.981   2.869   8.384 -0.6621  0.3273 -0.3381
  120OSM   H18U12676   5.152   2.914   8.398 -0.4216  0.5881 -0.9665
  120OSM    C1F12677   4.404   2.784   6.578  0.0912  0.0192  0.2297
  120OSM     OF12678   4.373   2.703   6.492 -0.2074  0.8213 -0.0685
  120OSM    C2F12679   4.301   2.871   6.625 -0.2472  0.3668 -1.0223
  120OSM    H2F12680   4.228   2.886   6.542 -0.9753  0.2102 -0.4186
  120OSM    H2G12681   4.344   2.969   6.653 -1.0007 -0.0607  2.0079
  120OSM    C3F12682   4.232   2.818   6.752 -0.0567  0.6248  0.1187
  120OSM    H3F12683   4.179   2.723   6.728  0.5817  0.4446 -0.6573
  120OSM    H3G12684   4.142   2.880   6.769 -1.2634 -1.2593  0.8259
  120OSM    C4F12685   4.313   2.799   6.880 -0.6476  0.2294 -0.2530
  120OSM    H4F12686   4.375   2.890   6.889  2.0546 -1.3166 -1.7786
  120OSM    H4G12687   4.390   2.720   6.863 -0.8259  0.0715 -0.3315
  120OSM    C5F12688   4.230   2.793   7.009  0.2139 -0.6067  0.1003
  120OSM    H5F12689   4.145   2.724   6.992  1.1069 -1.5885 -0.4276
  120OSM    H5G12690   4.190   2.897   7.010 -1.9542 -1.3075 -2.5986
  120OSM    C6F12691   4.302   2.763   7.143 -0.5494  0.6232  0.2400
  120OSM    H6F12692   4.371   2.850   7.144  1.1301 -0.6531  0.0287
  120OSM    H6G12693   4.356   2.666   7.134 -1.3929  0.3270 -2.3039
  120OSM    C7F12694   4.214   2.766   7.260  0.3772  0.1327  0.6344
  120OSM    H7F12695   4.143   2.680   7.257 -0.8118  1.0654  1.2145
  120OSM    H7G12696   4.142   2.849   7.244  1.5744  0.9911 -0.4762
  120OSM    C8F12697   4.297   2.780   7.385  0.4985 -0.1057 -0.0862
  120OSM    H8F12698   4.368   2.866   7.383  1.0535 -0.5508 -2.5165
  120OSM    H8G12699   4.371   2.699   7.404  1.5942  0.7454 -0.6312
  120OSM    C9F12700   4.197   2.785   7.499 -0.4629 -0.0570  0.7833
  120OSM    H9F12701   4.092   2.793   7.466 -0.1692  1.2275  0.0884
  120OSM   C10F12702   4.221   2.758   7.629  0.0948  0.0332 -0.3355
  120OSM   H10F12703   4.142   2.766   7.705  0.2051  0.1750 -0.2372
  120OSM   C11F12704   4.353   2.718   7.681 -0.1561  0.2939 -0.1785
  120OSM   H11F12705   4.429   2.775   7.622 -2.8874  1.8176 -2.4404
  120OSM   H11G12706   4.365   2.608   7.670 -2.7003 -0.2710  1.8517
  120OSM   C12F12707   4.372   2.740   7.826 -0.5121 -1.3682 -0.5757
  120OSM   H12F12708   4.283   2.719   7.888  1.1822 -0.4314  2.3947
  120OSM   H12G12709   4.380   2.849   7.845 -2.3251 -1.4737  1.0338
  120OSM   C13F12710   4.503   2.690   7.887  0.2202 -0.1713  0.1779
  120OSM   H13F12711   4.594   2.732   7.841 -0.8095 -0.3763 -2.1757
  120OSM   H13G12712   4.511   2.580   7.878  1.2550  0.0693 -2.3519
  120OSM   C14F12713   4.502   2.731   8.039  0.0860  0.0859 -0.4188
  120OSM   H14F12714   4.408   2.690   8.083 -0.3782 -0.0109 -1.4812
  120OSM   H14G12715   4.504   2.840   8.058  0.4335 -0.2263  1.6224
  120OSM   C15F12716   4.614   2.679   8.123 -0.4913  0.6597  0.3920
  120OSM   H15F12717   4.707   2.728   8.088  0.8173  0.0150  2.7503
  120OSM   H15G12718   4.625   2.571   8.098  1.1397  0.1897  2.7606
  120OSM   C16F12719   4.600   2.699   8.270  0.4041  0.8014 -0.6733
  120OSM   H16F12720   4.507   2.656   8.314  1.3259  1.0971  1.6490
  120OSM   H16G12721   4.575   2.806   8.284 -0.8012  0.4866 -0.2322
  120OSM   C17F12722   4.736   2.657   8.332  0.2743  0.1830 -0.2934
  120OSM   H17F12723   4.732   2.679   8.441 -3.7641  0.5120 -0.3805
  120OSM   H17G12724   4.811   2.729   8.293 -1.9941  1.7990 -1.9292
  120OSM   C18F12725   4.771   2.509   8.313 -0.4267  0.3588 -0.1415
  120OSM   H18F12726   4.689   2.446   8.356  0.1726 -0.9704 -0.8741
  120OSM   H18G12727   4.869   2.485   8.360 -0.5342 -0.7014 -0.4222
  120OSM   H18H12728   4.795   2.483   8.208  0.8510 -0.3309  0.2897
  121OSM      N12729   1.771   6.558   6.149  0.2061 -0.1481  0.1232
  121OSM    C1512730   1.879   6.481   6.224 -0.1013  0.0563  0.2358
  121OSM   H15A12731   1.924   6.418   6.149 -0.2944  1.3473 -1.0132
  121OSM   H15B12732   1.842   6.405   6.291  1.4054 -2.2538 -1.3920
  121OSM   H15C12733   1.955   6.543   6.269  0.9999  0.1347 -1.6055
  121OSM    C1412734   1.841   6.673   6.079 -0.0092  0.4740  0.4475
  121OSM   H14A12735   1.770   6.738   6.032  0.6121  1.6001  1.0234
  121OSM   H14B12736   1.913   6.624   6.015 -2.4881 -2.3265 -0.4350
  121OSM   H14C12737   1.890   6.734   6.154  0.2266  1.7498 -0.7044
  121OSM    C1312738   1.709   6.461   6.058 -0.5201 -0.3520  0.4521
  121OSM   H13A12739   1.775   6.429   5.978 -1.0961  0.3878 -0.3321
  121OSM   H13B12740   1.621   6.495   6.006  0.7004  1.4756 -0.5309
  121OSM   H13C12741   1.678   6.371   6.109  1.6283 -0.4307  1.7332
  121OSM    C1212742   1.669   6.623   6.239  0.8913 -0.3063 -0.3850
  121OSM   H12A12743   1.714   6.677   6.321 -1.5665  0.8235  0.3017
  121OSM   H12B12744   1.616   6.545   6.292  0.2722  0.5863  0.3429
  121OSM    C1112745   1.556   6.713   6.179  0.3197 -0.3680 -0.0701
  121OSM   H11A12746   1.601   6.804   6.134 -0.9296 -0.1617 -0.9530
  121OSM   H11B12747   1.498   6.759   6.263  0.2073 -1.7958  0.6556
  121OSM      P12748   1.361   6.545   6.115 -0.3099 -0.4978  0.0186
  121OSM    O1312749   1.231   6.614   6.099 -0.0133  0.2608 -0.6015
  121OSM    O1412750   1.376   6.427   6.024  0.5053 -0.1948 -0.1356
  121OSM    O1112751   1.386   6.504   6.259 -0.6080 -0.2095 -0.2493
  121OSM    O1212752   1.470   6.655   6.082  0.3775 -0.4946 -0.0762
  121OSM    C1S12753   1.304   6.530   6.374  0.0079  0.5545 -1.2114
  121OSM    H1S12754   1.206   6.575   6.346 -0.8625 -0.7921 -0.4729
  121OSM    H1T12755   1.361   6.597   6.442  0.4972 -0.4872 -0.5675
  121OSM     NF12756   1.160   6.397   6.527  0.3416  0.2448 -0.2644
  121OSM    HNF12757   1.169   6.420   6.624 -0.6967 -0.1518 -0.0694
  121OSM    C2S12758   1.279   6.388   6.441 -0.0335 -0.1654 -0.1433
  121OSM    H2S12759   1.258   6.318   6.357 -0.2226 -1.5767  1.0449
  121OSM    C3S12760   1.399   6.343   6.520 -0.6860 -0.1151  0.3095
  121OSM    H3S12761   1.432   6.415   6.597  0.8974 -0.1287 -0.2974
  121OSM     O312762   1.521   6.343   6.445  0.0573 -0.2693  0.4688
  121OSM    HO312763   1.498   6.372   6.356 -0.0818  0.6668  0.7974
  121OSM    C4S12764   1.381   6.195   6.572  0.3017  0.1992  0.5627
  121OSM    H4S12765   1.357   6.125   6.490 -1.7253  1.1026  0.3435
  121OSM    C5S12766   1.398   6.154   6.699 -0.5063  0.1208  0.4663
  121OSM    H5S12767   1.449   6.218   6.773  0.3418  0.3132 -0.2713
  121OSM    C6S12768   1.401   6.011   6.750 -0.0065  0.0681 -0.4239
  121OSM    H6S12769   1.505   5.973   6.741 -0.7135 -2.2787  0.5716
  121OSM    H6T12770   1.334   5.946   6.689  0.7558 -0.0211 -1.1913
  121OSM    C7S12771   1.373   5.992   6.896  0.2030  0.5148 -0.4200
  121OSM    H7S12772   1.455   6.031   6.959 -2.9425  0.7900  3.9112
  121OSM    H7T12773   1.379   5.883   6.920  0.7341  0.3665 -1.1686
  121OSM    C8S12774   1.235   6.053   6.936 -0.1581  0.4306 -0.0889
  121OSM    H8S12775   1.163   6.037   6.853 -0.6693 -1.1851  0.6315
  121OSM    H8T12776   1.251   6.163   6.937  0.6479  0.3241 -0.6560
  121OSM    C9S12777   1.176   6.004   7.075 -0.5714 -0.0321  0.3741
  121OSM    H9S12778   1.262   5.979   7.140  1.3016 -0.0525 -1.9657
  121OSM    H9T12779   1.122   5.910   7.052 -0.0905 -0.1634 -0.2376
  121OSM   C10S12780   1.081   6.102   7.136  0.2544 -0.0693  0.0604
  121OSM   H10S12781   1.017   6.137   7.052 -0.2248  1.1070  0.8971
  121OSM   H10T12782   1.135   6.193   7.170 -0.0829 -0.0336  0.5022
  121OSM   C11S12783   1.002   6.035   7.249 -0.2319  0.4256 -0.3361
  121OSM   H11S12784   0.982   5.931   7.216 -0.1374  0.0406  0.7583
  121OSM   H11T12785   0.904   6.087   7.253 -1.1359 -1.0677 -1.8374
  121OSM   C12S12786   1.072   6.052   7.385  0.0372 -0.4598 -1.1575
  121OSM   H12S12787   1.088   6.161   7.391  0.1878 -0.5186 -0.4169
  121OSM   H12T12788   1.172   6.002   7.380 -0.1451 -0.8667 -0.8663
  121OSM   C13S12789   0.996   6.005   7.512 -0.2066  0.1905  0.6491
  121OSM   H13S12790   0.987   5.894   7.509  0.4328  0.1619 -1.1404
  121OSM   H13T12791   0.891   6.042   7.515 -0.9344 -1.5867 -0.8893
  121OSM   C14S12792   1.073   6.044   7.640 -0.2896  0.6169 -0.4938
  121OSM   H14S12793   1.078   6.155   7.647  1.4758  0.5053  1.0831
  121OSM   H14T12794   1.182   6.019   7.638 -0.0782  1.3172  0.8988
  121OSM   C15S12795   1.015   5.988   7.768  0.4128  0.4911  0.0539
  121OSM   H15S12796   1.023   5.877   7.760  0.7557  0.5381 -0.2766
  121OSM   H15T12797   0.910   6.020   7.783 -0.1094 -1.8941  2.3066
  121OSM   C16S12798   1.103   6.023   7.898  0.2439  0.0865  0.7467
  121OSM   H16S12799   1.092   6.129   7.928  1.6350 -0.4901  3.5900
  121OSM   H16T12800   1.205   5.997   7.865  0.2663 -0.1700  1.0124
  121OSM   C17S12801   1.050   5.937   8.022 -0.3253  0.5084 -0.1744
  121OSM   H17S12802   1.044   5.831   7.989 -0.1859  0.4020  0.1425
  121OSM   H17T12803   0.950   5.982   8.040  1.4012  4.7998  0.0153
  121OSM   C18S12804   1.137   5.943   8.148  0.4288 -0.0070  0.8305
  121OSM   H18S12805   1.119   5.862   8.221 -0.9633 -1.5480 -1.0977
  121OSM   H18T12806   1.115   6.040   8.198 -2.5019 -0.3386  0.3787
  121OSM   H18U12807   1.243   5.955   8.117  0.0484  0.4659 -0.3543
  121OSM    C1F12808   1.039   6.422   6.479 -0.8127  0.9370 -0.8317
  121OSM     OF12809   1.019   6.425   6.357  0.2390 -0.0417  0.1612
  121OSM    C2F12810   0.937   6.459   6.577  0.5799 -0.3207 -0.5362
  121OSM    H2F12811   0.843   6.454   6.519  0.3557 -1.0906 -0.1143
  121OSM    H2G12812   0.952   6.559   6.625 -0.7370  0.7050 -2.1613
  121OSM    C3F12813   0.906   6.357   6.689  0.4723 -0.1281 -0.0462
  121OSM    H3F12814   0.833   6.410   6.753  0.5058  0.0654 -0.1665
  121OSM    H3G12815   0.997   6.339   6.750 -0.2148  1.5093  1.5494
  121OSM    C4F12816   0.849   6.224   6.638 -0.2708 -0.2449 -0.7363
  121OSM    H4F12817   0.933   6.169   6.591  3.0835  1.8214  2.2839
  121OSM    H4G12818   0.753   6.228   6.584 -1.8659  2.0957  1.9790
  121OSM    C5F12819   0.839   6.129   6.755  0.1002  0.4249 -0.0810
  121OSM    H5F12820   0.766   6.164   6.832 -1.1013 -0.4021 -0.8224
  121OSM    H5G12821   0.936   6.100   6.801  0.4447  0.3757 -0.8215
  121OSM    C6F12822   0.774   6.000   6.697 -0.0903  0.5694  0.0458
  121OSM    H6F12823   0.846   5.961   6.622 -1.3782 -1.8522 -0.0289
  121OSM    H6G12824   0.676   6.028   6.654  0.8450  1.9594 -1.2494
  121OSM    C7F12825   0.759   5.897   6.815 -0.3744  0.0352  0.4839
  121OSM    H7F12826   0.858   5.879   6.863  1.5343  1.7855 -2.5101
  121OSM    H7G12827   0.727   5.803   6.767 -0.7331  0.7637 -0.7433
  121OSM    C8F12828   0.658   5.941   6.921  0.5070  0.1129 -0.0717
  121OSM    H8F12829   0.585   6.010   6.875 -1.7715  0.1124  3.2126
  121OSM    H8G12830   0.704   5.995   7.006 -1.7984 -0.4666  1.6425
  121OSM    C9F12831   0.588   5.811   6.978  0.4094 -1.0406  0.0957
  121OSM    H9F12832   0.560   5.735   6.904  0.9419 -1.5663  0.4316
  121OSM   C10F12833   0.558   5.792   7.109  0.8868 -0.3682  0.4330
  121OSM   H10F12834   0.511   5.697   7.138  1.8112 -0.5017  1.5910
  121OSM   C11F12835   0.568   5.882   7.224 -0.1718 -0.4648  0.1570
  121OSM   H11F12836   0.492   5.963   7.233  3.3300  2.9750  0.9594
  121OSM   H11G12837   0.660   5.943   7.223 -2.2486  2.9995  1.4210
  121OSM   C12F12838   0.566   5.805   7.363  0.2444  0.1825 -0.5401
  121OSM   H12F12839   0.641   5.724   7.361 -0.6407 -0.7479  1.4708
  121OSM   H12G12840   0.464   5.763   7.379  0.6978 -0.2167  1.5281
  121OSM   C13F12841   0.590   5.891   7.484  0.1554 -0.1412 -0.0393
  121OSM   H13F12842   0.531   5.986   7.485  1.2996  0.5895  0.8602
  121OSM   H13G12843   0.696   5.923   7.470 -0.0068  0.6100  0.3594
  121OSM   C14F12844   0.568   5.816   7.619 -0.1919 -0.2344 -0.2295
  121OSM   H14F12845   0.623   5.719   7.613 -0.4996 -0.4685  0.6127
  121OSM   H14G12846   0.464   5.780   7.632 -0.3369 -1.1566 -3.1124
  121OSM   C15F12847   0.615   5.902   7.737 -0.0176 -0.1595  0.0471
  121OSM   H15F12848   0.561   5.998   7.747 -0.7216 -0.7564  3.0690
  121OSM   H15G12849   0.725   5.916   7.730  0.2326 -2.4729 -2.3449
  121OSM   C16F12850   0.575   5.834   7.867 -0.3135 -0.5767  0.5954
  121OSM   H16F12851   0.585   5.723   7.868 -0.8528 -0.6568 -0.6887
  121OSM   H16G12852   0.467   5.857   7.882 -0.4425  0.0870 -1.0940
  121OSM   C17F12853   0.660   5.877   7.981  0.7421 -0.0086 -0.1961
  121OSM   H17F12854   0.769   5.852   7.977  1.3934  2.6383 -0.6935
  121OSM   H17G12855   0.623   5.833   8.076 -0.1018 -0.7078 -0.8315
  121OSM   C18F12856   0.648   6.028   8.015  0.3355  0.5162 -0.1211
  121OSM   H18F12857   0.713   6.095   7.954  0.8113 -0.6111 -0.8740
  121OSM   H18G12858   0.673   6.036   8.123 -0.0569 -1.6989  0.1679
  121OSM   H18H12859   0.543   6.063   8.008  0.5262  1.0134 -0.6089
  122OSM      N12860   1.602   5.485   5.816  0.3240 -0.2618  0.0923
  122OSM    C1512861   1.553   5.364   5.740  0.2170  0.5112 -0.0987
  122OSM   H15A12862   1.446   5.363   5.725  0.1679 -1.7741  0.1667
  122OSM   H15B12863   1.576   5.281   5.805 -0.7367  1.2463  1.2343
  122OSM   H15C12864   1.602   5.357   5.644  1.8917  1.0619  0.6704
  122OSM    C1412865   1.568   5.611   5.735 -0.1075  0.3465 -0.2442
  122OSM   H14A12866   1.619   5.601   5.641 -3.2696  0.5353 -2.0871
  122OSM   H14B12867   1.614   5.698   5.780 -0.8856  0.7704 -0.2564
  122OSM   H14C12868   1.462   5.620   5.719  0.2351  2.0154 -1.8904
  122OSM    C1312869   1.528   5.488   5.946 -0.2177  0.1797  0.2361
  122OSM   H13A12870   1.592   5.552   6.005 -1.1578  2.8876 -1.5048
  122OSM   H13B12871   1.526   5.389   5.991 -0.7212  0.1580  0.1660
  122OSM   H13C12872   1.427   5.524   5.941  0.3742  1.7293 -1.3297
  122OSM    C1212873   1.753   5.482   5.831  0.7810 -0.9518 -0.6131
  122OSM   H12A12874   1.796   5.460   5.735  1.2616  1.3361 -0.9867
  122OSM   H12B12875   1.782   5.408   5.905  1.6772  0.2884  0.3249
  122OSM    C1112876   1.831   5.604   5.880  0.7099  1.2474 -0.5933
  122OSM   H11A12877   1.827   5.696   5.817  1.0740 -0.3355 -3.0550
  122OSM   H11B12878   1.934   5.564   5.873  0.6754  1.4028 -2.8465
  122OSM      P12879   1.746   5.778   6.063  0.2269 -0.5032 -0.4220
  122OSM    O1312880   1.845   5.868   6.121  0.3916 -0.0752  0.3436
  122OSM    O1412881   1.668   5.839   5.955 -0.7926  0.6277  0.9668
  122OSM    O1112882   1.644   5.743   6.178  0.2138  0.2524 -0.1670
  122OSM    O1212883   1.813   5.639   6.019 -0.0006 -0.8522  0.3683
  122OSM    C1S12884   1.678   5.639   6.274 -0.6384  0.3177  0.3720
  122OSM    H1S12885   1.761   5.681   6.334  0.8633 -2.0856  0.0957
  122OSM    H1T12886   1.711   5.543   6.230 -0.6316  1.7398 -3.1409
  122OSM     NF12887   1.622   5.559   6.503 -0.0628 -0.6123 -0.2289
  122OSM    HNF12888   1.604   5.462   6.508 -2.9238 -0.1149  1.3135
  122OSM    C2S12889   1.567   5.612   6.380  0.7679  0.0463 -0.5356
  122OSM    H2S12890   1.524   5.709   6.415 -2.1311 -1.0505 -0.7501
  122OSM    C3S12891   1.453   5.540   6.321  0.1678  0.5747  0.5434
  122OSM    H3S12892   1.485   5.434   6.307 -1.1195  0.3682 -1.1380
  122OSM     O312893   1.416   5.594   6.197  0.1709 -0.0704  0.2756
  122OSM    HO312894   1.477   5.668   6.195  2.2513 -1.6902  0.2333
  122OSM    C4S12895   1.342   5.525   6.418  0.4159  0.3714  0.3243
  122OSM    H4S12896   1.353   5.432   6.477  1.2703  0.2835  0.0474
  122OSM    C5S12897   1.245   5.612   6.439  0.6971  0.0220  0.3352
  122OSM    H5S12898   1.225   5.692   6.366  1.2294 -0.6666 -0.5770
  122OSM    C6S12899   1.134   5.588   6.542  0.1183  0.0331 -0.2830
  122OSM    H6S12900   1.145   5.488   6.588 -0.5253  0.3957  0.7041
  122OSM    H6T12901   1.033   5.589   6.496 -1.5299  3.3220  2.8715
  122OSM    C7S12902   1.135   5.694   6.653 -0.5377 -0.1604  0.3335
  122OSM    H7S12903   1.128   5.799   6.616  0.2639 -0.5673 -1.0551
  122OSM    H7T12904   1.237   5.685   6.696  0.0801  1.1519 -0.7767
  122OSM    C8S12905   1.043   5.665   6.771  0.1074  0.7075  0.1561
  122OSM    H8S12906   0.938   5.667   6.734  0.6196  1.1411 -1.3292
  122OSM    H8T12907   1.054   5.744   6.848  2.3322 -1.2452  2.0034
  122OSM    C9S12908   1.067   5.535   6.844  0.4860  0.1678  0.0610
  122OSM    H9S12909   1.167   5.537   6.892 -0.4785  1.3121  2.2059
  122OSM    H9T12910   1.064   5.449   6.774 -1.8911  0.9168 -0.8550
  122OSM   C10S12911   0.971   5.519   6.958 -0.0087 -0.3541  0.2459
  122OSM   H10S12912   0.952   5.410   6.965 -0.1736 -0.3249  0.2476
  122OSM   H10T12913   0.871   5.560   6.933 -1.0107 -2.6572  0.2598
  122OSM   C11S12914   1.013   5.587   7.092 -0.7550 -0.0553  0.2496
  122OSM   H11S12915   1.033   5.693   7.067 -2.0610  0.6203  1.8837
  122OSM   H11T12916   1.108   5.546   7.134 -1.1136  1.1468  2.3946
  122OSM   C12S12917   0.921   5.578   7.209  0.5902 -0.3040  0.5611
  122OSM   H12S12918   0.893   5.472   7.224  0.7806 -0.1183  2.4313
  122OSM   H12T12919   0.819   5.618   7.195  1.0708  0.6636 -0.3551
  122OSM   C13S12920   0.988   5.614   7.346  0.5909 -0.4672  0.0394
  122OSM   H13S12921   0.978   5.724   7.350  1.4949 -0.4091  0.9096
  122OSM   H13T12922   1.089   5.570   7.361  1.5662  1.2383 -1.2495
  122OSM   C14S12923   0.904   5.557   7.465 -0.0538 -0.9011  0.6352
  122OSM   H14S12924   0.879   5.450   7.447 -0.8421 -0.3955 -1.6938
  122OSM   H14T12925   0.815   5.623   7.466  0.9589  0.7402 -2.8497
  122OSM   C15S12926   0.966   5.581   7.599 -0.3365 -0.3198 -0.1121
  122OSM   H15S12927   0.953   5.691   7.609 -0.5991 -0.0612 -2.6967
  122OSM   H15T12928   1.071   5.545   7.605  0.3420  1.6122  0.5195
  122OSM   C16S12929   0.873   5.536   7.713  0.0393  0.1627 -0.4140
  122OSM   H16S12930   0.865   5.425   7.714 -0.4470  0.2004  0.0634
  122OSM   H16T12931   0.772   5.576   7.688  0.2551  0.9214 -0.0842
  122OSM   C17S12932   0.919   5.572   7.854  0.8325  0.4857 -0.0409
  122OSM   H17S12933   0.906   5.682   7.867 -0.0328  0.5576 -1.2917
  122OSM   H17T12934   1.024   5.541   7.873  1.4548  2.8752  0.7393
  122OSM   C18S12935   0.837   5.491   7.961  1.0648  0.1960 -0.4885
  122OSM   H18S12936   0.734   5.477   7.921  0.9264  1.6022 -0.6581
  122OSM   H18T12937   0.833   5.550   8.055  2.8118  1.6549 -1.2712
  122OSM   H18U12938   0.882   5.390   7.971  1.3388  0.2032 -1.5648
  122OSM    C1F12939   1.704   5.624   6.589 -0.7903  0.1224 -0.2266
  122OSM     OF12940   1.752   5.737   6.568 -0.3659  0.1069  0.2057
  122OSM    C2F12941   1.734   5.547   6.718 -0.2238 -0.6150  0.3804
  122OSM    H2F12942   1.803   5.612   6.775  0.5160 -0.7041 -0.3995
  122OSM    H2G12943   1.801   5.465   6.685  2.3728  1.1514  0.9569
  122OSM    C3F12944   1.610   5.506   6.802  0.1601  0.1874 -0.5009
  122OSM    H3F12945   1.651   5.445   6.885  0.5932  1.5083  0.2803
  122OSM    H3G12946   1.540   5.441   6.745  0.9569 -2.2008  1.1019
  122OSM    C4F12947   1.523   5.619   6.855 -0.1103 -0.2540 -0.1409
  122OSM    H4F12948   1.468   5.671   6.774  0.4528  0.3622 -0.1398
  122OSM    H4G12949   1.587   5.695   6.905 -0.3214 -0.5187  0.5361
  122OSM    C5F12950   1.414   5.576   6.958 -0.0664  0.1673 -0.0357
  122OSM    H5F12951   1.352   5.498   6.909  0.2219 -0.3880  0.4612
  122OSM    H5G12952   1.346   5.662   6.973 -0.2792 -0.4202  3.0618
  122OSM    C6F12953   1.468   5.531   7.097 -0.2120 -0.0094  0.0970
  122OSM    H6F12954   1.529   5.439   7.092  1.6314  1.0892  1.3842
  122OSM    H6G12955   1.381   5.495   7.155 -0.2796  0.5594  0.3506
  122OSM    C7F12956   1.550   5.634   7.175 -0.3998  0.2524 -0.1783
  122OSM    H7F12957   1.638   5.653   7.110 -1.1807  1.5273 -0.9033
  122OSM    H7G12958   1.590   5.611   7.276 -0.6254 -0.5629 -0.2687
  122OSM    C8F12959   1.479   5.770   7.196  0.1992  0.1650 -1.2641
  122OSM    H8F12960   1.470   5.834   7.105  2.1144  1.1145 -0.8305
  122OSM    H8G12961   1.543   5.833   7.261 -0.7808  0.5073 -0.5975
  122OSM    C9F12962   1.339   5.762   7.274 -1.0138 -0.2989 -0.6119
  122OSM    H9F12963   1.261   5.720   7.208  0.5613  0.4049 -3.0541
  122OSM   C10F12964   1.315   5.790   7.402 -0.1555 -0.3103 -0.1192
  122OSM   H10F12965   1.212   5.772   7.436 -0.9772  4.2808  0.4201
  122OSM   C11F12966   1.399   5.836   7.513 -0.1112  0.2157 -1.6975
  122OSM   H11F12967   1.381   5.942   7.539  0.1574 -0.1578  0.1668
  122OSM   H11G12968   1.503   5.815   7.479  0.5316 -0.1209  0.3510
  122OSM   C12F12969   1.375   5.747   7.646 -0.5555  0.2914 -0.0378
  122OSM   H12F12970   1.270   5.750   7.681  0.2177 -0.4011  2.5698
  122OSM   H12G12971   1.431   5.804   7.722  0.7038 -1.5414  0.4790
  122OSM   C13F12972   1.433   5.610   7.631 -0.0040  0.2748  0.6549
  122OSM   H13F12973   1.543   5.612   7.616 -0.2591  1.0556 -1.5861
  122OSM   H13G12974   1.386   5.566   7.540 -2.4965  4.1682 -0.1646
  122OSM   C14F12975   1.410   5.521   7.756 -0.1066  0.1232 -0.5218
  122OSM   H14F12976   1.434   5.415   7.734  1.2024  0.1301  0.7754
  122OSM   H14G12977   1.301   5.517   7.774  0.1087 -0.1950  0.8417
  122OSM   C15F12978   1.493   5.562   7.877  0.0153  0.0738  0.0807
  122OSM   H15F12979   1.498   5.672   7.886 -1.3928  0.0020  2.2989
  122OSM   H15G12980   1.599   5.534   7.859 -0.1463  0.1911 -1.1857
  122OSM   C16F12981   1.459   5.517   8.022 -0.2588 -0.2761 -0.3238
  122OSM   H16F12982   1.537   5.563   8.085 -0.4102 -1.9643  1.1998
  122OSM   H16G12983   1.455   5.407   8.037 -1.9101  0.0327  2.1444
  122OSM   C17F12984   1.322   5.565   8.076 -0.1412 -0.3132  1.0820
  122OSM   H17F12985   1.253   5.523   8.000  1.2204 -1.7390  0.5839
  122OSM   H17G12986   1.303   5.675   8.069  1.1866  0.0009  1.9874
  122OSM   C18F12987   1.293   5.522   8.214  0.1557  0.1713 -0.0948
  122OSM   H18F12988   1.204   5.577   8.252  1.6578  1.1434  2.1857
  122OSM   H18G12989   1.372   5.545   8.289  1.2858  2.0886 -1.7676
  122OSM   H18H12990   1.283   5.411   8.210  2.4481 -0.0503 -0.9598
  123OSM      N12991   5.109   2.169   6.400 -0.0505  0.1587 -0.2549
  123OSM    C1512992   5.195   2.065   6.336 -0.2792  0.5169 -0.1692
  123OSM   H15A12993   5.296   2.084   6.368 -0.3943  0.2905  0.3264
  123OSM   H15B12994   5.190   2.077   6.228 -0.8188  1.3214 -0.0569
  123OSM   H15C12995   5.174   1.962   6.362  0.4552  0.2604 -0.5383
  123OSM    C1412996   5.153   2.308   6.356 -0.4781  0.7441  0.4425
  123OSM   H14A12997   5.077   2.380   6.382 -0.8731  0.1196  1.0461
  123OSM   H14B12998   5.176   2.314   6.250  0.3986  1.8003  0.6749
  123OSM   H14C12999   5.240   2.342   6.410 -0.5290 -1.4450  2.0273
  123OSM    C1313000   4.965   2.159   6.358 -0.0392  0.4350 -0.1373
  123OSM   H13A13001   4.929   2.082   6.426  0.8311 -0.8420 -1.0767
  123OSM   H13B13002   4.951   2.144   6.252 -1.0390 -0.1003  0.0556
  123OSM   H13C13003   4.900   2.241   6.384 -0.8438 -0.3716  0.4907
  123OSM    C1213004   5.112   2.166   6.551 -0.7504  0.1864  0.2335
  123OSM   H12A13005   5.062   2.074   6.577 -2.2000  0.6703 -0.7259
  123OSM   H12B13006   5.054   2.243   6.598 -1.2394 -0.6877  1.0983
  123OSM    C1113007   5.253   2.151   6.620  0.3865 -0.1152  0.0919
  123OSM   H11A13008   5.236   2.155   6.730  2.7455 -1.6948  0.5894
  123OSM   H11B13009   5.321   2.238   6.603  1.2120 -0.0645  3.0190
  123OSM      P13010   5.271   1.892   6.635  0.1795 -0.1036 -0.0194
  123OSM    O1313011   5.131   1.904   6.691 -0.6179 -0.2102  0.6453
  123OSM    O1413012   5.290   1.794   6.523  0.1557 -0.7596 -0.0222
  123OSM    O1113013   5.376   1.857   6.744  0.1148 -0.2102 -0.3604
  123OSM    O1213014   5.328   2.029   6.591  0.3436 -0.4952  0.6605
  123OSM    C1S13015   5.406   1.952   6.852  0.1877  0.5638 -0.4024
  123OSM    H1S13016   5.324   1.951   6.927  0.7957 -1.1787  0.2891
  123OSM    H1T13017   5.427   2.057   6.822  3.2293  0.0673 -0.4097
  123OSM     NF13018   5.555   1.953   7.052 -0.2430 -0.7732  0.2598
  123OSM    HNF13019   5.620   2.028   7.044 -0.0447 -0.9688  0.0059
  123OSM    C2S13020   5.528   1.886   6.929  0.4372  0.3508 -0.0150
  123OSM    H2S13021   5.499   1.782   6.955  1.2841  0.9326  3.9183
  123OSM    C3S13022   5.652   1.864   6.836 -0.0487 -1.0841 -0.1904
  123OSM    H3S13023   5.683   1.960   6.789  2.0783  0.0332  3.1576
  123OSM     O313024   5.638   1.782   6.725  0.2065  0.6319 -0.1805
  123OSM    HO313025   5.542   1.781   6.722  0.1379 -2.0206  0.4826
  123OSM    C4S13026   5.766   1.809   6.909  0.2849  0.2698 -1.0779
  123OSM    H4S13027   5.854   1.875   6.918 -0.0629  0.7373 -1.1137
  123OSM    C5S13028   5.775   1.682   6.954 -0.3957  0.2425 -0.2982
  123OSM    H5S13029   5.691   1.612   6.940  0.3520 -0.8134  0.4824
  123OSM    C6S13030   5.883   1.610   7.029 -0.2915 -0.1697  0.2295
  123OSM    H6S13031   5.945   1.536   6.974  0.6895  0.0952  0.9482
  123OSM    H6T13032   5.824   1.555   7.106 -1.8891  0.5145 -0.4859
  123OSM    C7S13033   5.969   1.708   7.104  0.0516  0.2195  0.4178
  123OSM    H7S13034   5.923   1.765   7.187 -0.1071 -1.5875  1.6180
  123OSM    H7T13035   6.024   1.776   7.035 -1.0135  0.6849 -0.0043
  123OSM    C8S13036   6.079   1.630   7.190 -0.1148  0.6505 -0.1565
  123OSM    H8S13037   6.146   1.590   7.112  0.4966  1.8288 -0.2606
  123OSM    H8T13038   6.038   1.538   7.237  2.7021  0.4974  2.2799
  123OSM    C9S13039   6.160   1.712   7.291  0.4023  0.7854  0.3992
  123OSM    H9S13040   6.102   1.744   7.380  2.1651  2.4950  0.9993
  123OSM    H9T13041   6.182   1.805   7.235  0.4405 -0.2647 -1.4386
  123OSM   C10S13042   6.285   1.642   7.332 -0.4051  0.2673 -0.5950
  123OSM   H10S13043   6.338   1.596   7.246 -0.0305  1.2553 -0.9133
  123OSM   H10T13044   6.252   1.557   7.395  2.5606  0.6554  1.7124
  123OSM   C11S13045   6.381   1.744   7.398 -0.4900 -0.1129 -0.1514
  123OSM   H11S13046   6.418   1.812   7.318 -0.5761 -0.5225 -0.5474
  123OSM   H11T13047   6.469   1.696   7.446 -0.7848  0.2572  0.7849
  123OSM   C12S13048   6.337   1.842   7.516  0.4781 -0.2681  0.0121
  123OSM   H12S13049   6.251   1.899   7.474 -0.9963 -1.0230  1.8555
  123OSM   H12T13050   6.423   1.906   7.546 -0.3094  0.2048  1.3396
  123OSM   C13S13051   6.303   1.765   7.639 -0.0173  0.3027 -0.4652
  123OSM   H13S13052   6.390   1.714   7.685  0.7616  1.2962 -0.7963
  123OSM   H13T13053   6.219   1.695   7.619  0.5631 -0.7182  0.5444
  123OSM   C14S13054   6.229   1.855   7.746 -0.1411 -0.6510 -0.3619
  123OSM   H14S13055   6.157   1.925   7.699 -1.7543 -0.1946  2.5640
  123OSM   H14T13056   6.307   1.923   7.786 -0.1612 -0.6390 -0.3438
  123OSM   C15S13057   6.171   1.786   7.867 -0.0627 -0.1695 -0.0947
  123OSM   H15S13058   6.246   1.710   7.899  0.2489  0.0795 -0.2210
  123OSM   H15T13059   6.072   1.741   7.845 -0.2955 -0.9490  2.2455
  123OSM   C16S13060   6.141   1.892   7.980  0.5889  0.3490  0.6977
  123OSM   H16S13061   6.073   1.967   7.933 -0.4743 -0.0830  1.5083
  123OSM   H16T13062   6.238   1.940   8.003  0.0023  1.3773  1.0813
  123OSM   C17S13063   6.090   1.832   8.106 -0.1722 -0.7628 -0.0466
  123OSM   H17S13064   6.136   1.732   8.123  1.6039 -0.4174 -2.3321
  123OSM   H17T13065   5.986   1.802   8.081 -0.2010 -3.1824  2.4417
  123OSM   C18S13066   6.080   1.925   8.227 -0.7128 -0.9512  0.0536
  123OSM   H18S13067   6.046   1.869   8.317  0.7147 -0.4913  0.9249
  123OSM   H18T13068   6.021   2.018   8.214  2.3201  1.2168  0.6584
  123OSM   H18U13069   6.185   1.957   8.245 -1.3832  2.4392 -1.3882
  123OSM    C1F13070   5.471   1.933   7.159 -0.5459  0.2174 -0.1078
  123OSM     OF13071   5.377   1.858   7.147  0.4040  0.6426  0.1090
  123OSM    C2F13072   5.506   2.008   7.287  0.1668 -0.0599 -0.3391
  123OSM    H2F13073   5.476   2.114   7.268 -2.4235 -0.3808  1.4597
  123OSM    H2G13074   5.613   1.992   7.311 -0.5395 -0.1879  3.4967
  123OSM    C3F13075   5.419   1.944   7.401 -0.6579 -0.5364 -0.7981
  123OSM    H3F13076   5.431   1.834   7.391 -0.8640 -0.5603 -0.7911
  123OSM    H3G13077   5.311   1.969   7.399 -0.5910 -0.2447 -0.7479
  123OSM    C4F13078   5.460   1.976   7.544  0.1428 -0.1181  0.3856
  123OSM    H4F13079   5.448   2.086   7.557  0.4357 -0.0887  0.4044
  123OSM    H4G13080   5.564   1.945   7.569 -0.1087 -0.5512  0.9096
  123OSM    C5F13081   5.366   1.915   7.657 -0.4893  0.2176  0.3316
  123OSM    H5F13082   5.343   1.809   7.631  0.3238  0.6816 -2.7541
  123OSM    H5G13083   5.269   1.969   7.658  0.0150  1.4950 -3.3164
  123OSM    C6F13084   5.441   1.915   7.793  0.3869 -0.7918 -1.0150
  123OSM    H6F13085   5.469   2.017   7.825 -0.7934 -1.0083  0.8531
  123OSM    H6G13086   5.540   1.865   7.787  1.0986  0.2022  1.3313
  123OSM    C7F13087   5.347   1.854   7.903 -0.2311 -0.3014  0.2397
  123OSM    H7F13088   5.343   1.746   7.879 -0.3542 -0.3377  0.4201
  123OSM    H7G13089   5.251   1.909   7.889  0.2199  0.3717 -0.2649
  123OSM    C8F13090   5.387   1.896   8.045 -0.1517 -0.4561 -0.1513
  123OSM    H8F13091   5.295   1.881   8.106  0.2800 -0.6080  0.4786
  123OSM    H8G13092   5.404   2.005   8.059 -0.7414 -0.5350  1.4725
  123OSM    C9F13093   5.512   1.819   8.091 -0.3605 -0.1533 -0.1683
  123OSM    H9F13094   5.580   1.792   8.010 -0.5934 -1.0889 -0.0642
  123OSM   C10F13095   5.548   1.790   8.220 -0.2116 -0.9363 -0.0151
  123OSM   H10F13096   5.639   1.731   8.242  0.7438  0.7199  0.7229
  123OSM   C11F13097   5.470   1.827   8.343 -0.4732  0.1579  0.0494
  123OSM   H11F13098   5.430   1.929   8.326  0.0948  0.1387 -1.5833
  123OSM   H11G13099   5.539   1.819   8.430  0.7995 -2.3777 -1.0868
  123OSM   C12F13100   5.345   1.732   8.355  0.9662 -0.2199 -0.5291
  123OSM   H12F13101   5.297   1.702   8.259  0.4315  0.4529 -0.4749
  123OSM   H12G13102   5.267   1.781   8.416  1.4035  0.6090 -0.6244
  123OSM   C13F13103   5.383   1.596   8.428  0.1665  0.0440  0.5005
  123OSM   H13F13104   5.431   1.621   8.524  0.0935  2.8600 -0.1153
  123OSM   H13G13105   5.460   1.547   8.365  0.9095 -0.4864  1.7815
  123OSM   C14F13106   5.268   1.509   8.456 -0.5702 -0.2367  0.2319
  123OSM   H14F13107   5.241   1.460   8.359 -0.4585  2.4119 -1.2393
  123OSM   H14G13108   5.177   1.564   8.488 -0.0566  0.0200  1.2643
  123OSM   C15F13109   5.301   1.404   8.559  0.4980 -0.3634 -0.2124
  123OSM   H15F13110   5.405   1.366   8.553  1.0604  0.8707  0.8598
  123OSM   H15G13111   5.232   1.319   8.545  0.9152 -0.8000  0.3486
  123OSM   C16F13112   5.306   1.469   8.698 -0.0856 -0.2780 -0.2122
  123OSM   H16F13113   5.204   1.504   8.724 -0.2263  3.4397 -4.5273
  123OSM   H16G13114   5.375   1.556   8.706  1.0072 -1.0589 -0.9449
  123OSM   C17F13115   5.349   1.364   8.803 -0.3562 -0.1334 -0.2986
  123OSM   H17F13116   5.451   1.324   8.789 -1.1138 -2.0531 -0.6454
  123OSM   H17G13117   5.280   1.277   8.797 -0.9965  0.4141 -1.3271
  123OSM   C18F13118   5.340   1.424   8.942  0.4060  0.3090 -0.7677
  123OSM   H18F13119   5.232   1.438   8.963  0.7908  2.0017  0.3004
  123OSM   H18G13120   5.392   1.521   8.958  2.0293 -0.4425 -1.2798
  123OSM   H18H13121   5.371   1.343   9.012  0.3939  0.4552 -0.5904
  124OSM      N13122   4.266   4.808   5.942 -0.8090 -0.1646  0.4563
  124OSM    C1513123   4.132   4.866   5.962 -0.2464 -0.1102  0.1758
  124OSM   H15A13124   4.093   4.879   5.862  0.0224 -4.2527 -0.6373
  124OSM   H15B13125   4.132   4.953   6.025 -1.6960 -1.6674  2.4976
  124OSM   H15C13126   4.059   4.799   6.005  1.5419 -1.7623  0.7660
  124OSM    C1413127   4.255   4.689   5.850 -0.3353  1.0498 -0.3874
  124OSM   H14A13128   4.202   4.716   5.760  0.1073  0.4482 -0.8388
  124OSM   H14B13129   4.222   4.594   5.891  1.5022 -0.2745 -1.8002
  124OSM   H14C13130   4.359   4.670   5.828 -0.3124  0.2730  0.3233
  124OSM    C1313131   4.352   4.915   5.887 -0.0470  0.5882 -0.3632
  124OSM   H13A13132   4.337   5.002   5.948 -0.8374 -0.0960  0.4427
  124OSM   H13B13133   4.341   4.931   5.781 -2.7149 -0.6313 -0.3430
  124OSM   H13C13134   4.453   4.887   5.913 -0.1350  0.5818 -0.0295
  124OSM    C1213135   4.321   4.755   6.073  1.2514 -0.0763  0.1671
  124OSM   H12A13136   4.408   4.692   6.058  1.3329 -0.7251  2.8515
  124OSM   H12B13137   4.254   4.691   6.129 -0.1186  1.2930  0.1319
  124OSM    C1113138   4.376   4.864   6.170 -0.2217  0.3784 -0.0335
  124OSM   H11A13139   4.376   4.826   6.275  1.4494 -0.5605 -0.3366
  124OSM   H11B13140   4.291   4.936   6.175  0.4220  1.1202  0.6049
  124OSM      P13141   4.511   5.085   6.188 -0.2718  0.1490  0.1079
  124OSM    O1313142   4.639   5.130   6.134 -0.3668 -0.4367  0.4256
  124OSM    O1413143   4.390   5.167   6.159  0.0338 -0.1829  0.2889
  124OSM    O1113144   4.525   5.059   6.347 -0.4690 -0.2817 -0.5821
  124OSM    O1213145   4.491   4.937   6.133  0.0874  0.2074 -0.5505
  124OSM    C1S13146   4.600   4.949   6.400 -0.0044 -0.1253  0.2744
  124OSM    H1S13147   4.698   4.949   6.348  0.6777 -0.4164  1.5181
  124OSM    H1T13148   4.561   4.848   6.376 -0.3154  0.1730 -0.5308
  124OSM     NF13149   4.698   4.856   6.606 -0.1144  0.2138 -0.5078
  124OSM    HNF13150   4.655   4.792   6.669  1.2393 -0.2623 -0.0303
  124OSM    C2S13151   4.620   4.966   6.558  0.7164 -0.0735  0.8611
  124OSM    H2S13152   4.675   5.062   6.572 -1.5371  1.5139 -0.4940
  124OSM    C3S13153   4.485   4.985   6.626 -0.5767  0.9557  0.5279
  124OSM    H3S13154   4.433   4.887   6.635 -1.0296  1.0827 -0.5937
  124OSM     O313155   4.391   5.071   6.560  0.1398  0.3478 -0.2359
  124OSM    HO313156   4.405   5.067   6.465 -1.2614  2.4291 -0.6024
  124OSM    C4S13157   4.502   5.037   6.764 -0.2602  0.2721  0.5234
  124OSM    H4S13158   4.503   5.147   6.764  1.7672  0.2903  0.0709
  124OSM    C5S13159   4.514   4.969   6.876 -0.0325  0.1041  0.2174
  124OSM    H5S13160   4.519   4.859   6.866  2.0192  0.2833 -1.2833
  124OSM    C6S13161   4.532   5.022   7.015  0.9234  0.1622  0.1656
  124OSM    H6S13162   4.445   4.969   7.059  0.0117  0.7028 -0.9392
  124OSM    H6T13163   4.509   5.129   7.029  0.2373 -0.0274  0.5367
  124OSM    C7S13164   4.663   4.963   7.076  0.0368  0.5057  0.6914
  124OSM    H7S13165   4.748   5.013   7.024 -0.8056  0.9514 -0.3113
  124OSM    H7T13166   4.672   4.852   7.065 -0.5779  0.5523 -0.5064
  124OSM    C8S13167   4.683   5.004   7.219 -0.2777  0.1238 -0.4461
  124OSM    H8S13168   4.583   5.006   7.267 -1.3265 -1.9512 -2.3831
  124OSM    H8T13169   4.715   5.111   7.218  1.1265 -0.2683 -0.3306
  124OSM    C9S13170   4.782   4.924   7.299 -0.1099 -0.4052 -0.8490
  124OSM    H9S13171   4.882   4.945   7.254  1.3936  0.2665  2.5118
  124OSM    H9T13172   4.764   4.814   7.305 -0.3676 -0.2943  1.0106
  124OSM   C10S13173   4.784   4.971   7.452 -0.6299  0.2804  0.0629
  124OSM   H10S13174   4.702   4.918   7.503 -0.4542 -0.3657 -0.3256
  124OSM   H10T13175   4.799   5.080   7.470  1.9666  0.6977 -3.4033
  124OSM   C11S13176   4.912   4.916   7.524  0.3546 -0.4844 -0.1838
  124OSM   H11S13177   4.999   4.968   7.480 -0.6564  0.3361 -1.2915
  124OSM   H11T13178   4.905   4.806   7.509 -1.1204 -0.4450  0.0981
  124OSM   C12S13179   4.912   4.950   7.670 -0.1174 -0.2583 -0.4086
  124OSM   H12S13180   4.821   4.899   7.708 -0.6146  0.7624 -0.1910
  124OSM   H12T13181   4.913   5.059   7.690  0.8521  0.2851 -3.0806
  124OSM   C13S13182   5.034   4.905   7.753  0.2818 -0.8821  0.2850
  124OSM   H13S13183   5.124   4.951   7.707  0.0311 -0.0661  0.6014
  124OSM   H13T13184   5.042   4.794   7.753 -1.1601 -1.0074  1.0614
  124OSM   C14S13185   5.014   4.956   7.894 -0.4550  0.1468  0.2541
  124OSM   H14S13186   4.918   4.921   7.937 -0.0682 -1.0628  0.1802
  124OSM   H14T13187   5.004   5.067   7.892 -0.9615  0.1117  0.6889
  124OSM   C15S13188   5.135   4.939   7.989 -0.2367  0.2206  0.3702
  124OSM   H15S13189   5.209   5.020   7.973 -1.3011  0.9009 -1.4783
  124OSM   H15T13190   5.188   4.845   7.960 -1.3007 -0.7243  1.3557
  124OSM   C16S13191   5.082   4.921   8.129 -1.3780  0.2905 -0.1831
  124OSM   H16S13192   5.021   5.010   8.155 -2.9489 -0.3646 -1.4414
  124OSM   H16T13193   5.172   4.928   8.194 -0.9853  0.0174 -0.6897
  124OSM   C17S13194   5.019   4.784   8.145 -0.3144  0.6710 -0.3754
  124OSM   H17S13195   4.916   4.778   8.104  0.2037  0.2757 -1.6631
  124OSM   H17T13196   5.002   4.770   8.254  0.9600  1.4250 -0.0487
  124OSM   C18S13197   5.091   4.659   8.095 -0.3540 -0.2139  0.4820
  124OSM   H18S13198   5.196   4.663   8.131  0.2061  1.1752 -1.2041
  124OSM   H18T13199   5.088   4.665   7.985 -2.7600  1.4810  0.5742
  124OSM   H18U13200   5.052   4.561   8.129 -0.5918  0.2072  1.4586
  124OSM    C1F13201   4.825   4.848   6.575 -1.0298  0.6619 -0.4129
  124OSM     OF13202   4.880   4.931   6.506  0.1118 -0.0708  0.1216
  124OSM    C2F13203   4.900   4.728   6.632  0.3511  0.1313  0.2220
  124OSM    H2F13204   4.924   4.653   6.554  2.1523  0.0912  0.7776
  124OSM    H2G13205   4.836   4.682   6.711  0.4099  0.7533  0.6353
  124OSM    C3F13206   5.036   4.765   6.702 -0.4688 -0.0444  0.0887
  124OSM    H3F13207   5.022   4.850   6.771  1.4414  0.6106 -0.2805
  124OSM    H3G13208   5.111   4.800   6.628  0.9047  0.0484  1.4785
  124OSM    C4F13209   5.110   4.659   6.781 -0.3926 -0.5499  0.5059
  124OSM    H4F13210   5.215   4.682   6.807  0.8610 -1.9178 -2.8036
  124OSM    H4G13211   5.117   4.568   6.717  1.6317 -0.6539  0.8133
  124OSM    C5F13212   5.051   4.615   6.919 -0.5669 -0.2708  0.3651
  124OSM    H5F13213   4.957   4.558   6.900 -0.9712  0.2889  0.6479
  124OSM    H5G13214   5.029   4.705   6.980  1.0122 -0.3614  1.1029
  124OSM    C6F13215   5.146   4.521   6.993  0.1289 -0.2028 -0.5683
  124OSM    H6F13216   5.248   4.565   6.985 -1.4940  3.7442 -1.9220
  124OSM    H6G13217   5.148   4.417   6.953  1.7812  0.0875 -1.3281
  124OSM    C7F13218   5.108   4.521   7.143  0.1486  0.3219 -0.2553
  124OSM    H7F13219   5.021   4.456   7.167  0.8777 -0.4984  0.2182
  124OSM    H7G13220   5.084   4.628   7.161 -2.1706  0.2256 -2.2351
  124OSM    C8F13221   5.230   4.482   7.233  0.5579  0.8131 -0.3328
  124OSM    H8F13222   5.202   4.502   7.339  1.8117 -0.9611  0.3774
  124OSM    H8G13223   5.318   4.545   7.209 -0.3083  1.2052 -2.6637
  124OSM    C9F13224   5.257   4.337   7.195 -0.1747 -0.3347  0.4468
  124OSM    H9F13225   5.263   4.326   7.086  0.1109  2.9282  0.0260
  124OSM   C10F13226   5.280   4.233   7.273 -0.2191  0.1765 -0.5719
  124OSM   H10F13227   5.293   4.135   7.224  1.1206  0.3038 -0.5018
  124OSM   C11F13228   5.280   4.225   7.420  0.8392  0.4704 -0.1635
  124OSM   H11F13229   5.263   4.326   7.462  1.6053  1.0110 -1.1339
  124OSM   H11G13230   5.371   4.177   7.462 -0.1172 -0.8149  0.5456
  124OSM   C12F13231   5.154   4.157   7.476 -0.1851  0.4585 -0.2993
  124OSM   H12F13232   5.060   4.205   7.443  0.5848  0.9816 -1.8454
  124OSM   H12G13233   5.173   4.160   7.585 -1.2796 -1.5614 -0.0015
  124OSM   C13F13234   5.144   4.012   7.425 -0.4005  0.2622 -0.6217
  124OSM   H13F13235   5.247   3.972   7.434 -0.8186 -0.6866  0.1510
  124OSM   H13G13236   5.104   4.005   7.321 -2.5823 -0.5062  0.2110
  124OSM   C14F13237   5.050   3.920   7.510 -0.7645  0.0211  0.8024
  124OSM   H14F13238   5.050   3.823   7.456  1.1375 -0.1773  1.0797
  124OSM   H14G13239   4.946   3.956   7.500  0.0741  1.9685 -2.5583
  124OSM   C15F13240   5.087   3.929   7.664 -0.0176 -0.3585  0.0378
  124OSM   H15F13241   5.187   3.976   7.670 -0.2725  0.2799 -0.5046
  124OSM   H15G13242   5.082   3.829   7.712 -3.0534  0.0861  0.8683
  124OSM   C16F13243   4.995   4.019   7.752  0.1792 -0.4011  0.4917
  124OSM   H16F13244   4.905   3.954   7.755  0.1351 -0.2941  2.4937
  124OSM   H16G13245   4.966   4.106   7.690 -2.1146  0.3890  2.5273
  124OSM   C17F13246   5.062   4.070   7.880 -0.3341 -0.6998 -0.2646
  124OSM   H17F13247   5.006   4.151   7.932 -2.0287 -0.0286 -2.9430
  124OSM   H17G13248   5.160   4.111   7.847  0.1436 -1.6413 -0.0387
  124OSM   C18F13249   5.108   3.967   7.985  0.1430  0.0667 -0.2039
  124OSM   H18F13250   5.208   3.926   7.961  0.9616  1.5422  0.5555
  124OSM   H18G13251   5.037   3.882   7.997  1.2545 -0.9486 -0.5784
  124OSM   H18H13252   5.124   4.033   8.072  1.3788 -0.6678  0.1491
  125OSM      N13253   3.977   3.908   5.933  0.6211  0.1920 -0.3613
  125OSM    C1513254   3.840   3.962   5.932  0.9974  0.1792 -0.0944
  125OSM   H15A13255   3.844   4.052   5.992 -1.1925  0.4004 -0.2231
  125OSM   H15B13256   3.772   3.896   5.983  1.0564  0.3655  0.2264
  125OSM   H15C13257   3.813   3.972   5.828 -1.9726 -1.8822  0.3686
  125OSM    C1413258   3.972   3.766   5.882 -0.6165 -0.4999 -0.4013
  125OSM   H14A13259   3.893   3.706   5.926  0.6661 -2.2765 -0.3892
  125OSM   H14B13260   4.065   3.718   5.910  0.4813  1.6081 -0.2592
  125OSM   H14C13261   3.965   3.774   5.774  1.6388 -0.4480 -0.5986
  125OSM    C1313262   4.072   3.984   5.843 -0.1602 -0.0882 -0.1172
  125OSM   H13A13263   4.153   3.922   5.807  0.9305  0.5163  1.2069
  125OSM   H13B13264   4.122   4.066   5.893  0.6561 -0.3279 -0.5179
  125OSM   H13C13265   4.031   4.031   5.755 -2.0633 -0.2600  0.6253
  125OSM    C1213266   4.033   3.922   6.072  0.7184  0.2921 -0.2136
  125OSM   H12A13267   4.115   3.855   6.089 -0.2415 -1.9157 -3.3694
  125OSM   H12B13268   3.963   3.872   6.138 -0.6714  2.6011  0.1834
  125OSM    C1113269   4.064   4.056   6.136 -0.4948 -0.4319  0.1406
  125OSM   H11A13270   4.129   4.119   6.071 -1.7782 -0.6630 -1.4602
  125OSM   H11B13271   4.114   4.036   6.233 -3.3254 -1.7337  1.4288
  125OSM      P13272   3.906   4.268   6.146  0.0067  0.0139 -0.3195
  125OSM    O1313273   3.994   4.339   6.049 -0.5521  0.0244  0.7371
  125OSM    O1413274   3.759   4.288   6.127 -0.5204 -1.4842  0.3144
  125OSM    O1113275   3.940   4.320   6.287  0.0858 -0.2735 -0.4988
  125OSM    O1213276   3.938   4.116   6.165  0.1123 -0.0766  1.0027
  125OSM    C1S13277   3.949   4.233   6.399 -0.6030  0.5889 -0.0566
  125OSM    H1S13278   4.056   4.204   6.409  0.8585  3.9318 -3.4393
  125OSM    H1T13279   3.891   4.139   6.392 -0.3989  0.3246  1.4952
  125OSM     NF13280   3.941   4.219   6.647  0.2595  0.3793 -0.1647
  125OSM    HNF13281   3.870   4.179   6.705  0.0525  2.5148  1.1807
  125OSM    C2S13282   3.900   4.299   6.526  0.4373  0.0538  0.0477
  125OSM    H2S13283   3.949   4.399   6.535 -0.0178  0.4337 -1.4133
  125OSM    C3S13284   3.747   4.324   6.519 -0.8012 -0.3616 -0.4981
  125OSM    H3S13285   3.697   4.226   6.503 -2.2162  0.0623  1.0959
  125OSM     O313286   3.720   4.421   6.412 -0.3261  0.3967 -0.3297
  125OSM    HO313287   3.783   4.405   6.342 -0.8910  1.4173 -1.1075
  125OSM    C4S13288   3.686   4.369   6.652  0.1172  0.5531  0.6938
  125OSM    H4S13289   3.636   4.287   6.707  0.6199 -0.5676 -0.4739
  125OSM    C5S13290   3.690   4.492   6.711  0.5725  0.1578  0.0679
  125OSM    H5S13291   3.733   4.581   6.662 -0.9029  1.4602  1.0266
  125OSM    C6S13292   3.625   4.527   6.843 -0.1891  0.1995 -0.1744
  125OSM    H6S13293   3.543   4.601   6.829  0.5715  1.0109 -0.4706
  125OSM    H6T13294   3.699   4.573   6.911  0.0382  0.7089 -0.7504
  125OSM    C7S13295   3.572   4.412   6.935 -0.5269 -0.4578  0.7209
  125OSM    H7S13296   3.636   4.321   6.937  1.3657  0.8260  1.7230
  125OSM    H7T13297   3.478   4.385   6.882 -0.2609  1.7861 -1.0199
  125OSM    C8S13298   3.538   4.450   7.078 -0.1740 -0.2384 -0.5445
  125OSM    H8S13299   3.472   4.539   7.077  0.0919 -0.0469 -1.2067
  125OSM    H8T13300   3.631   4.493   7.120  1.4776 -0.8126 -3.3836
  125OSM    C9S13301   3.478   4.329   7.152  0.6404  0.2160 -0.4850
  125OSM    H9S13302   3.545   4.240   7.150 -0.2611 -0.5207  0.9773
  125OSM    H9T13303   3.384   4.299   7.101  0.7577 -1.1021  0.0588
  125OSM   C10S13304   3.440   4.372   7.295  0.3428 -0.0022  0.4506
  125OSM   H10S13305   3.380   4.466   7.286  0.6891  0.0964 -1.2993
  125OSM   H10T13306   3.535   4.402   7.344 -1.2558  0.8038  3.2710
  125OSM   C11S13307   3.364   4.267   7.377  0.5583 -0.1177 -0.2267
  125OSM   H11S13308   3.433   4.180   7.388  2.2600  1.1637 -0.4687
  125OSM   H11T13309   3.274   4.237   7.318 -0.8208  0.1850  1.6231
  125OSM   C12S13310   3.336   4.318   7.516 -0.6602 -0.2552 -0.2833
  125OSM   H12S13311   3.275   4.410   7.505 -2.6847 -1.6603 -1.5584
  125OSM   H12T13312   3.428   4.334   7.576 -0.2421 -1.5831 -0.5277
  125OSM   C13S13313   3.249   4.223   7.603  0.0849 -0.0546  0.6815
  125OSM   H13S13314   3.286   4.119   7.617  0.8567 -0.0446 -1.0218
  125OSM   H13T13315   3.146   4.230   7.564 -0.3106  0.5942  1.7814
  125OSM   C14S13316   3.244   4.282   7.741 -0.1066  1.0812  0.4062
  125OSM   H14S13317   3.214   4.388   7.731 -1.6380  0.5970 -0.5557
  125OSM   H14T13318   3.349   4.272   7.773  0.7487 -2.4376 -2.7038
  125OSM   C15S13319   3.162   4.192   7.829 -0.4624  0.4675 -0.7078
  125OSM   H15S13320   3.203   4.089   7.830 -1.8334 -0.1014  0.5695
  125OSM   H15T13321   3.052   4.193   7.809 -0.7614 -0.8569  0.6450
  125OSM   C16S13322   3.181   4.222   7.979  0.2631 -0.5733  0.2509
  125OSM   H16S13323   3.155   4.328   8.001  1.7941 -0.2513  0.6402
  125OSM   H16T13324   3.286   4.194   8.003  0.4153  0.1024  0.3764
  125OSM   C17S13325   3.084   4.131   8.063 -0.3862 -0.5523  0.2436
  125OSM   H17S13326   3.123   4.027   8.054 -1.4536 -1.1647  2.2442
  125OSM   H17T13327   2.987   4.128   8.010 -0.2110 -1.3214 -0.0570
  125OSM   C18S13328   3.084   4.155   8.209 -0.6179  0.3813 -0.2170
  125OSM   H18S13329   3.183   4.174   8.255 -0.9214 -0.2160  0.7039
  125OSM   H18T13330   3.049   4.065   8.264 -1.1478  1.3888  1.1531
  125OSM   H18U13331   3.010   4.235   8.230  0.0907  0.9396  0.2108
  125OSM    C1F13332   4.066   4.219   6.690  0.8195 -0.1112 -0.2348
  125OSM     OF13333   4.152   4.282   6.632  0.3189  0.5676 -0.0660
  125OSM    C2F13334   4.083   4.144   6.813 -0.0265 -0.1282 -0.0823
  125OSM    H2F13335   4.028   4.047   6.820 -0.4995  0.1954  0.9362
  125OSM    H2G13336   4.054   4.204   6.902  1.0471  1.1796 -0.5844
  125OSM    C3F13337   4.236   4.110   6.819 -0.5445 -0.3915  0.3849
  125OSM    H3F13338   4.313   4.187   6.792 -1.3519 -0.3737 -2.1281
  125OSM    H3G13339   4.255   4.030   6.744  0.0070  1.4730 -1.5929
  125OSM    C4F13340   4.264   4.068   6.962 -0.2136  0.4750 -0.4396
  125OSM    H4F13341   4.373   4.046   6.969 -0.4065 -0.9690 -1.4054
  125OSM    H4G13342   4.213   3.971   6.981 -1.7006  1.0904 -1.1850
  125OSM    C5F13343   4.228   4.168   7.076  0.6049  0.1331  0.6836
  125OSM    H5F13344   4.118   4.168   7.092  1.0273 -1.6023  4.8017
  125OSM    H5G13345   4.255   4.275   7.073  0.8214  0.0698  0.0055
  125OSM    C6F13346   4.291   4.112   7.209  0.3769  0.0821  0.1327
  125OSM    H6F13347   4.396   4.079   7.197 -0.2982 -2.1415 -0.1053
  125OSM    H6G13348   4.234   4.019   7.228  2.3381 -1.5339 -1.5031
  125OSM    C7F13349   4.276   4.218   7.326 -0.4956  0.5494 -0.4091
  125OSM    H7F13350   4.173   4.261   7.325 -2.0223 -2.7286  1.1626
  125OSM    H7G13351   4.347   4.300   7.300  1.0282 -0.0589  1.5647
  125OSM    C8F13352   4.337   4.173   7.460 -0.2009  0.8878  0.3037
  125OSM    H8F13353   4.442   4.148   7.435 -0.3953  1.2654 -0.9968
  125OSM    H8G13354   4.305   4.071   7.489  0.7826  0.4828 -0.0042
  125OSM    C9F13355   4.345   4.272   7.565 -0.7793 -0.0883  0.6887
  125OSM    H9F13356   4.400   4.360   7.528 -0.4099 -1.6634 -3.0102
  125OSM   C10F13357   4.286   4.260   7.687  0.3584  0.8030  0.4882
  125OSM   H10F13358   4.287   4.352   7.747 -2.4506  0.4270  1.2578
  125OSM   C11F13359   4.220   4.142   7.747 -0.3778  0.2736  0.2549
  125OSM   H11F13360   4.240   4.144   7.856 -1.3675  2.8047  0.4554
  125OSM   H11G13361   4.271   4.050   7.710 -0.4769  0.0012  0.7919
  125OSM   C12F13362   4.069   4.126   7.725 -0.4606  1.3313 -0.2535
  125OSM   H12F13363   4.026   4.196   7.799  2.9394 -0.1891  3.5590
  125OSM   H12G13364   4.047   4.019   7.744  2.0129  0.4019 -2.0113
  125OSM   C13F13365   4.013   4.151   7.579 -0.3013 -0.5411 -0.4524
  125OSM   H13F13366   4.050   4.070   7.513  0.0129 -2.4908  2.0002
  125OSM   H13G13367   4.058   4.243   7.534 -2.0067  0.1143 -0.9358
  125OSM   C14F13368   3.866   4.159   7.573 -0.9088  0.2252  0.1542
  125OSM   H14F13369   3.840   4.261   7.609 -1.6562 -0.1616  0.7588
  125OSM   H14G13370   3.822   4.084   7.642 -1.5886 -0.5223 -1.0570
  125OSM   C15F13371   3.791   4.128   7.446  0.4991 -0.3790  0.1907
  125OSM   H15F13372   3.688   4.165   7.465  0.8061  1.5793 -1.6381
  125OSM   H15G13373   3.776   4.018   7.436 -0.7253 -0.1129 -1.3657
  125OSM   C16F13374   3.840   4.192   7.317 -0.3055 -0.4115  0.0339
  125OSM   H16F13375   3.766   4.170   7.236  0.1672  3.1662 -1.5669
  125OSM   H16G13376   3.934   4.146   7.282 -0.2664 -1.9478  2.0108
  125OSM   C17F13377   3.876   4.343   7.328  0.3372  0.5350  0.1660
  125OSM   H17F13378   3.963   4.354   7.396  0.5828 -0.2955 -0.0103
  125OSM   H17G13379   3.785   4.387   7.375 -0.6732 -0.9419 -0.3493
  125OSM   C18F13380   3.912   4.409   7.205 -0.3750 -0.1951 -0.6234
  125OSM   H18F13381   4.010   4.376   7.164  0.1084  0.1596  0.2210
  125OSM   H18G13382   3.909   4.518   7.226  0.1075 -0.4429  0.8838
  125OSM   H18H13383   3.832   4.381   7.133 -0.2059 -0.8293 -0.5768
  126OSM      N13384   6.621   1.677   6.280 -0.0804  0.2078 -0.0621
  126OSM    C1513385   6.740   1.656   6.366 -0.5706  0.2612  0.4340
  126OSM   H15A13386   6.765   1.751   6.412  1.2360  0.9831 -1.8789
  126OSM   H15B13387   6.826   1.627   6.308 -3.5228 -2.4071 -3.0570
  126OSM   H15C13388   6.719   1.580   6.440 -3.7255  1.2255  0.7161
  126OSM    C1413389   6.651   1.779   6.175  0.2621 -0.0409 -0.1148
  126OSM   H14A13390   6.716   1.751   6.094 -0.1435  0.6599 -0.6935
  126OSM   H14B13391   6.692   1.865   6.226 -1.7739 -0.4949  2.5412
  126OSM   H14C13392   6.562   1.820   6.130  1.4022  1.8572 -0.7524
  126OSM    C1313393   6.592   1.552   6.202  0.4425 -0.0005 -0.6793
  126OSM   H13A13394   6.670   1.545   6.127  0.2147  0.2437 -0.9391
  126OSM   H13B13395   6.499   1.564   6.148  0.4118  1.1540 -0.3956
  126OSM   H13C13396   6.573   1.465   6.263 -2.8923  0.1283 -1.3774
  126OSM    C1213397   6.496   1.701   6.379  0.0778 -0.8142  0.4836
  126OSM   H12A13398   6.461   1.612   6.429 -1.4554  0.2502  1.3682
  126OSM   H12B13399   6.410   1.730   6.321  1.2743  2.9028  0.2931
  126OSM    C1113400   6.502   1.823   6.482  0.6809  0.3698 -0.2368
  126OSM   H11A13401   6.587   1.800   6.549  1.2317  2.1904 -0.2623
  126OSM   H11B13402   6.419   1.819   6.556  1.0647  0.9525  0.2310
  126OSM      P13403   6.399   2.026   6.346 -0.2713  0.1452  0.4484
  126OSM    O1313404   6.456   2.099   6.230 -0.6561 -0.1568 -0.1698
  126OSM    O1413405   6.291   1.926   6.309 -0.7752  0.0736 -0.2438
  126OSM    O1113406   6.341   2.126   6.446  0.0972 -0.5492  0.1236
  126OSM    O1213407   6.517   1.950   6.418  0.1944  0.0278  0.2337
  126OSM    C1S13408   6.304   2.099   6.578 -0.1679 -0.2205  0.7172
  126OSM    H1S13409   6.274   1.992   6.581 -1.2919  0.0507 -0.2093
  126OSM    H1T13410   6.222   2.171   6.601 -0.6724 -0.6277  0.2255
  126OSM     NF13411   6.355   2.100   6.810  0.5619 -0.0692  0.7284
  126OSM    HNF13412   6.299   2.158   6.868  1.7878  0.7577  1.1302
  126OSM    C2S13413   6.409   2.134   6.684 -0.1092 -0.2627  0.6954
  126OSM    H2S13414   6.494   2.068   6.656 -0.4006 -0.3734  0.0425
  126OSM    C3S13415   6.450   2.282   6.681  0.3799  0.9805  1.2601
  126OSM    H3S13416   6.361   2.346   6.693  0.4328  0.9129  2.0708
  126OSM     O313417   6.514   2.307   6.560  0.1252 -0.2883  0.0549
  126OSM    HO313418   6.493   2.232   6.504 -0.4227  1.3230 -2.0200
  126OSM    C4S13419   6.541   2.326   6.785 -0.2703  0.4442 -0.1151
  126OSM    H4S13420   6.643   2.286   6.783 -1.4768 -2.9657 -1.7311
  126OSM    C5S13421   6.503   2.417   6.882 -0.3326  0.6407 -0.3852
  126OSM    H5S13422   6.399   2.452   6.884 -0.2256  0.9943  2.2294
  126OSM    C6S13423   6.595   2.463   6.995 -0.6267  0.5471 -0.1346
  126OSM    H6S13424   6.542   2.547   7.044  1.2193  2.2203 -0.8733
  126OSM    H6T13425   6.693   2.506   6.964 -0.0688  2.4037  3.6396
  126OSM    C7S13426   6.625   2.351   7.109  0.1970  0.9210  0.2044
  126OSM    H7S13427   6.716   2.299   7.074 -0.5375  0.6998 -1.4620
  126OSM    H7T13428   6.554   2.266   7.110  1.3447 -0.0641  1.0406
  126OSM    C8S13429   6.655   2.405   7.251 -0.3500  0.0867  0.4501
  126OSM    H8S13430   6.567   2.460   7.289  1.3809  2.6939  0.9110
  126OSM    H8T13431   6.741   2.474   7.256 -2.2685  2.6552 -0.0337
  126OSM    C9S13432   6.693   2.294   7.352  0.2393  0.5229  0.5749
  126OSM    H9S13433   6.764   2.217   7.313 -0.7792  0.4098 -1.1334
  126OSM    H9T13434   6.593   2.253   7.378 -0.3367  2.3389  1.3669
  126OSM   C10S13435   6.751   2.349   7.485  0.2146 -0.0164  0.0735
  126OSM   H10S13436   6.692   2.421   7.545  1.9081 -0.5330  2.5025
  126OSM   H10T13437   6.838   2.413   7.460 -2.0670  3.9934  1.6368
  126OSM   C11S13438   6.796   2.249   7.588  0.5015  0.7116 -0.2259
  126OSM   H11S13439   6.869   2.178   7.544  2.9321  1.4345  2.3365
  126OSM   H11T13440   6.705   2.199   7.626  0.2690  1.6798  0.5606
  126OSM   C12S13441   6.872   2.315   7.704  0.1637 -0.1828 -0.2738
  126OSM   H12S13442   6.807   2.389   7.757 -0.0222  0.0747 -0.8571
  126OSM   H12T13443   6.966   2.366   7.677  0.4701 -1.2361 -1.2535
  126OSM   C13S13444   6.914   2.216   7.811 -0.3902  0.5261  0.3213
  126OSM   H13S13445   7.006   2.168   7.772 -0.2629 -0.0183  1.2604
  126OSM   H13T13446   6.845   2.130   7.820  0.0572  0.2671  1.3552
  126OSM   C14S13447   6.960   2.289   7.944 -0.7637 -0.2340  0.3712
  126OSM   H14S13448   6.870   2.345   7.977 -1.0195  0.5973 -1.5983
  126OSM   H14T13449   7.042   2.360   7.921  1.1523 -2.6084 -0.6446
  126OSM   C15S13450   7.018   2.192   8.052  0.9554  0.0868  0.2858
  126OSM   H15S13451   7.050   2.257   8.137 -0.2549  1.7114 -0.4283
  126OSM   H15T13452   7.108   2.142   8.012  1.5568  0.8896  0.6010
  126OSM   C16S13453   6.905   2.090   8.099 -0.2968  0.4264 -0.1627
  126OSM   H16S13454   6.865   2.030   8.015  0.5129  1.5948 -1.4291
  126OSM   H16T13455   6.810   2.138   8.130 -1.8451 -2.0775 -0.7716
  126OSM   C17S13456   6.945   2.003   8.221 -0.0907 -0.5817 -0.0618
  126OSM   H17S13457   7.056   1.989   8.221 -0.2213 -1.9754 -1.6452
  126OSM   H17T13458   6.895   1.904   8.215  1.0477 -1.1257 -1.3033
  126OSM   C18S13459   6.892   2.073   8.350 -0.0397 -0.8975 -0.4433
  126OSM   H18S13460   6.957   2.162   8.361  0.7448 -1.6011  0.9754
  126OSM   H18T13461   6.903   2.014   8.444  1.8252  1.3482  0.8454
  126OSM   H18U13462   6.785   2.103   8.346  0.4723  1.2089  0.3249
  126OSM    C1F13463   6.342   1.971   6.851 -0.0229 -0.3990  0.1060
  126OSM     OF13464   6.379   1.880   6.785 -0.6254 -0.0484 -0.6365
  126OSM    C2F13465   6.283   1.955   6.985 -0.6085  0.1685  0.0701
  126OSM    H2F13466   6.306   1.849   7.010 -0.6798 -0.3967 -2.0271
  126OSM    H2G13467   6.174   1.962   6.967 -0.3024  2.6969 -1.1749
  126OSM    C3F13468   6.322   2.058   7.103  0.9284  1.1733 -0.4048
  126OSM    H3F13469   6.420   2.107   7.088  1.8731 -0.4305  0.2638
  126OSM    H3G13470   6.318   2.004   7.199 -0.8291 -0.2814 -1.2254
  126OSM    C4F13471   6.225   2.174   7.109 -0.3073  0.0702 -0.3858
  126OSM    H4F13472   6.124   2.131   7.124 -1.0245  1.0546 -2.0480
  126OSM    H4G13473   6.214   2.233   7.015 -0.4633  1.6386  0.5801
  126OSM    C5F13474   6.262   2.274   7.231 -0.0729  0.9089 -0.2341
  126OSM    H5F13475   6.199   2.364   7.218  2.1375  2.5627 -0.1426
  126OSM    H5G13476   6.359   2.324   7.211 -1.1133  3.3788  0.4524
  126OSM    C6F13477   6.256   2.216   7.372  0.4763  0.4255 -0.0931
  126OSM    H6F13478   6.339   2.141   7.374  0.1629  0.0306 -1.2576
  126OSM    H6G13479   6.172   2.146   7.392  0.1428  1.0145  0.5935
  126OSM    C7F13480   6.270   2.329   7.473 -0.7847 -0.3498 -0.0873
  126OSM    H7F13481   6.183   2.397   7.463 -0.2610  0.5940  1.4108
  126OSM    H7G13482   6.350   2.401   7.447 -0.5717  0.2178  1.9335
  126OSM    C8F13483   6.296   2.276   7.616 -0.2105  0.3444  0.0714
  126OSM    H8F13484   6.214   2.212   7.655 -1.3379  0.9448 -1.2511
  126OSM    H8G13485   6.289   2.368   7.678 -1.8198  0.5891 -0.4204
  126OSM    C9F13486   6.431   2.211   7.644 -0.3972  0.1919 -0.2513
  126OSM    H9F13487   6.503   2.190   7.564  0.2991  0.0318  0.4007
  126OSM   C10F13488   6.471   2.181   7.770  0.2824 -0.8421  0.0101
  126OSM   H10F13489   6.577   2.150   7.776  0.3911 -0.3232  1.0995
  126OSM   C11F13490   6.392   2.211   7.894 -0.0209 -0.3225  0.3280
  126OSM   H11F13491   6.402   2.127   7.965 -2.1154 -0.4124  0.5818
  126OSM   H11G13492   6.284   2.230   7.873 -0.2071 -1.2047  0.4816
  126OSM   C12F13493   6.430   2.342   7.973  0.1133  0.0785  0.6114
  126OSM   H12F13494   6.440   2.427   7.902  1.8587  0.2573  1.0388
  126OSM   H12G13495   6.534   2.339   8.012 -0.2360  0.8314  1.6243
  126OSM   C13F13496   6.340   2.393   8.089 -0.9702  0.6004 -0.1074
  126OSM   H13F13497   6.232   2.393   8.063 -0.5437 -0.5489 -2.1143
  126OSM   H13G13498   6.368   2.500   8.093  1.7608 -0.0175 -0.5691
  126OSM   C14F13499   6.357   2.303   8.209  0.3780  0.8061 -0.6342
  126OSM   H14F13500   6.464   2.306   8.236  0.4479  1.4730 -0.9720
  126OSM   H14G13501   6.348   2.198   8.174  2.1485  0.0554  0.9678
  126OSM   C15F13502   6.266   2.336   8.328  0.6189 -0.2874 -0.2538
  126OSM   H15F13503   6.247   2.251   8.397  2.4488  0.4884  1.2976
  126OSM   H15G13504   6.170   2.368   8.282 -0.5884 -0.4581  1.9912
  126OSM   C16F13505   6.307   2.463   8.398 -0.0370 -0.1256 -0.7869
  126OSM   H16F13506   6.304   2.542   8.320 -2.1622  1.1964  0.5575
  126OSM   H16G13507   6.412   2.458   8.435  0.3806  1.3909 -1.6802
  126OSM   C17F13508   6.211   2.506   8.513 -0.5301 -0.0395 -1.3040
  126OSM   H17F13509   6.207   2.419   8.582 -1.0430  2.2988  1.7891
  126OSM   H17G13510   6.109   2.533   8.480 -0.5975  1.9389  0.3236
  126OSM   C18F13511   6.278   2.619   8.594  0.9797  0.4955  0.1740
  126OSM   H18F13512   6.313   2.692   8.518  0.4946 -0.5640 -1.1035
  126OSM   H18G13513   6.370   2.589   8.649  1.8538  3.9228  0.7786
  126OSM   H18H13514   6.209   2.659   8.671  0.2161 -1.8493  0.7947
  127OSM      N13515   5.218   3.870   5.965 -0.2475  0.2107 -0.4407
  127OSM    C1513516   5.312   3.955   5.891  0.3569 -0.5654 -0.1363
  127OSM   H15A13517   5.415   3.933   5.916  0.4143  0.7124  0.8528
  127OSM   H15B13518   5.286   4.058   5.910  0.7302 -0.6085  0.6621
  127OSM   H15C13519   5.300   3.957   5.784  0.5463 -0.0564 -0.1538
  127OSM    C1413520   5.087   3.927   5.947  0.2922 -0.5024  0.3502
  127OSM   H14A13521   5.075   4.021   5.998  2.3345 -0.8880  1.6473
  127OSM   H14B13522   5.013   3.863   5.993  0.2696 -0.6779  0.0742
  127OSM   H14C13523   5.057   3.953   5.846 -0.4604 -1.0740  0.4170
  127OSM    C1313524   5.219   3.737   5.911  0.4690  0.1549  0.5176
  127OSM   H13A13525   5.136   3.683   5.955 -0.5746  2.5983  1.7619
  127OSM   H13B13526   5.303   3.674   5.937 -0.5647 -0.4920  2.5316
  127OSM   H13C13527   5.197   3.732   5.806  1.2539 -2.6678  0.4136
  127OSM    C1213528   5.266   3.873   6.108 -0.6505  0.2622 -0.6204
  127OSM   H12A13529   5.344   3.799   6.116  0.6972  1.8076  1.8754
  127OSM   H12B13530   5.199   3.830   6.182  0.8877  0.4987  0.9900
  127OSM    C1113531   5.320   4.002   6.172  0.7996 -0.5025 -0.4003
  127OSM   H11A13532   5.403   4.039   6.109  0.8755 -1.7455 -1.0646
  127OSM   H11B13533   5.369   3.976   6.269 -0.4272 -1.1731  0.0718
  127OSM      P13534   5.129   4.121   6.310 -0.3050 -0.2516  0.2016
  127OSM    O1313535   5.002   4.188   6.272  0.4286 -0.2626 -0.2148
  127OSM    O1413536   5.112   3.990   6.375  0.2608 -0.0626  0.4495
  127OSM    O1113537   5.210   4.217   6.409 -0.4364  0.4367  0.0756
  127OSM    O1213538   5.222   4.114   6.176 -0.1054 -0.4226 -0.5865
  127OSM    C1S13539   5.289   4.318   6.350  0.0750  0.9486  0.0407
  127OSM    H1S13540   5.231   4.383   6.281  0.0595 -1.4741 -2.3954
  127OSM    H1T13541   5.373   4.276   6.292 -0.1487 -1.3014  1.2165
  127OSM     NF13542   5.392   4.533   6.411 -0.1314  0.2562 -0.0830
  127OSM    HNF13543   5.491   4.544   6.422  0.0206 -2.0380  1.5049
  127OSM    C2S13544   5.337   4.410   6.457 -0.1722 -0.1944 -0.2573
  127OSM    H2S13545   5.251   4.430   6.523 -0.2113 -1.9305  0.2806
  127OSM    C3S13546   5.446   4.330   6.543 -0.0629 -0.3881  0.4504
  127OSM    H3S13547   5.532   4.299   6.480  0.4366  0.8034  0.5187
  127OSM     O313548   5.396   4.206   6.596 -0.0648  0.2878 -0.1109
  127OSM    HO313549   5.301   4.202   6.580 -0.5922  2.3282  1.8594
  127OSM    C4S13550   5.497   4.417   6.652 -0.5754 -0.2572  0.2852
  127OSM    H4S13551   5.589   4.466   6.621 -0.3972 -0.4037  0.5780
  127OSM    C5S13552   5.458   4.427   6.785  0.2601  0.1069 -0.3464
  127OSM    H5S13553   5.390   4.353   6.830  0.8403  0.3256  0.9282
  127OSM    C6S13554   5.536   4.512   6.885  0.3522  0.5830  0.0225
  127OSM    H6S13555   5.476   4.599   6.919 -2.8233 -1.3068 -0.3155
  127OSM    H6T13556   5.630   4.553   6.842  0.4446  0.1925 -0.1552
  127OSM    C7S13557   5.596   4.425   6.990  0.2302 -0.5945 -0.4113
  127OSM    H7S13558   5.685   4.368   6.953 -0.8727 -3.1425  0.6562
  127OSM    H7T13559   5.532   4.339   7.018  0.7404 -0.8916 -0.1491
  127OSM    C8S13560   5.648   4.501   7.113 -0.5885  0.0223  0.0711
  127OSM    H8S13561   5.556   4.520   7.172 -1.2791 -0.2560 -0.9070
  127OSM    H8T13562   5.698   4.598   7.091 -1.9457  0.5106 -0.9979
  127OSM    C9S13563   5.722   4.415   7.220  0.5157  0.4005  0.2373
  127OSM    H9S13564   5.827   4.392   7.193  0.1630  1.1595 -1.9300
  127OSM    H9T13565   5.664   4.323   7.244 -0.6365  1.2965  1.0571
  127OSM   C10S13566   5.740   4.496   7.354  0.9513 -0.1759  0.2238
  127OSM   H10S13567   5.772   4.601   7.337 -2.4161  0.7928 -0.9655
  127OSM   H10T13568   5.820   4.438   7.406 -0.6782 -3.3327 -0.5343
  127OSM   C11S13569   5.612   4.495   7.435  0.2367  0.1174 -0.1310
  127OSM   H11S13570   5.544   4.419   7.390  0.8365 -1.7196  1.8946
  127OSM   H11T13571   5.561   4.593   7.442  0.1966  0.0978 -0.1417
  127OSM   C12S13572   5.630   4.438   7.575  0.0457  0.1351  0.0572
  127OSM   H12S13573   5.697   4.502   7.637  1.6767 -1.8478  0.4306
  127OSM   H12T13574   5.691   4.347   7.555  0.4264  0.5886 -0.9485
  127OSM   C13S13575   5.497   4.413   7.646  0.1270  0.3360  0.9092
  127OSM   H13S13576   5.429   4.353   7.583  1.0143 -0.5182  0.7402
  127OSM   H13T13577   5.453   4.515   7.653 -1.4026 -0.3632  1.9139
  127OSM   C14S13578   5.519   4.346   7.775  1.0222  0.3218 -0.6964
  127OSM   H14S13579   5.618   4.367   7.819 -0.4079 -0.3151  3.2467
  127OSM   H14T13580   5.501   4.236   7.766 -1.5738  0.4431  1.7420
  127OSM   C15S13581   5.428   4.410   7.876 -0.1426  0.8873  0.5068
  127OSM   H15S13582   5.331   4.433   7.828  0.4355  1.1362 -0.5634
  127OSM   H15T13583   5.484   4.498   7.915  1.8746 -0.3285  0.5078
  127OSM   C16S13584   5.411   4.323   8.002  0.1295  0.3370  0.1989
  127OSM   H16S13585   5.511   4.329   8.049 -0.6781  0.6505  1.9654
  127OSM   H16T13586   5.389   4.226   7.954  2.0171  0.0764 -0.2016
  127OSM   C17S13587   5.290   4.373   8.086  0.0525  0.1400 -0.5150
  127OSM   H17S13588   5.196   4.349   8.031 -0.0355 -0.1207 -0.2532
  127OSM   H17T13589   5.301   4.482   8.104  3.3411 -0.1735 -0.0426
  127OSM   C18S13590   5.285   4.299   8.216 -0.2343 -0.1716 -0.4736
  127OSM   H18S13591   5.326   4.355   8.303  1.2289 -0.8130 -0.7245
  127OSM   H18T13592   5.337   4.201   8.213  2.3204  0.8439  3.5118
  127OSM   H18U13593   5.180   4.301   8.252  0.4603 -0.3466  1.6862
  127OSM    C1F13594   5.320   4.626   6.352  0.0412 -0.5650  0.3317
  127OSM     OF13595   5.198   4.611   6.337 -0.3177  0.7279 -0.3940
  127OSM    C2F13596   5.389   4.750   6.301  0.9975  0.6431 -0.0216
  127OSM    H2F13597   5.370   4.747   6.192  0.7460  0.6557  0.0213
  127OSM    H2G13598   5.497   4.730   6.318  0.6264 -0.3665  1.3499
  127OSM    C3F13599   5.348   4.878   6.378  0.0241 -0.4899  0.3299
  127OSM    H3F13600   5.241   4.904   6.366 -0.2555 -2.0344 -0.8518
  127OSM    H3G13601   5.393   4.971   6.337  0.1777 -1.5917 -2.1832
  127OSM    C4F13602   5.363   4.882   6.533  0.2404 -0.1301  0.2609
  127OSM    H4F13603   5.470   4.865   6.558  0.5045  0.8660 -0.1221
  127OSM    H4G13604   5.318   4.787   6.568  1.2939 -1.0206 -0.6793
  127OSM    C5F13605   5.293   5.000   6.603  0.5011 -0.3504  0.2337
  127OSM    H5F13606   5.295   4.974   6.710 -0.8972 -0.8505  0.1552
  127OSM    H5G13607   5.185   5.002   6.576  0.5484  1.3444  0.0415
  127OSM    C6F13608   5.354   5.144   6.578  0.2187  0.3292 -0.0187
  127OSM    H6F13609   5.360   5.166   6.469  0.1060 -2.3193 -0.6211
  127OSM    H6G13610   5.455   5.132   6.620  0.7694 -1.5064 -1.6988
  127OSM    C7F13611   5.303   5.268   6.644  0.0624 -0.3365 -0.0753
  127OSM    H7F13612   5.192   5.266   6.636  0.1073 -1.9671 -0.4566
  127OSM    H7G13613   5.356   5.354   6.598  1.1902 -2.0028 -2.0260
  127OSM    C8F13614   5.337   5.269   6.796  0.4046 -0.0671 -0.2874
  127OSM    H8F13615   5.446   5.250   6.812  0.1993  0.1878  1.5355
  127OSM    H8G13616   5.283   5.191   6.853 -0.8456 -0.4503 -1.9333
  127OSM    C9F13617   5.296   5.401   6.860 -0.2580 -0.0970 -0.1418
  127OSM    H9F13618   5.209   5.450   6.813 -1.5634 -1.7904  0.4009
  127OSM   C10F13619   5.354   5.472   6.953 -0.3046  0.6836  0.6382
  127OSM   H10F13620   5.310   5.571   6.969 -0.4034  0.6302  0.6955
  127OSM   C11F13621   5.478   5.445   7.039  0.4654  0.0854  0.5251
  127OSM   H11F13622   5.548   5.528   7.014 -3.6266  3.4242 -1.0237
  127OSM   H11G13623   5.534   5.354   7.012 -0.3708 -0.8670  1.8645
  127OSM   C12F13624   5.458   5.435   7.191  0.4252 -0.2782  0.3024
  127OSM   H12F13625   5.380   5.360   7.215  0.5606 -0.8066 -0.8794
  127OSM   H12G13626   5.424   5.534   7.230  0.6921  0.3448 -1.0048
  127OSM   C13F13627   5.590   5.393   7.259  0.4672 -0.5527 -0.8073
  127OSM   H13F13628   5.679   5.450   7.225 -0.1610  1.0892  0.1804
  127OSM   H13G13629   5.612   5.286   7.241 -0.3777 -0.8632 -0.0669
  127OSM   C14F13630   5.581   5.421   7.408  0.2900  0.3713  0.3455
  127OSM   H14F13631   5.493   5.373   7.456  0.0492 -0.9932 -1.3457
  127OSM   H14G13632   5.588   5.529   7.431  0.8626  0.4327 -0.0930
  127OSM   C15F13633   5.692   5.350   7.491 -0.1802 -0.2782  0.4834
  127OSM   H15F13634   5.791   5.388   7.459 -0.3977  0.2246  0.3956
  127OSM   H15G13635   5.689   5.241   7.467 -2.2319  0.3039 -2.4636
  127OSM   C16F13636   5.675   5.354   7.641 -0.0474  0.4295 -0.1054
  127OSM   H16F13637   5.577   5.305   7.662 -0.1281  0.8853  0.6143
  127OSM   H16G13638   5.686   5.459   7.676  2.3320  0.1608  0.0864
  127OSM   C17F13639   5.800   5.284   7.695 -0.1806  0.4335 -0.2472
  127OSM   H17F13640   5.894   5.338   7.670 -1.2525  0.6948 -4.4083
  127OSM   H17G13641   5.822   5.189   7.643 -0.0920  0.4526 -0.2454
  127OSM   C18F13642   5.787   5.253   7.840 -0.0256  0.0642 -0.3013
  127OSM   H18F13643   5.713   5.171   7.849  1.6569 -1.4932 -0.1879
  127OSM   H18G13644   5.733   5.336   7.891 -1.7522  0.2873 -2.3770
  127OSM   H18H13645   5.887   5.233   7.885 -0.7149 -0.8657  0.8764
  128OSM      N13646   3.207   0.087   5.986 -0.1701 -0.0156  0.9416
  128OSM    C1513647   3.276   0.223   6.007  1.0260 -0.8422 -0.6803
  128OSM   H15A13648   3.248   0.299   5.935  2.0384 -1.3023 -1.5851
  128OSM   H15B13649   3.384   0.213   6.005  1.4727  2.3843  0.4580
  128OSM   H15C13650   3.239   0.267   6.098  1.3437 -0.0298 -0.9340
  128OSM    C1413651   3.238   0.054   5.843 -0.1417  0.4244 -0.0788
  128OSM   H14A13652   3.182  -0.027   5.800 -2.5020  1.0654  1.6037
  128OSM   H14B13653   3.344   0.031   5.838 -0.1640 -0.1254  1.5314
  128OSM   H14C13654   3.233   0.142   5.781  1.4217  0.0447 -0.7991
  128OSM    C1313655   3.277  -0.021   6.072 -0.4379  0.4814 -0.1650
  128OSM   H13A13656   3.232  -0.117   6.050 -0.5525  0.6044 -0.4881
  128OSM   H13B13657   3.277   0.011   6.175 -1.3925 -0.3494  0.1023
  128OSM   H13C13658   3.385  -0.029   6.065  0.3201  2.1266  5.4258
  128OSM    C1213659   3.064   0.108   6.016  0.4863 -0.0476  0.5553
  128OSM   H12A13660   3.005   0.021   5.991 -1.4945  0.9122  1.6651
  128OSM   H12B13661   3.034   0.201   5.971 -1.7186 -0.7774  0.3570
  128OSM    C1113662   3.039   0.131   6.174  0.5243  0.0520 -0.2681
  128OSM   H11A13663   3.092   0.227   6.192  0.2710  0.4017 -1.3113
  128OSM   H11B13664   3.080   0.052   6.239 -2.8833 -0.6649  1.2141
  128OSM      P13665   2.817   0.045   6.262 -0.1625  0.3533  0.3496
  128OSM    O1313666   2.673   0.093   6.276  0.2452  0.2356  0.4445
  128OSM    O1413667   2.847  -0.091   6.207 -0.1077  0.2101  0.3348
  128OSM    O1113668   2.882   0.059   6.401 -0.3585  0.0120  0.4785
  128OSM    O1213669   2.895   0.151   6.183  0.1301  0.6495  0.6745
  128OSM    C1S13670   2.895   0.177   6.470  0.1870 -0.4015 -0.1808
  128OSM    H1S13671   2.798   0.230   6.463 -0.0657 -0.9120 -0.6017
  128OSM    H1T13672   2.974   0.240   6.423  0.4123 -0.9390 -0.5435
  128OSM     NF13673   2.928   0.276   6.701  0.2202  0.0441  0.2267
  128OSM    HNF13674   3.019   0.304   6.730  0.3413 -0.9003  0.7733
  128OSM    C2S13675   2.917   0.154   6.623 -0.4673 -0.3561 -0.8366
  128OSM    H2S13676   2.830   0.093   6.653  0.0407 -2.0137 -2.5469
  128OSM    C3S13677   3.039   0.067   6.645 -0.5486  0.1326  0.3686
  128OSM    H3S13678   3.132   0.112   6.605 -1.4136  1.9569  0.3459
  128OSM     O313679   3.034  -0.051   6.563 -0.6338 -0.2424  0.2942
  128OSM    HO313680   2.973  -0.023   6.494  0.2210  2.1460  0.3997
  128OSM    C4S13681   3.046   0.026   6.795  0.3658  0.5152 -0.3959
  128OSM    H4S13682   3.111   0.101   6.842  0.6436  0.9974 -1.5272
  128OSM    C5S13683   2.967  -0.053   6.869 -0.2084 -0.1465 -0.6964
  128OSM    H5S13684   2.892  -0.121   6.826 -2.2993  2.0244 -0.7133
  128OSM    C6S13685   3.003  -0.072   7.014 -0.2555  0.0535 -0.2071
  128OSM    H6S13686   3.088  -0.007   7.045 -0.7687  0.1046  1.1850
  128OSM    H6T13687   3.027  -0.177   7.041 -0.7623  0.4384  1.9872
  128OSM    C7S13688   2.886  -0.034   7.105  0.3800  0.3287 -0.0718
  128OSM    H7S13689   2.780  -0.044   7.075 -0.6765  0.1829  3.2665
  128OSM    H7T13690   2.902   0.073   7.128  1.8640  0.1762 -0.3184
  128OSM    C8S13691   2.894  -0.124   7.228 -0.0179  0.3172  0.1320
  128OSM    H8S13692   2.977  -0.084   7.291 -1.5351  2.9796  0.5907
  128OSM    H8T13693   2.905  -0.225   7.185 -2.1023 -0.0020  0.2715
  128OSM    C9S13694   2.772  -0.113   7.325 -0.5828 -0.0692  0.2320
  128OSM    H9S13695   2.678  -0.134   7.270 -0.4653 -0.0787  0.0332
  128OSM    H9T13696   2.762  -0.006   7.350  2.5442  0.0134  1.5808
  128OSM   C10S13697   2.773  -0.204   7.444  0.7724  0.7166 -0.1565
  128OSM   H10S13698   2.778  -0.308   7.405  0.3720  1.3689 -2.0660
  128OSM   H10T13699   2.682  -0.194   7.506  0.0367 -0.5825 -0.9830
  128OSM   C11S13700   2.900  -0.186   7.537 -0.1546 -0.4473 -0.0737
  128OSM   H11S13701   2.925  -0.078   7.534 -0.5293 -0.3839 -1.9174
  128OSM   H11T13702   2.981  -0.238   7.483 -1.6407 -1.2919 -1.5659
  128OSM   C12S13703   2.897  -0.229   7.685  0.3482  0.3317 -0.0468
  128OSM   H12S13704   3.001  -0.253   7.717  0.1839 -2.0451 -1.0909
  128OSM   H12T13705   2.847  -0.328   7.697  1.8138 -0.3797  0.5033
  128OSM   C13S13706   2.838  -0.122   7.778  0.1920 -0.2807 -0.0415
  128OSM   H13S13707   2.733  -0.101   7.748  0.4207  2.6381  0.8403
  128OSM   H13T13708   2.900  -0.031   7.791  1.2364 -1.1037  0.9590
  128OSM   C14S13709   2.834  -0.177   7.921  0.2738 -0.1588  0.8259
  128OSM   H14S13710   2.785  -0.104   7.989 -0.6712 -1.4243  1.5491
  128OSM   H14T13711   2.939  -0.193   7.954  0.4020  3.6791  2.8072
  128OSM   C15S13712   2.754  -0.307   7.946 -0.2065  0.0805 -0.3459
  128OSM   H15S13713   2.759  -0.384   7.866  1.4611 -0.4488  0.2135
  128OSM   H15T13714   2.647  -0.283   7.960 -0.3368 -0.4987 -0.2948
  128OSM   C16S13715   2.809  -0.369   8.075 -0.2001 -0.5510 -0.0668
  128OSM   H16S13716   2.836  -0.279   8.133 -2.3298 -0.9643  1.7210
  128OSM   H16T13717   2.907  -0.418   8.056  0.2608  0.2175  0.3028
  128OSM   C17S13718   2.724  -0.476   8.148 -0.4556 -0.1042  0.0019
  128OSM   H17S13719   2.780  -0.521   8.233 -0.6652 -5.7075 -2.3846
  128OSM   H17T13720   2.699  -0.561   8.081 -2.2897  1.3579 -1.2630
  128OSM   C18S13721   2.587  -0.432   8.188 -0.6363 -0.0316 -0.2018
  128OSM   H18S13722   2.542  -0.500   8.265  0.9590 -2.3757 -1.2099
  128OSM   H18T13723   2.515  -0.427   8.104 -1.4964  1.6680  0.5787
  128OSM   H18U13724   2.601  -0.328   8.225 -1.2208 -0.3601  1.0062
  128OSM    C1F13725   2.826   0.361   6.709  0.9307 -0.1801 -0.3760
  128OSM     OF13726   2.712   0.326   6.672 -0.1480 -0.2344 -0.6397
  128OSM    C2F13727   2.841   0.489   6.773 -0.2151 -0.5444  0.3982
  128OSM    H2F13728   2.890   0.548   6.693  0.0998 -2.0208 -0.5510
  128OSM    H2G13729   2.908   0.478   6.861 -1.2674 -0.7986  1.1870
  128OSM    C3F13730   2.710   0.551   6.818 -0.2194  0.9284 -0.1190
  128OSM    H3F13731   2.638   0.528   6.737  0.6293 -0.6885 -0.4577
  128OSM    H3G13732   2.720   0.662   6.822  1.5820  0.8457 -1.0537
  128OSM    C4F13733   2.657   0.481   6.948 -0.1413  0.1041  1.2353
  128OSM    H4F13734   2.687   0.375   6.932  2.9049  1.0148  0.2492
  128OSM    H4G13735   2.546   0.472   6.954 -0.1132 -0.8662  0.5237
  128OSM    C5F13736   2.736   0.533   7.072  0.2171 -0.5255 -0.2791
  128OSM    H5F13737   2.721   0.643   7.081  0.9126 -0.2109 -2.3708
  128OSM    H5G13738   2.845   0.523   7.053  0.6740  0.6142  1.5082
  128OSM    C6F13739   2.693   0.459   7.196  0.6225 -0.6363  0.1359
  128OSM    H6F13740   2.671   0.353   7.170 -0.7587 -0.5694  0.9651
  128OSM    H6G13741   2.598   0.511   7.218  0.7844 -0.1252 -0.3624
  128OSM    C7F13742   2.794   0.477   7.313  0.6386  0.5370 -0.8791
  128OSM    H7F13743   2.795   0.575   7.364  2.8820  0.1988 -0.1291
  128OSM    H7G13744   2.902   0.472   7.286  1.5580  1.1942  2.2679
  128OSM    C8F13745   2.768   0.362   7.414  0.3923  0.4170 -0.4419
  128OSM    H8F13746   2.859   0.326   7.467 -0.6187  0.8168  1.6927
  128OSM    H8G13747   2.733   0.278   7.351 -0.1786  0.8140 -0.6645
  128OSM    C9F13748   2.648   0.403   7.498  0.3854 -0.2880  0.2460
  128OSM    H9F13749   2.554   0.415   7.443 -0.0136 -1.5222  0.6313
  128OSM   C10F13750   2.656   0.435   7.628 -0.4782  0.5670  0.3352
  128OSM   H10F13751   2.568   0.471   7.684 -0.5440 -0.6591  1.0701
  128OSM   C11F13752   2.785   0.431   7.713 -0.4966  0.4155 -0.3635
  128OSM   H11F13753   2.812   0.521   7.771 -0.8544  1.0798 -1.2158
  128OSM   H11G13754   2.879   0.428   7.654  0.1371  0.3874  0.6168
  128OSM   C12F13755   2.779   0.311   7.807  0.5051 -0.0760 -0.5510
  128OSM   H12F13756   2.875   0.295   7.859 -0.6101  2.2120  2.5429
  128OSM   H12G13757   2.749   0.215   7.760 -2.4971  1.0679 -1.1942
  128OSM   C13F13758   2.683   0.340   7.929  0.0279 -0.0821  0.1631
  128OSM   H13F13759   2.585   0.357   7.878 -0.5077 -1.9013  0.4970
  128OSM   H13G13760   2.708   0.429   7.990 -1.5464 -0.0384  0.8046
  128OSM   C14F13761   2.674   0.223   8.021  0.1340 -0.5593  0.0315
  128OSM   H14F13762   2.669   0.133   7.956 -1.9294  1.3983 -2.7191
  128OSM   H14G13763   2.581   0.222   8.082 -0.1005 -2.8112 -0.2484
  128OSM   C15F13764   2.803   0.217   8.108  0.0156  0.2394  0.1597
  128OSM   H15F13765   2.837   0.313   8.153  1.7333 -0.5798  0.7211
  128OSM   H15G13766   2.882   0.172   8.044 -1.0218 -1.1328 -0.2034
  128OSM   C16F13767   2.787   0.118   8.220  0.3212  0.0263 -0.5225
  128OSM   H16F13768   2.770   0.013   8.187 -0.5346 -0.4842  1.3877
  128OSM   H16G13769   2.701   0.149   8.283  1.2167  0.1450  0.6580
  128OSM   C17F13770   2.897   0.101   8.328 -0.4225  0.4552  0.4579
  128OSM   H17F13771   2.892   0.201   8.375  0.0052  0.7773 -0.1770
  128OSM   H17G13772   3.005   0.106   8.302 -0.1598 -0.2757  1.3367
  128OSM   C18F13773   2.884  -0.005   8.440 -0.0208 -0.6491  0.2184
  128OSM   H18F13774   2.971  -0.024   8.507 -0.4653  0.2446  1.0748
  128OSM   H18G13775   2.865  -0.104   8.395 -1.8751 -0.4421  0.4950
  128OSM   H18H13776   2.795   0.027   8.498  0.5323  1.2049  0.1169
  129OSM      N13777   0.957   1.321   6.195 -0.2113 -0.7024 -0.7962
  129OSM    C1513778   0.940   1.178   6.183  0.2650  0.5117 -0.1127
  129OSM   H15A13779   1.024   1.126   6.225  0.5853  0.0132 -1.3237
  129OSM   H15B13780   0.935   1.166   6.075 -0.7927  1.1883 -0.1537
  129OSM   H15C13781   0.848   1.147   6.230  0.7602  1.8750  1.8520
  129OSM    C1413782   0.965   1.354   6.345 -0.8477 -0.2544 -0.0139
  129OSM   H14A13783   1.023   1.284   6.404 -0.2742  0.1064 -0.1479
  129OSM   H14B13784   0.871   1.336   6.395 -0.4978 -1.4443  0.2656
  129OSM   H14C13785   1.003   1.454   6.359 -0.8782 -0.1933 -0.3608
  129OSM    C1313786   1.100   1.358   6.144  0.6906  0.5021 -0.0837
  129OSM   H13A13787   1.180   1.301   6.187  0.4572  0.8760  0.8757
  129OSM   H13B13788   1.120   1.458   6.179  5.1668 -0.0115 -0.6994
  129OSM   H13C13789   1.097   1.363   6.036 -0.4424 -3.1527 -0.3590
  129OSM    C1213790   0.864   1.398   6.108  0.1647  1.5399 -0.0634
  129OSM   H12A13791   0.760   1.370   6.108 -0.1382  2.6052 -0.1185
  129OSM   H12B13792   0.896   1.390   6.005 -1.6104 -2.7086 -0.4626
  129OSM    C1113793   0.852   1.549   6.143 -0.0528 -0.3806  0.6727
  129OSM   H11A13794   0.817   1.550   6.249 -0.0255  1.7002  0.7034
  129OSM   H11B13795   0.775   1.581   6.069  0.7166 -0.1896 -0.0639
  129OSM      P13796   0.957   1.774   6.120 -0.1894  0.0515 -0.3765
  129OSM    O1313797   1.089   1.835   6.114 -0.3145  0.2950 -0.4109
  129OSM    O1413798   0.852   1.817   6.023 -0.5048 -0.4338 -0.4279
  129OSM    O1113799   0.900   1.791   6.267  0.3472 -0.2101 -0.0756
  129OSM    O1213800   0.974   1.615   6.121  0.2746 -0.3553  0.4389
  129OSM    C1S13801   0.927   1.908   6.348 -0.1853  0.4072  0.0019
  129OSM    H1S13802   0.854   1.988   6.323  0.0129 -0.3125 -3.4705
  129OSM    H1T13803   1.026   1.951   6.322 -0.0177  0.0814  0.0891
  129OSM     NF13804   0.907   1.986   6.575  0.5738 -0.5931  0.3790
  129OSM    HNF13805   0.986   2.019   6.626 -1.0325  0.6279  2.2226
  129OSM    C2S13806   0.919   1.865   6.499 -0.5912  0.5609  0.3218
  129OSM    H2S13807   0.826   1.804   6.502 -2.2209  2.9078  0.9135
  129OSM    C3S13808   1.038   1.771   6.542 -0.4616  0.0060 -0.0443
  129OSM    H3S13809   1.132   1.829   6.541 -0.9897  0.9618  1.9859
  129OSM     O313810   1.061   1.664   6.449  0.1383 -0.0016 -0.0175
  129OSM    HO313811   1.008   1.676   6.370  0.9310  0.3374 -0.5130
  129OSM    C4S13812   1.022   1.722   6.687 -0.8281  1.1794 -0.6432
  129OSM    H4S13813   1.046   1.799   6.762  0.3543 -1.1362  1.4777
  129OSM    C5S13814   0.978   1.597   6.722 -0.2887  0.1937 -0.1158
  129OSM    H5S13815   0.931   1.532   6.647 -1.4646  1.0872 -0.1855
  129OSM    C6S13816   0.965   1.542   6.860  0.3981  0.2152 -0.7900
  129OSM    H6S13817   1.022   1.449   6.884 -2.7829 -1.3455  1.3841
  129OSM    H6T13818   0.863   1.498   6.864  0.6936 -0.8099 -2.8633
  129OSM    C7S13819   1.005   1.636   6.973 -0.3216  0.2719  0.0656
  129OSM    H7S13820   0.937   1.724   6.979 -0.1007  0.3497  2.1721
  129OSM    H7T13821   1.109   1.667   6.949 -0.8341  0.8766 -1.5282
  129OSM    C8S13822   1.005   1.595   7.116  0.4237 -0.0255  0.1186
  129OSM    H8S13823   1.075   1.509   7.126 -1.1192 -1.2826  0.5954
  129OSM    H8T13824   0.913   1.536   7.134  0.2153 -0.2183 -1.4951
  129OSM    C9S13825   1.057   1.709   7.213  0.0775  0.0170  0.2386
  129OSM    H9S13826   0.982   1.790   7.201 -0.3091 -0.8036 -5.4680
  129OSM    H9T13827   1.155   1.749   7.180  0.2381  0.5447  1.3054
  129OSM   C10S13828   1.069   1.666   7.358 -0.3695 -0.8240  0.2596
  129OSM   H10S13829   1.142   1.584   7.372  0.2071 -0.2927  0.4369
  129OSM   H10T13830   0.973   1.621   7.390  0.9577 -4.5291 -0.5110
  129OSM   C11S13831   1.107   1.781   7.454  0.2375 -0.5003 -0.1464
  129OSM   H11S13832   1.033   1.863   7.439 -1.8594 -2.6854 -2.8846
  129OSM   H11T13833   1.208   1.807   7.414 -0.4250  1.2774 -0.7693
  129OSM   C12S13834   1.097   1.735   7.596 -0.0642  0.6819  0.5397
  129OSM   H12S13835   1.162   1.647   7.617 -0.4530 -0.6829 -3.1711
  129OSM   H12T13836   0.991   1.713   7.620 -0.4532  1.1833 -0.6488
  129OSM   C13S13837   1.139   1.842   7.705 -0.1123 -0.5077  0.0997
  129OSM   H13S13838   1.069   1.927   7.691 -1.5957 -2.0238 -2.6423
  129OSM   H13T13839   1.239   1.872   7.669 -0.2271 -2.7305 -2.4754
  129OSM   C14S13840   1.137   1.783   7.847  0.4890 -1.1394 -0.0164
  129OSM   H14S13841   1.210   1.702   7.864  1.1902 -0.4045  0.5795
  129OSM   H14T13842   1.036   1.746   7.873 -0.5417  0.3267 -1.6690
  129OSM   C15S13843   1.171   1.893   7.943 -0.1431  0.2456 -0.8266
  129OSM   H15S13844   1.120   1.988   7.914 -0.3548  0.4134  0.0550
  129OSM   H15T13845   1.277   1.926   7.946 -0.4883  1.3955 -0.4322
  129OSM   C16S13846   1.138   1.857   8.089 -0.0208  0.3462 -0.3149
  129OSM   H16S13847   1.029   1.839   8.092  0.2897 -1.8043  0.2208
  129OSM   H16T13848   1.172   1.940   8.154 -2.2584  2.3241 -1.5425
  129OSM   C17S13849   1.179   1.716   8.141 -0.4554 -1.2519  0.0276
  129OSM   H17S13850   1.290   1.716   8.131 -0.4061 -0.1696  0.4395
  129OSM   H17T13851   1.132   1.635   8.081  0.3105 -2.4021  0.9203
  129OSM   C18S13852   1.144   1.679   8.286  0.1185  0.7276  0.0756
  129OSM   H18S13853   1.185   1.577   8.305  0.6399  0.7171 -1.0487
  129OSM   H18T13854   1.034   1.681   8.300  0.2134 -0.3282  1.2193
  129OSM   H18U13855   1.194   1.747   8.358  0.2831  0.8480 -0.1539
  129OSM    C1F13856   0.798   2.063   6.570 -0.0010  0.6059  0.2024
  129OSM     OF13857   0.695   2.006   6.529  0.3542 -0.2506 -0.3396
  129OSM    C2F13858   0.805   2.208   6.613  0.9633 -0.3450 -0.2233
  129OSM    H2F13859   0.877   2.268   6.554 -0.3306  1.3832 -0.1231
  129OSM    H2G13860   0.828   2.211   6.722  1.0175  0.3055 -0.2437
  129OSM    C3F13861   0.661   2.276   6.592 -0.7261  0.8752  0.1690
  129OSM    H3F13862   0.589   2.225   6.661  1.9568  1.0529  3.3425
  129OSM    H3G13863   0.631   2.258   6.487 -1.9767  0.4652  0.5744
  129OSM    C4F13864   0.664   2.433   6.630  0.5104  0.1365 -0.7406
  129OSM    H4F13865   0.566   2.483   6.614  0.2548 -0.3067 -0.5581
  129OSM    H4G13866   0.741   2.489   6.572 -0.0212  1.7617  0.0660
  129OSM    C5F13867   0.695   2.449   6.785  0.6085 -0.1493  0.2040
  129OSM    H5F13868   0.804   2.435   6.803  0.6627  0.7448  0.6352
  129OSM    H5G13869   0.646   2.366   6.840  0.8389 -0.3799  0.0604
  129OSM    C6F13870   0.649   2.583   6.843  0.4965 -0.3396  0.4832
  129OSM    H6F13871   0.539   2.597   6.838  0.2163 -2.3074  0.2504
  129OSM    H6G13872   0.692   2.677   6.803 -2.1447  0.7433 -0.0292
  129OSM    C7F13873   0.672   2.595   7.001  0.2878 -1.5048  0.0271
  129OSM    H7F13874   0.781   2.585   7.021 -0.0644 -0.1042  3.3051
  129OSM    H7G13875   0.621   2.503   7.039 -0.7913 -1.2066 -0.6579
  129OSM    C8F13876   0.619   2.730   7.058  0.4895  0.3232 -0.0390
  129OSM    H8F13877   0.613   2.724   7.169  0.7530 -2.9267 -0.1008
  129OSM    H8G13878   0.516   2.757   7.025  0.6465  0.4887 -0.4029
  129OSM    C9F13879   0.709   2.835   7.010 -0.0170  0.3843  0.1519
  129OSM    H9F13880   0.689   2.848   6.902 -3.5480 -1.2908  0.4588
  129OSM   C10F13881   0.809   2.902   7.066  0.0468  0.1544  0.1111
  129OSM   H10F13882   0.868   2.971   7.004  0.0628  0.2319  0.2139
  129OSM   C11F13883   0.865   2.884   7.203  0.3168  0.3520 -0.3341
  129OSM   H11F13884   0.967   2.927   7.199  0.1140  0.7349 -2.3370
  129OSM   H11G13885   0.885   2.776   7.218 -0.6709  0.1316 -0.4841
  129OSM   C12F13886   0.781   2.924   7.324 -0.2919  0.0061  0.4315
  129OSM   H12F13887   0.688   2.864   7.318 -0.7356  0.7995 -1.1327
  129OSM   H12G13888   0.753   3.032   7.322 -2.4290 -0.4890 -2.2074
  129OSM   C13F13889   0.853   2.895   7.460 -0.0694 -0.4213 -0.1429
  129OSM   H13F13890   0.932   2.973   7.468 -1.7888  1.3881  0.1001
  129OSM   H13G13891   0.906   2.797   7.458 -1.2451 -1.0725 -0.2336
  129OSM   C14F13892   0.767   2.886   7.590  0.5091  0.0055  0.5426
  129OSM   H14F13893   0.684   2.815   7.570 -0.4734  0.6065  2.2788
  129OSM   H14G13894   0.713   2.983   7.601  1.5798  0.8798 -1.4192
  129OSM   C15F13895   0.845   2.851   7.708 -0.4136  0.9033 -0.1479
  129OSM   H15F13896   0.951   2.884   7.707  0.5601 -1.9568 -1.1817
  129OSM   H15G13897   0.829   2.742   7.725 -2.3356  1.4521  2.1459
  129OSM   C16F13898   0.790   2.922   7.833  0.4749  0.0949  0.2229
  129OSM   H16F13899   0.695   2.868   7.853  1.6280 -1.9790  0.4325
  129OSM   H16G13900   0.767   3.027   7.806 -0.0386  1.1127  4.0994
  129OSM   C17F13901   0.880   2.906   7.960 -1.1021 -0.3194 -0.5536
  129OSM   H17F13902   0.963   2.977   7.942 -0.6083 -0.5748  0.6590
  129OSM   H17G13903   0.918   2.803   7.975  1.1323 -0.0369 -3.3692
  129OSM   C18F13904   0.811   2.952   8.083 -0.3725  0.0248  0.2692
  129OSM   H18F13905   0.734   2.882   8.121  1.0147 -0.6082  2.0327
  129OSM   H18G13906   0.766   3.054   8.075 -0.6360  0.3115  3.9532
  129OSM   H18H13907   0.883   2.967   8.166  2.7879  0.4916 -2.3607
  130OSM      N13908   3.019   0.967   6.093  0.3747 -0.1796  0.2225
  130OSM    C1513909   2.989   1.067   6.197 -0.3566  0.5522 -1.0653
  130OSM   H15A13910   3.005   1.168   6.162 -2.3081  0.7469 -1.5204
  130OSM   H15B13911   3.043   1.051   6.289 -1.9391  1.5257  0.0902
  130OSM   H15C13912   2.888   1.080   6.233  0.5039  0.4257  1.6164
  130OSM    C1413913   3.007   0.826   6.137  0.0376  0.7156 -0.0445
  130OSM   H14A13914   3.090   0.799   6.201 -1.0199  0.1534  1.1177
  130OSM   H14B13915   3.017   0.767   6.047  0.7937 -0.3902  0.7310
  130OSM   H14C13916   2.916   0.794   6.185  0.6824  0.4030  1.0147
  130OSM    C1313917   2.920   0.998   5.984  0.1989  0.3752 -0.7039
  130OSM   H13A13918   2.906   1.102   5.959  0.4584  0.9522  1.4185
  130OSM   H13B13919   2.821   0.978   6.023  0.9787 -1.4348  0.4340
  130OSM   H13C13920   2.927   0.938   5.894  1.7038 -0.4696 -0.0559
  130OSM    C1213921   3.155   0.996   6.030  0.5193  0.3618  1.1460
  130OSM   H12A13922   3.148   1.096   5.988  1.6869  0.8825  2.1389
  130OSM   H12B13923   3.177   0.922   5.955  0.9567 -0.2137  1.8311
  130OSM    C1113924   3.270   0.993   6.131  0.6150  0.0176 -0.2993
  130OSM   H11A13925   3.235   1.044   6.223  0.8036  0.0028 -0.2208
  130OSM   H11B13926   3.352   1.059   6.097 -1.4288  2.8708 -0.0282
  130OSM      P13927   3.399   0.823   6.272  0.0083  0.2746  0.0601
  130OSM    O1313928   3.394   0.678   6.299  0.4655 -0.1286 -0.4213
  130OSM    O1413929   3.536   0.867   6.245  0.4750  0.0233  0.2095
  130OSM    O1113930   3.341   0.904   6.390  0.1394 -0.0413  0.5565
  130OSM    O1213931   3.305   0.859   6.158 -0.0594 -0.6096 -0.2530
  130OSM    C1S13932   3.229   0.867   6.474  0.8151  0.1899  0.4516
  130OSM    H1S13933   3.222   0.757   6.478  2.7445 -0.0095 -0.5993
  130OSM    H1T13934   3.144   0.921   6.428  0.6671 -0.8493 -0.5287
  130OSM     NF13935   3.151   0.893   6.703 -0.2014 -0.3129 -0.1596
  130OSM    HNF13936   3.099   0.964   6.751  2.5092  1.0258  1.0223
  130OSM    C2S13937   3.253   0.935   6.611  0.0988  0.1199 -0.4590
  130OSM    H2S13938   3.355   0.900   6.637 -0.1694  0.6718  1.4979
  130OSM    C3S13939   3.266   1.089   6.599 -0.5184 -0.2009 -0.6306
  130OSM    H3S13940   3.170   1.135   6.565 -0.5211  0.7162  0.5527
  130OSM     O313941   3.341   1.135   6.486  0.2421 -0.2603 -0.1673
  130OSM    HO313942   3.373   1.056   6.443  2.7237  0.3996  0.2943
  130OSM    C4S13943   3.306   1.150   6.740 -0.4278 -0.4754 -0.4045
  130OSM    H4S13944   3.216   1.180   6.796 -0.2828 -0.0581 -0.3892
  130OSM    C5S13945   3.431   1.158   6.798  0.0019 -0.9032  0.5891
  130OSM    H5S13946   3.523   1.128   6.745  0.7537 -0.2023  1.4658
  130OSM    C6S13947   3.452   1.207   6.937 -0.5700  0.0313  0.1425
  130OSM    H6S13948   3.362   1.257   6.977  1.3469  2.5290  1.6731
  130OSM    H6T13949   3.532   1.282   6.920  1.1915 -1.9020 -0.6155
  130OSM    C7S13950   3.479   1.101   7.047 -0.0890 -0.3538 -0.1257
  130OSM    H7S13951   3.582   1.065   7.022  1.1529  3.5325 -1.3464
  130OSM    H7T13952   3.407   1.017   7.035 -1.0297 -0.3673  4.1407
  130OSM    C8S13953   3.459   1.158   7.186 -0.5007  0.1771 -0.0792
  130OSM    H8S13954   3.377   1.232   7.200 -0.1763  0.2607  1.4922
  130OSM    H8T13955   3.551   1.219   7.202 -1.2118  1.8183 -1.7846
  130OSM    C9S13956   3.431   1.045   7.284 -0.5975  0.1152  0.1525
  130OSM    H9S13957   3.501   0.960   7.300 -0.1715 -0.1791 -2.7171
  130OSM    H9T13958   3.330   1.001   7.276 -0.8814  0.6788  0.4935
  130OSM   C10S13959   3.439   1.110   7.427 -0.3024  0.9101  0.3025
  130OSM   H10S13960   3.365   1.192   7.438  0.0552  1.1411  1.0436
  130OSM   H10T13961   3.541   1.154   7.427  0.4706 -0.8035 -0.1350
  130OSM   C11S13962   3.429   1.007   7.542  0.1099  0.7627 -0.5179
  130OSM   H11S13963   3.525   0.956   7.522  1.5761  3.3838 -0.5947
  130OSM   H11T13964   3.340   0.941   7.544  0.6889 -0.0651 -1.2489
  130OSM   C12S13965   3.442   1.059   7.680  0.2572  0.6246 -0.8272
  130OSM   H12S13966   3.341   1.092   7.713  0.9543  0.6936  1.3705
  130OSM   H12T13967   3.514   1.142   7.692  0.2673  0.6019 -0.7294
  130OSM   C13S13968   3.500   0.942   7.780 -0.2631  0.5276  0.0633
  130OSM   H13S13969   3.597   0.903   7.745 -0.3547 -0.3809  0.7764
  130OSM   H13T13970   3.433   0.853   7.779 -0.0555  0.2800  2.3139
  130OSM   C14S13971   3.527   0.988   7.919 -0.2294  0.0527 -0.3895
  130OSM   H14S13972   3.615   1.055   7.922 -0.1508  0.0582  3.5811
  130OSM   H14T13973   3.549   0.896   7.978 -3.3591 -0.4256  0.2382
  130OSM   C15S13974   3.409   1.046   7.996 -0.2642  0.3458 -0.1253
  130OSM   H15S13975   3.336   0.967   8.022  1.4502 -1.4182 -0.4268
  130OSM   H15T13976   3.356   1.122   7.936  1.6528  2.1521  0.3413
  130OSM   C16S13977   3.459   1.115   8.123  0.1950 -1.3316 -0.4767
  130OSM   H16S13978   3.384   1.182   8.171  1.4504  2.0435 -2.8628
  130OSM   H16T13979   3.542   1.184   8.097 -0.1138 -0.5335  0.5967
  130OSM   C17S13980   3.501   1.030   8.239 -0.3137  0.1729 -0.1132
  130OSM   H17S13981   3.558   0.947   8.192 -2.3324 -0.6680 -1.1941
  130OSM   H17T13982   3.408   0.983   8.276 -1.6483  1.8761 -1.1804
  130OSM   C18S13983   3.590   1.103   8.344 -0.5556  0.1290 -0.3503
  130OSM   H18S13984   3.644   1.028   8.406  0.3765 -0.6152 -2.0026
  130OSM   H18T13985   3.523   1.165   8.407  0.3232  0.2045  0.5195
  130OSM   H18U13986   3.670   1.166   8.300 -0.8042  1.0588  0.4922
  130OSM    C1F13987   3.147   0.766   6.757  1.4343  0.3721 -0.1091
  130OSM     OF13988   3.223   0.685   6.709  0.6991 -0.0247  0.2653
  130OSM    C2F13989   3.052   0.734   6.869 -1.1470  0.2888 -0.3309
  130OSM    H2F13990   3.053   0.624   6.887  0.2104  0.3496  0.1395
  130OSM    H2G13991   2.949   0.751   6.831 -1.0610  0.8755 -0.3061
  130OSM    C3F13992   3.078   0.813   6.997  0.5668 -0.8334  0.0551
  130OSM    H3F13993   2.994   0.786   7.065  0.6970 -1.7675 -0.1483
  130OSM    H3G13994   3.072   0.923   6.982 -2.7730 -0.9732 -0.4147
  130OSM    C4F13995   3.214   0.783   7.062 -0.0542 -0.2175 -0.2285
  130OSM    H4F13996   3.224   0.859   7.143 -0.9987  0.1875 -0.4664
  130OSM    H4G13997   3.292   0.805   6.986 -0.7523 -0.7241 -1.1069
  130OSM    C5F13998   3.222   0.646   7.127 -0.2943 -0.3871  0.6012
  130OSM    H5F13999   3.327   0.618   7.147 -0.0996 -0.5851 -0.6416
  130OSM    H5G14000   3.186   0.571   7.053  0.7065 -2.1983  1.8489
  130OSM    C6F14001   3.148   0.637   7.264 -0.4188 -0.4270 -0.2230
  130OSM    H6F14002   3.129   0.527   7.268  1.2196 -0.8168 -1.7770
  130OSM    H6G14003   3.046   0.680   7.267 -0.8755 -1.3522 -1.4459
  130OSM    C7F14004   3.232   0.680   7.390  0.1297  0.1714 -0.1374
  130OSM    H7F14005   3.260   0.787   7.383  1.2004 -0.1158 -0.5221
  130OSM    H7G14006   3.329   0.629   7.371 -1.0605 -1.0967 -3.5876
  130OSM    C8F14007   3.166   0.652   7.526  0.8195 -0.2027  0.1978
  130OSM    H8F14008   3.248   0.666   7.600  2.4572 -1.2024 -1.3561
  130OSM    H8G14009   3.127   0.549   7.541  0.6581  0.0627  1.8002
  130OSM    C9F14010   3.047   0.742   7.555 -0.4556  0.3606  0.3721
  130OSM    H9F14011   2.971   0.736   7.476  1.3748 -0.1113 -1.4430
  130OSM   C10F14012   3.027   0.821   7.658  0.1910  0.2186 -0.1122
  130OSM   H10F14013   2.938   0.885   7.667  0.2918  0.4517 -0.6983
  130OSM   C11F14014   3.121   0.828   7.773  0.1294  0.7546 -0.7000
  130OSM   H11F14015   3.085   0.909   7.841  0.3236 -0.6214  1.1384
  130OSM   H11G14016   3.219   0.871   7.746  0.4687  0.0515 -0.6157
  130OSM   C12F14017   3.139   0.692   7.859  0.4344  0.3511 -0.0203
  130OSM   H12F14018   3.163   0.602   7.799 -1.0823  0.8509 -1.4506
  130OSM   H12G14019   3.037   0.682   7.900 -0.9014  3.9855 -1.9516
  130OSM   C13F14020   3.240   0.702   7.977  0.6183  0.8941 -0.1878
  130OSM   H13F14021   3.195   0.785   8.036  0.2417  0.7679 -0.2958
  130OSM   H13G14022   3.342   0.733   7.948  1.1023 -0.2199  0.2304
  130OSM   C14F14023   3.244   0.563   8.049 -0.2396 -0.2432 -0.3584
  130OSM   H14F14024   3.296   0.493   7.980 -0.8507  0.9138 -2.0502
  130OSM   H14G14025   3.139   0.527   8.048  0.2683 -1.8791  0.7316
  130OSM   C15F14026   3.312   0.572   8.189  0.1051 -0.7487 -0.2246
  130OSM   H15F14027   3.306   0.474   8.241 -1.1112  0.4895  2.1468
  130OSM   H15G14028   3.255   0.643   8.253 -0.6030 -3.1076  1.9371
  130OSM   C16F14029   3.450   0.618   8.186 -0.2141 -0.2989  0.0124
  130OSM   H16F14030   3.456   0.727   8.165  0.6187 -0.4258 -0.4893
  130OSM   H16G14031   3.497   0.579   8.093  0.6822 -1.7449  1.0338
  130OSM   C17F14032   3.541   0.582   8.309 -0.1022  0.3445  0.3345
  130OSM   H17F14033   3.645   0.584   8.268 -0.4842  1.3173 -0.6405
  130OSM   H17G14034   3.525   0.476   8.338 -1.5332  1.0228  2.2552
  130OSM   C18F14035   3.509   0.669   8.421 -0.0212 -0.8538 -0.7833
  130OSM   H18F14036   3.405   0.650   8.457 -1.0179 -1.0060 -3.5110
  130OSM   H18G14037   3.520   0.778   8.403 -0.1640 -0.5044  1.0508
  130OSM   H18H14038   3.568   0.643   8.511 -0.2078  0.9610 -0.0939
  131OSM      N14039   2.839   3.429   6.129 -0.6328  0.1445  0.6446
  131OSM    C1514040   2.914   3.354   6.019 -0.2462  0.2223  0.8455
  131OSM   H15A14041   2.864   3.331   5.926  1.1267  2.5277 -0.5647
  131OSM   H15B14042   2.935   3.261   6.070  1.0790 -0.3085 -0.5801
  131OSM   H15C14043   3.007   3.400   5.992  1.2558 -0.8314  3.7748
  131OSM    C1414044   2.832   3.573   6.078  0.1359  0.3459 -0.2843
  131OSM   H14A14045   2.779   3.642   6.142 -0.3971 -0.1518 -0.1836
  131OSM   H14B14046   2.784   3.578   5.982  0.5038  3.2852 -0.4034
  131OSM   H14C14047   2.932   3.613   6.071 -0.0058  0.7660  0.0240
  131OSM    C1314048   2.707   3.369   6.141 -0.4831  0.0271 -0.1128
  131OSM   H13A14049   2.653   3.410   6.225 -0.6817 -0.0210 -0.2157
  131OSM   H13B14050   2.710   3.261   6.147  0.3273  0.1138  1.4684
  131OSM   H13C14051   2.650   3.391   6.052  0.3818  0.4303 -0.5831
  131OSM    C1214052   2.923   3.418   6.258 -0.2074  1.1472 -0.4530
  131OSM   H12A14053   2.878   3.466   6.343  1.9457 -0.8124  1.9623
  131OSM   H12B14054   3.018   3.463   6.235  1.3200 -2.6978 -2.5755
  131OSM    C1114055   2.956   3.274   6.316  0.2274  0.6443  0.3941
  131OSM   H11A14056   2.853   3.234   6.329  0.1116  0.6503 -0.4637
  131OSM   H11B14057   2.993   3.292   6.419 -0.3047 -0.0606  0.7152
  131OSM      P14058   3.028   3.059   6.198 -0.2368 -0.5891  0.6604
  131OSM    O1314059   2.900   3.043   6.122  0.0036  0.4347  0.1568
  131OSM    O1414060   3.154   3.032   6.126  0.0223  0.0080 -0.1118
  131OSM    O1114061   3.008   2.996   6.338  0.2330 -0.0920  0.3270
  131OSM    O1214062   3.040   3.211   6.227 -0.1104 -0.6124  0.4089
  131OSM    C1S14063   3.103   3.010   6.442  0.4393 -0.4593 -0.1232
  131OSM    H1S14064   3.157   3.105   6.428 -0.1258 -0.1075  0.0315
  131OSM    H1T14065   3.180   2.932   6.428 -0.5037 -1.3384 -0.5618
  131OSM     NF14066   3.135   3.043   6.688 -0.1629  0.2598 -0.6265
  131OSM    HNF14067   3.157   2.972   6.755 -0.9183 -0.3673 -1.0192
  131OSM    C2S14068   3.035   3.021   6.580 -0.2246  0.6048  0.0900
  131OSM    H2S14069   2.962   3.104   6.576 -0.0876  0.7674  0.8375
  131OSM    C3S14070   2.945   2.897   6.604 -0.0476 -0.1454  0.0447
  131OSM    H3S14071   3.011   2.810   6.581  2.8380  1.3675  1.9250
  131OSM     O314072   2.839   2.894   6.513  0.1122  0.1383 -0.5095
  131OSM    HO314073   2.869   2.952   6.443 -0.0990  1.0048  0.1101
  131OSM    C4S14074   2.889   2.884   6.745  0.0536  0.4512  0.9388
  131OSM    H4S14075   2.948   2.829   6.820  0.5782  0.3445  0.4523
  131OSM    C5S14076   2.765   2.912   6.791 -0.2946 -0.2473 -0.4894
  131OSM    H5S14077   2.693   2.931   6.711 -0.0544 -0.1640 -0.6869
  131OSM    C6S14078   2.711   2.895   6.930  0.0633 -0.2150  0.3124
  131OSM    H6S14079   2.611   2.849   6.914  0.0139  0.4668 -1.6671
  131OSM    H6T14080   2.694   2.992   6.982  1.3941 -0.0495  0.4705
  131OSM    C7S14081   2.787   2.801   7.022 -0.1694 -0.6720  0.4253
  131OSM    H7S14082   2.884   2.846   7.053 -0.0625  0.3678 -1.3345
  131OSM    H7T14083   2.801   2.702   6.972 -1.1297 -0.3081 -0.5982
  131OSM    C8S14084   2.721   2.785   7.160  0.0905  0.4036  0.4283
  131OSM    H8S14085   2.635   2.715   7.146  1.2068 -0.8381 -0.4533
  131OSM    H8T14086   2.693   2.891   7.175  0.3632  0.7492 -1.3149
  131OSM    C9S14087   2.803   2.729   7.285  0.2207  1.1280  0.4013
  131OSM    H9S14088   2.901   2.781   7.279  1.6895 -1.6021 -0.9946
  131OSM    H9T14089   2.835   2.624   7.271  0.3742  1.2222  0.0111
  131OSM   C10S14090   2.726   2.738   7.416  0.2430  0.6977  0.0737
  131OSM   H10S14091   2.662   2.647   7.428  0.9017  0.3248  0.8520
  131OSM   H10T14092   2.653   2.822   7.408  0.1361  0.5802 -0.2117
  131OSM   C11S14093   2.818   2.752   7.539  0.6115  0.3254 -0.3359
  131OSM   H11S14094   2.868   2.851   7.533  0.2932  0.4630 -0.7343
  131OSM   H11T14095   2.894   2.673   7.526  0.1614 -0.2083  0.1939
  131OSM   C12S14096   2.750   2.747   7.670  0.3351 -0.1087 -0.6111
  131OSM   H12S14097   2.681   2.659   7.666 -0.5141  0.5763 -3.6166
  131OSM   H12T14098   2.683   2.833   7.692 -0.1287 -0.2011 -1.5980
  131OSM   C13S14099   2.845   2.732   7.792  0.5622  0.1811  0.5952
  131OSM   H13S14100   2.929   2.805   7.785 -0.2016  1.0299  0.0869
  131OSM   H13T14101   2.897   2.635   7.778 -0.1515  0.0060 -0.9934
  131OSM   C14S14102   2.774   2.754   7.917 -0.1799 -0.7086 -0.4031
  131OSM   H14S14103   2.671   2.712   7.910 -1.1451  1.3415  0.7890
  131OSM   H14T14104   2.758   2.863   7.933  0.7241 -0.7704  1.1378
  131OSM   C15S14105   2.844   2.699   8.038 -0.0002 -0.0323  0.0985
  131OSM   H15S14106   2.945   2.746   8.040  0.2390 -0.1957 -3.0707
  131OSM   H15T14107   2.846   2.588   8.029  0.0836  0.0718 -1.4628
  131OSM   C16S14108   2.762   2.749   8.167  0.6001 -0.3996  0.0792
  131OSM   H16S14109   2.655   2.741   8.139  0.8784 -2.0055 -0.6501
  131OSM   H16T14110   2.792   2.851   8.198  1.0805 -0.5412  0.0956
  131OSM   C17S14111   2.781   2.652   8.286 -0.0132 -0.5929  0.7280
  131OSM   H17S14112   2.889   2.637   8.308 -0.4220 -1.2829  2.4993
  131OSM   H17T14113   2.745   2.557   8.242 -0.8654  0.5770 -1.2177
  131OSM   C18S14114   2.707   2.688   8.410 -0.7143  0.6441 -0.3568
  131OSM   H18S14115   2.745   2.629   8.496 -0.8579  0.9328 -0.0962
  131OSM   H18T14116   2.598   2.668   8.400 -0.4461 -0.5360 -1.1635
  131OSM   H18U14117   2.718   2.797   8.428 -0.3936  0.3586  1.2731
  131OSM    C1F14118   3.214   3.149   6.696  0.3659 -0.3205  0.0669
  131OSM     OF14119   3.209   3.246   6.621 -0.9971 -0.0073  0.8368
  131OSM    C2F14120   3.309   3.150   6.814  0.0794  0.1223  0.3667
  131OSM    H2F14121   3.396   3.093   6.775  1.3615  0.9962  1.8559
  131OSM    H2G14122   3.261   3.098   6.900  1.2184 -0.8474  0.4368
  131OSM    C3F14123   3.360   3.285   6.864 -0.0463  0.3821  0.9228
  131OSM    H3F14124   3.279   3.353   6.902 -2.6172 -2.3959  0.7862
  131OSM    H3G14125   3.412   3.328   6.776  1.2879  0.0494  1.5252
  131OSM    C4F14126   3.451   3.281   6.986 -0.5798 -0.0180  0.1873
  131OSM    H4F14127   3.482   3.386   7.008 -0.3756  0.0733 -0.5105
  131OSM    H4G14128   3.539   3.215   6.972 -1.2617 -1.0870  0.8057
  131OSM    C5F14129   3.382   3.236   7.118 -0.3329  1.2861  0.3599
  131OSM    H5F14130   3.348   3.133   7.093  0.3934  1.7738 -3.0104
  131OSM    H5G14131   3.291   3.298   7.136 -2.0549 -0.5190 -1.5605
  131OSM    C6F14132   3.482   3.231   7.233  0.0819 -0.3546 -0.0037
  131OSM    H6F14133   3.548   3.320   7.231 -2.0248  1.2705 -0.2565
  131OSM    H6G14134   3.539   3.136   7.232 -0.2754 -0.5755  0.3909
  131OSM    C7F14135   3.403   3.227   7.368  0.2920 -0.4660  0.5455
  131OSM    H7F14136   3.320   3.155   7.353 -0.6093  0.5515  0.5145
  131OSM    H7G14137   3.351   3.322   7.394 -1.5630 -1.3717  0.3657
  131OSM    C8F14138   3.492   3.177   7.482  0.6168  0.5148 -0.1065
  131OSM    H8F14139   3.529   3.076   7.455  2.0900  1.4709 -1.9555
  131OSM    H8G14140   3.417   3.162   7.563  2.1428  1.8184  1.6546
  131OSM    C9F14141   3.612   3.257   7.532  0.4676  0.8187 -0.4930
  131OSM    H9F14142   3.681   3.264   7.447  0.1803  1.7034 -0.6609
  131OSM   C10F14143   3.630   3.308   7.663 -0.4855 -0.3854  0.9663
  131OSM   H10F14144   3.734   3.342   7.677 -0.1926  0.4720 -2.4378
  131OSM   C11F14145   3.547   3.316   7.783 -0.4512 -0.1930 -0.5598
  131OSM   H11F14146   3.503   3.220   7.817  1.3453 -0.5488  0.8993
  131OSM   H11G14147   3.463   3.387   7.765  0.0813  1.2275  2.0062
  131OSM   C12F14148   3.630   3.371   7.893 -0.6711  0.2866 -0.6765
  131OSM   H12F14149   3.558   3.412   7.967 -2.1795  1.5121 -2.7170
  131OSM   H12G14150   3.682   3.463   7.858  1.5055 -1.0135 -1.0318
  131OSM   C13F14151   3.730   3.268   7.945  0.3445 -0.4489 -0.3961
  131OSM   H13F14152   3.822   3.255   7.883  0.6955 -0.0967  0.0400
  131OSM   H13G14153   3.686   3.167   7.952 -1.7995  0.3773 -1.2127
  131OSM   C14F14154   3.789   3.300   8.084 -0.1196 -0.6400 -0.2418
  131OSM   H14F14155   3.881   3.238   8.092 -1.0525 -1.8625  1.8272
  131OSM   H14G14156   3.722   3.269   8.166 -0.3367 -1.1086 -0.5890
  131OSM   C15F14157   3.843   3.438   8.098  0.3524  0.4113  0.9549
  131OSM   H15F14158   3.759   3.511   8.090  0.9017  1.0432  0.8235
  131OSM   H15G14159   3.915   3.461   8.016 -2.1014 -2.4856 -2.3116
  131OSM   C16F14160   3.917   3.459   8.230 -0.5733  1.0019 -0.0285
  131OSM   H16F14161   4.014   3.405   8.228 -0.3002  1.3003  2.1087
  131OSM   H16G14162   3.864   3.411   8.316 -0.0217  1.4522  0.5767
  131OSM   C17F14163   3.940   3.606   8.243  0.8270  0.2436  0.3731
  131OSM   H17F14164   3.844   3.663   8.245  0.5053 -0.3011  1.0948
  131OSM   H17G14165   3.995   3.636   8.152 -2.5321  1.1372 -1.5608
  131OSM   C18F14166   4.024   3.659   8.362  0.8556  0.0980 -0.6582
  131OSM   H18F14167   3.977   3.667   8.463  2.5072  0.9031  0.0872
  131OSM   H18G14168   4.057   3.762   8.340  1.6688 -0.3348 -1.5287
  131OSM   H18H14169   4.108   3.588   8.374 -1.0180 -2.0083  0.9882
  132OSM      N14170   4.289   0.998   6.358  0.5335  0.1205  0.8733
  132OSM    C1514171   4.315   1.075   6.235  0.3240 -0.8067 -0.1573
  132OSM   H15A14172   4.349   1.171   6.268  0.0640 -1.4122  2.0235
  132OSM   H15B14173   4.222   1.095   6.183 -1.0719 -0.3214  2.3357
  132OSM   H15C14174   4.384   1.034   6.163  0.2338 -0.9367 -0.1704
  132OSM    C1414175   4.174   1.064   6.431 -0.1135  0.4337 -0.2704
  132OSM   H14A14176   4.191   1.169   6.451 -0.4232  0.6896 -1.2917
  132OSM   H14B14177   4.163   1.012   6.525  0.2821 -0.6879 -0.8234
  132OSM   H14C14178   4.084   1.054   6.373  0.2040  0.1592 -0.7265
  132OSM    C1314179   4.247   0.858   6.322  0.1096  0.0451 -1.3116
  132OSM   H13A14180   4.324   0.812   6.262  1.1619 -0.1052  0.0783
  132OSM   H13B14181   4.162   0.861   6.257  0.6033 -0.2324 -1.9826
  132OSM   H13C14182   4.224   0.802   6.412 -1.8522 -0.4285 -2.0817
  132OSM    C1214183   4.404   1.003   6.451 -0.1519  0.0444 -0.1355
  132OSM   H12A14184   4.486   0.960   6.396 -0.4617 -1.7050  0.7264
  132OSM   H12B14185   4.382   0.947   6.540 -0.3064 -1.5724 -1.1459
  132OSM    C1114186   4.453   1.144   6.505  0.3905  0.4002 -0.0241
  132OSM   H11A14187   4.547   1.132   6.562  1.1033  1.7679 -0.8474
  132OSM   H11B14188   4.385   1.176   6.587  1.2751 -2.0759  1.8092
  132OSM      P14189   4.610   1.297   6.375 -0.0159 -0.0663 -0.1047
  132OSM    O1314190   4.689   1.183   6.340 -0.2945  0.0532 -0.2221
  132OSM    O1414191   4.610   1.413   6.286 -0.1693 -0.3006 -0.1062
  132OSM    O1114192   4.652   1.338   6.518  0.0405 -0.1167  0.1859
  132OSM    O1214193   4.469   1.242   6.402  0.0202 -0.0349  0.8174
  132OSM    C1S14194   4.605   1.453   6.583 -0.0025  0.0592 -0.1517
  132OSM    H1S14195   4.502   1.478   6.549  0.4128 -1.0766 -2.3915
  132OSM    H1T14196   4.663   1.537   6.539 -2.6371  0.7182 -2.6373
  132OSM     NF14197   4.527   1.543   6.802  0.7072 -0.5047 -0.0044
  132OSM    HNF14198   4.573   1.629   6.822 -1.9758  0.4881  2.5084
  132OSM    C2S14199   4.604   1.433   6.742 -0.1979  0.0445 -0.0177
  132OSM    H2S14200   4.547   1.339   6.757  0.1540 -0.0190  0.9978
  132OSM    C3S14201   4.747   1.420   6.789  0.1446  0.2602 -0.1084
  132OSM    H3S14202   4.789   1.516   6.754  0.0825  1.3817  2.6362
  132OSM     O314203   4.815   1.308   6.733 -0.0011  0.0390 -0.1681
  132OSM    HO314204   4.754   1.278   6.666  0.9098 -1.7396 -0.2554
  132OSM    C4S14205   4.764   1.416   6.934 -0.1956 -0.6248 -0.4174
  132OSM    H4S14206   4.706   1.346   6.996  1.0001 -0.6155  0.7411
  132OSM    C5S14207   4.863   1.480   7.001 -0.6636 -0.3734 -0.0982
  132OSM    H5S14208   4.930   1.546   6.944  0.3353  0.6379  2.1357
  132OSM    C6S14209   4.890   1.480   7.146  0.6348  0.3141 -0.7329
  132OSM    H6S14210   4.903   1.585   7.180 -0.5790  0.1716  0.2401
  132OSM    H6T14211   4.979   1.421   7.175 -0.4037  0.1117  2.5485
  132OSM    C7S14212   4.776   1.421   7.239 -0.6820 -0.3786 -0.0919
  132OSM    H7S14213   4.757   1.314   7.214  3.4664 -0.8344 -2.1730
  132OSM    H7T14214   4.685   1.484   7.228  0.5087  1.2818 -0.7866
  132OSM    C8S14215   4.812   1.425   7.390  0.0747 -0.2589 -0.3341
  132OSM    H8S14216   4.898   1.356   7.402 -0.2160 -0.7384 -0.8922
  132OSM    H8T14217   4.725   1.385   7.446 -0.3231 -0.0498 -0.7898
  132OSM    C9S14218   4.853   1.563   7.455  0.4299 -0.0892  0.1393
  132OSM    H9S14219   4.764   1.625   7.433  1.6628  1.1800 -1.6025
  132OSM    H9T14220   4.940   1.609   7.404 -0.0160  1.7260  0.9247
  132OSM   C10S14221   4.876   1.549   7.608 -0.8131  0.2043  0.4518
  132OSM   H10S14222   4.887   1.440   7.627 -3.0936 -0.4088 -1.3109
  132OSM   H10T14223   4.788   1.576   7.670  0.0053  0.6826  1.4264
  132OSM   C11S14224   4.997   1.633   7.649 -0.1688 -0.0952  0.7808
  132OSM   H11S14225   4.964   1.737   7.628  0.5611  0.5546  2.7060
  132OSM   H11T14226   5.089   1.606   7.593 -0.4928 -1.7065  0.9493
  132OSM   C12S14227   5.037   1.628   7.799 -0.1039 -0.7280  0.2535
  132OSM   H12S14228   5.146   1.637   7.815 -0.5096  1.5582  2.4995
  132OSM   H12T14229   4.997   1.533   7.841  0.2492 -0.9867  0.0056
  132OSM   C13S14230   4.983   1.753   7.883  0.1980  0.2288  0.1652
  132OSM   H13S14231   4.873   1.746   7.874  0.1598 -1.3349  1.3461
  132OSM   H13T14232   5.014   1.842   7.825  1.1997 -1.0041 -1.2607
  132OSM   C14S14233   5.030   1.748   8.023 -0.6896  0.0509 -1.3053
  132OSM   H14S14234   5.036   1.853   8.058  1.0147  1.0850 -4.2447
  132OSM   H14T14235   5.131   1.700   8.024 -0.4284  0.5705  1.0743
  132OSM   C15S14236   4.935   1.676   8.121 -0.4329 -0.4753  0.0276
  132OSM   H15S14237   4.932   1.568   8.098 -1.4472 -0.6775  1.0037
  132OSM   H15T14238   4.832   1.709   8.094  0.1525  1.9279  0.4959
  132OSM   C16S14239   4.967   1.700   8.263  0.0414  0.3964  0.1174
  132OSM   H16S14240   4.959   1.809   8.281  1.2717  1.5118 -4.5409
  132OSM   H16T14241   5.077   1.691   8.271 -0.1382 -0.8562  1.7478
  132OSM   C17S14242   4.873   1.628   8.353  0.7454  0.2587  0.3991
  132OSM   H17S14243   4.900   1.521   8.366 -0.9099 -0.1131  0.9402
  132OSM   H17T14244   4.775   1.639   8.303  1.3752  0.8109 -0.7489
  132OSM   C18S14245   4.867   1.700   8.492 -0.2409  0.6601  0.2121
  132OSM   H18S14246   4.841   1.808   8.493 -3.2250  0.0299  2.1653
  132OSM   H18T14247   4.960   1.680   8.548  0.6262  3.2984 -0.1366
  132OSM   H18U14248   4.786   1.657   8.554  0.4228  0.8951  1.2560
  132OSM    C1F14249   4.397   1.562   6.806 -0.2301 -0.5417 -0.4646
  132OSM     OF14250   4.315   1.479   6.777 -0.8844  0.2584 -0.3628
  132OSM    C2F14251   4.356   1.709   6.835  0.8233  0.3973 -0.1552
  132OSM    H2F14252   4.245   1.709   6.835  0.8192 -0.2885 -0.5014
  132OSM    H2G14253   4.380   1.761   6.739 -0.7830 -0.8790 -1.3053
  132OSM    C3F14254   4.390   1.776   6.967  0.3663 -0.3838 -0.7718
  132OSM    H3F14255   4.312   1.852   6.988  1.0464  0.0736  0.1915
  132OSM    H3G14256   4.487   1.829   6.972 -0.4347  1.1350 -0.7973
  132OSM    C4F14257   4.386   1.689   7.093  0.4410 -0.3534  0.2112
  132OSM    H4F14258   4.457   1.606   7.112 -2.6229 -3.0811  0.6672
  132OSM    H4G14259   4.286   1.641   7.087 -0.9789  2.5247 -1.1912
  132OSM    C5F14260   4.377   1.767   7.224 -0.8141  0.0649 -0.2703
  132OSM    H5F14261   4.294   1.840   7.225 -0.0515  0.9714 -0.8728
  132OSM    H5G14262   4.475   1.820   7.224  0.1715 -1.6776  0.6162
  132OSM    C6F14263   4.354   1.680   7.344 -0.4317 -0.0201 -0.3883
  132OSM    H6F14264   4.429   1.599   7.348  1.6081  1.7816 -0.2060
  132OSM    H6G14265   4.250   1.644   7.326 -0.6068  0.2606  0.0187
  132OSM    C7F14266   4.374   1.752   7.481 -0.1545 -0.1915  0.4816
  132OSM    H7F14267   4.292   1.827   7.488  0.2230  0.3253 -0.4623
  132OSM    H7G14268   4.468   1.811   7.488 -0.5492  0.8558 -2.0167
  132OSM    C8F14269   4.349   1.662   7.602 -0.0512  0.5185 -0.0978
  132OSM    H8F14270   4.251   1.616   7.581  0.9707 -0.9095 -2.0665
  132OSM    H8G14271   4.329   1.713   7.698  1.2642  0.4558  0.2358
  132OSM    C9F14272   4.455   1.551   7.609 -0.0451 -0.0033  0.3535
  132OSM    H9F14273   4.501   1.519   7.514 -1.9661 -0.0880 -0.5864
  132OSM   C10F14274   4.522   1.507   7.719  0.4826 -0.3066  0.2041
  132OSM   H10F14275   4.608   1.440   7.704 -0.7621 -1.9232  0.0063
  132OSM   C11F14276   4.500   1.538   7.860  0.1534 -0.1884 -0.5394
  132OSM   H11F14277   4.473   1.645   7.875 -1.1402 -0.7781  1.9022
  132OSM   H11G14278   4.593   1.528   7.921  1.0135  0.0350 -1.7630
  132OSM   C12F14279   4.396   1.454   7.936  0.2734 -0.2805 -0.6709
  132OSM   H12F14280   4.422   1.347   7.920  0.6565  0.0531 -2.5713
  132OSM   H12G14281   4.300   1.473   7.884  0.0487  0.6877  0.0777
  132OSM   C13F14282   4.386   1.497   8.087 -0.9280 -0.3495 -0.2311
  132OSM   H13F14283   4.363   1.605   8.095  0.1672 -0.0781 -0.5435
  132OSM   H13G14284   4.485   1.484   8.136 -2.1623 -3.1693  1.7854
  132OSM   C14F14285   4.292   1.423   8.181  1.0677  0.2986 -0.3509
  132OSM   H14F14286   4.183   1.413   8.158  1.2501  0.1893 -1.2190
  132OSM   H14G14287   4.290   1.474   8.279  1.8172  1.0518 -0.7247
  132OSM   C15F14288   4.345   1.282   8.230  0.8579 -0.7813 -0.2801
  132OSM   H15F14289   4.451   1.270   8.199 -0.1136 -2.2723 -3.4541
  132OSM   H15G14290   4.290   1.207   8.170  0.5156 -1.8689  1.3454
  132OSM   C16F14291   4.325   1.258   8.381 -0.3033  0.1638  0.0889
  132OSM   H16F14292   4.215   1.248   8.394 -0.2332 -1.2718 -0.2895
  132OSM   H16G14293   4.364   1.347   8.435  1.6346 -1.7196  1.9665
  132OSM   C17F14294   4.406   1.139   8.427  0.2822  0.0708 -0.2816
  132OSM   H17F14295   4.513   1.167   8.414 -0.0123  0.6734 -1.5546
  132OSM   H17G14296   4.375   1.055   8.361 -0.0651  0.1467 -0.2167
  132OSM   C18F14297   4.366   1.097   8.571  0.3077 -0.0872 -0.2954
  132OSM   H18F14298   4.259   1.072   8.587  0.1223  0.1471 -1.1331
  132OSM   H18G14299   4.389   1.184   8.636 -0.0004 -0.7512  0.7205
  132OSM   H18H14300   4.425   1.008   8.601 -0.7618 -0.3474  1.1345
  133SAPE     N14301   5.666   4.635  10.880  0.3384 -0.0795  0.2831
  133SAPE   HN114302   5.694   4.542  10.915 -0.1655 -0.1391  0.5413
  133SAPE   HN214303   5.679   4.702  10.958  0.7562  1.4521 -1.0410
  133SAPE   HN314304   5.567   4.613  10.857  0.0767  0.0683  1.2432
  133SAPE   C1214305   5.746   4.695  10.762 -0.3743  0.2484 -0.1389
  133SAPE  H12A14306   5.842   4.641  10.750 -0.1250  0.5027  0.6193
  133SAPE  H12B14307   5.774   4.800  10.786  0.9537  0.0367 -0.7158
  133SAPE   C1114308   5.665   4.685  10.630  0.4602 -0.2950 -0.0992
  133SAPE  H11A14309   5.645   4.577  10.615  1.5783 -0.3639 -1.2871
  133SAPE  H11B14310   5.724   4.721  10.543 -1.9008  1.3915 -1.1081
  133SAPE     P14311   5.408   4.706  10.668  0.2247 -0.2971  0.4342
  133SAPE   O1314312   5.377   4.596  10.574 -0.5245 -0.3832  0.2563
  133SAPE   O1414313   5.412   4.665  10.812  0.1296 -0.0104  0.4468
  133SAPE   O1214314   5.550   4.765  10.634 -0.9229  0.6109  0.2269
  133SAPE   O1114315   5.304   4.817  10.657  0.1841 -0.1593  0.9410
  133SAPE    C114316   5.317   4.940  10.583  0.1975  0.1692  0.2006
  133SAPE    HA14317   5.314   5.021  10.660  2.3363  0.6733 -0.1991
  133SAPE    HB14318   5.420   4.964  10.551  0.2489  2.6381  1.9524
  133SAPE    C214319   5.233   4.953  10.457  0.4801 -0.0005  0.7387
  133SAPE    HS14320   5.129   4.930  10.487  0.1500 -0.2114 -0.5366
  133SAPE   O2114321   5.285   4.863  10.358 -0.8355 -1.1930 -0.5675
  133SAPE   C2114322   5.221   4.746  10.353  0.2902  0.5402 -0.2461
  133SAPE   O2214323   5.122   4.725  10.418  0.9115 -0.2650 -0.5818
  133SAPE   C2214324   5.304   4.641  10.275  0.0704  0.1532 -0.1363
  133SAPE   H2R14325   5.410   4.672  10.275  0.2640 -0.4064  1.5499
  133SAPE   H2S14326   5.296   4.548  10.335  3.3924  0.2401  0.5810
  133SAPE    C314327   5.226   5.095  10.392  0.6091  0.4414  0.2873
  133SAPE    HX14328   5.330   5.129  10.375  0.0995  1.8934 -0.0341
  133SAPE    HY14329   5.189   5.169  10.466  0.4356  3.3113 -2.4518
  133SAPE   O3114330   5.149   5.100  10.264 -0.6960  0.1793 -0.7630
  133SAPE   C3114331   5.023   5.111  10.287 -0.1733 -0.0924 -0.4486
  133SAPE   O3214332   4.973   5.124  10.397  0.3750  0.3427 -0.4124
  133SAPE   C3214333   4.947   5.124  10.153 -0.4803  0.3862  0.1258
  133SAPE   H2X14334   4.946   5.232  10.124 -0.7203 -0.2608 -2.5898
  133SAPE   H2Y14335   4.839   5.105  10.171 -0.3670 -0.0449  0.3619
  133SAPE   C2314336   5.236   4.609  10.137  0.1494 -0.0060 -0.2631
  133SAPE   H3R14337   5.128   4.597  10.155 -0.1101  1.2353 -0.9205
  133SAPE   H3S14338   5.269   4.506  10.110 -1.3179 -0.6349  0.2436
  133SAPE   C2414339   5.255   4.702  10.025 -0.3886 -0.9281  0.0009
  133SAPE   H4R14340   5.362   4.700   9.996 -1.1731 -1.0878 -3.3167
  133SAPE   H4S14341   5.227   4.808  10.046  2.1559  0.3143 -2.2959
  133SAPE   C2514342   5.174   4.651   9.913  0.4061 -0.1887  0.0267
  133SAPE   H5R14343   5.068   4.628   9.932  0.2020  2.2657  2.3938
  133SAPE   C2614344   5.224   4.614   9.792  0.2178 -0.5792  0.8928
  133SAPE   H6R14345   5.145   4.584   9.722  0.6809  0.1942  0.0238
  133SAPE   C2714346   5.366   4.621   9.746  0.6882 -0.7201  0.0701
  133SAPE   H7R14347   5.392   4.530   9.688  0.6214  0.6313 -2.1676
  133SAPE   H7S14348   5.448   4.629   9.821  3.4030 -2.1083 -2.5543
  133SAPE   C2814349   5.376   4.737   9.653  0.3699  0.1289 -0.3107
  133SAPE   H8R14350   5.297   4.811   9.672 -1.4692 -2.0357  1.0518
  133SAPE   C2914351   5.455   4.748   9.544  0.4094 -0.5992 -0.5347
  133SAPE   H9R14352   5.455   4.839   9.483  2.1741  2.3376  3.4088
  133SAPE  C21014353   5.569   4.651   9.506  0.0625  0.1463  0.2317
  133SAPE  H10R14354   5.607   4.591   9.591  0.2982  0.3109  0.2425
  133SAPE  H10S14355   5.658   4.712   9.480  1.1694 -1.3268  0.4881
  133SAPE  C21114356   5.520   4.574   9.386  0.1281  0.1858 -0.0741
  133SAPE  H11R14357   5.498   4.470   9.415 -1.1165  0.6464  0.7394
  133SAPE  C21214358   5.501   4.608   9.255 -0.2174 -0.7655 -0.5242
  133SAPE  H12R14359   5.469   4.526   9.188  2.5062  0.0138 -3.0162
  133SAPE  C21314360   5.515   4.751   9.197 -0.1755 -0.5927  0.4790
  133SAPE  H13R14361   5.563   4.822   9.267  0.9103 -0.5479 -0.2743
  133SAPE  H13S14362   5.415   4.799   9.189  0.8365  2.3842  3.5149
  133SAPE  C21414363   5.583   4.737   9.062 -0.1833  0.7035  0.5170
  133SAPE  H14R14364   5.672   4.672   9.061 -1.6373 -1.4205 -1.5624
  133SAPE  C21514365   5.540   4.795   8.946 -0.3444 -0.9785  0.0415
  133SAPE  H15R14366   5.612   4.789   8.862  0.4959 -0.9241  0.7407
  133SAPE  C21614367   5.431   4.895   8.911 -0.6297  0.0031 -0.7845
  133SAPE  H16R14368   5.478   4.995   8.896  1.4705 -0.7725  0.2882
  133SAPE  H16S14369   5.365   4.913   8.999  0.0058  0.2660 -0.3602
  133SAPE  C21714370   5.349   4.860   8.788 -0.1973  0.4929 -0.4997
  133SAPE  H17R14371   5.413   4.857   8.697 -2.6722 -0.2682 -2.3117
  133SAPE  H17S14372   5.275   4.940   8.767 -0.6695  0.4024  0.7588
  133SAPE  C21814373   5.269   4.730   8.805 -0.5059 -0.6083  0.4331
  133SAPE  H18R14374   5.226   4.734   8.907 -1.4891  1.5105 -0.0140
  133SAPE  H18S14375   5.333   4.642   8.780  0.3166 -0.5229  2.1068
  133SAPE  C21914376   5.136   4.741   8.714 -0.7084 -0.3945 -0.1554
  133SAPE  H19R14377   5.075   4.827   8.749  0.6544 -0.2473  2.0587
  133SAPE  H19S14378   5.073   4.650   8.727 -1.9096  0.4631  0.2628
  133SAPE  C22014379   5.158   4.775   8.562  0.5506  1.0905 -0.1149
  133SAPE  H20R14380   5.070   4.752   8.498 -0.7962  4.0618  0.4991
  133SAPE  H20S14381   5.243   4.716   8.523  0.3628  0.8806 -0.2075
  133SAPE  H20T14382   5.168   4.884   8.541  1.2822  1.1264  0.3879
  133SAPE   C3314383   5.007   5.037  10.041  0.4287  0.4781 -0.5076
  133SAPE   H3X14384   5.015   4.930  10.070 -1.0298 -0.2586 -2.6049
  133SAPE   H3Y14385   5.107   5.073  10.007  0.5364 -0.0322 -0.7498
  133SAPE   C3414386   4.912   5.031   9.925 -0.1611 -0.0036  0.3224
  133SAPE   H4X14387   4.870   5.132   9.903  0.1562  0.4327  1.6116
  133SAPE   H4Y14388   4.829   4.960   9.945 -0.2043  0.1971  0.8816
  133SAPE   C3514389   4.987   4.982   9.803 -0.3336 -0.2333  0.8048
  133SAPE   H5X14390   5.028   4.879   9.809  2.4083  0.7085 -0.3038
  133SAPE   H5Y14391   5.069   5.056   9.800 -1.4465  1.0186  0.2923
  133SAPE   C3614392   4.897   5.000   9.685 -0.2360 -0.4232  0.1269
  133SAPE   H6X14393   4.837   5.094   9.687 -2.6729 -1.8609 -0.9010
  133SAPE   H6Y14394   4.821   4.920   9.681  0.0900 -0.7487  0.3847
  133SAPE   C3714395   4.978   5.010   9.552 -0.0446  0.3299 -1.0486
  133SAPE   H7X14396   5.037   4.918   9.533 -1.5741 -0.8778 -0.1718
  133SAPE   H7Y14397   5.045   5.098   9.559 -1.0113  0.9555  2.9354
  133SAPE   C3814398   4.886   5.033   9.432 -0.2432  0.1217 -0.4111
  133SAPE   H8X14399   4.822   5.115   9.468  1.0305  1.8618 -1.9024
  133SAPE   H8Y14400   4.827   4.939   9.422 -0.1898  0.0201  0.2125
  133SAPE   C3914401   4.964   5.060   9.301  0.3388 -0.0515 -0.0329
  133SAPE   H9X14402   5.034   4.975   9.284 -0.4832 -0.5291 -1.0964
  133SAPE   H9Y14403   5.033   5.147   9.308  0.7909 -0.0542 -3.2457
  133SAPE  C31014404   4.875   5.088   9.177  0.5884  0.0001  0.7601
  133SAPE  H10X14405   4.790   5.152   9.210 -0.1398 -1.0776  1.0230
  133SAPE  H10Y14406   4.834   4.989   9.148  2.7142 -0.4720 -0.8658
  133SAPE  C31114407   4.954   5.156   9.060 -0.3792  0.0279 -0.3730
  133SAPE  H11X14408   5.052   5.105   9.050 -0.4574 -1.0659  2.9434
  133SAPE  H11Y14409   4.966   5.259   9.100  0.9102 -0.7407  1.3363
  133SAPE  C31214410   4.884   5.164   8.928 -0.3105 -0.0607  1.1791
  133SAPE  H12X14411   4.939   5.228   8.855  2.2048 -1.7688  1.4275
  133SAPE  H12Y14412   4.787   5.217   8.933  1.0076  2.6738 -0.3729
  133SAPE  C31314413   4.861   5.024   8.864  0.2233  0.2650 -0.6090
  133SAPE  H13X14414   4.765   4.990   8.910  0.3925  1.5768  0.8123
  133SAPE  H13Y14415   4.942   4.959   8.904  0.5902 -0.0346 -1.8111
  133SAPE  C31414416   4.841   5.025   8.711 -0.2745 -0.3059  0.0663
  133SAPE  H14X14417   4.812   4.923   8.678  0.0388 -1.2632  2.4694
  133SAPE  H14Y14418   4.938   5.059   8.670 -0.6275  0.7278  0.0797
  133SAPE  C31514419   4.733   5.124   8.659 -0.3470  0.3645 -0.1896
  133SAPE  H15X14420   4.720   5.106   8.551  0.9671 -1.6489 -0.0737
  133SAPE  H15Y14421   4.758   5.232   8.665 -0.8618  0.4149  2.0459
  133SAPE  C31614422   4.585   5.121   8.710 -1.0382  0.1525  1.7593
  133SAPE  H16X14423   4.539   5.221   8.698  0.5795  0.6078 -2.4030
  133SAPE  H16Y14424   4.583   5.099   8.819 -0.2607  0.2640  1.8017
  133SAPE  C31714425   4.498   5.010   8.635  0.3396 -0.5034  0.6993
  133SAPE  H17X14426   4.547   4.911   8.649  0.7140 -0.4511 -0.1607
  133SAPE  H17Y14427   4.503   5.029   8.526  0.8107 -0.2037  0.7659
  133SAPE  C31814428   4.346   5.006   8.664 -0.6021 -0.3120  0.2976
  133SAPE  H18X14429   4.343   4.944   8.756 -2.2057  0.4202  0.7889
  133SAPE  H18Y14430   4.288   4.953   8.585 -0.7593  0.1590  0.0930
  133SAPE  H18Z14431   4.298   5.101   8.696 -0.6240 -0.8975  2.1654
  134SAPE     N14432   3.361   0.212  10.889 -0.2115  0.3712  0.4540
  134SAPE   HN114433   3.408   0.302  10.869  3.5537 -1.8897 -2.0767
  134SAPE   HN214434   3.257   0.222  10.894 -0.1093  2.3876 -0.7642
  134SAPE   HN314435   3.390   0.196  10.988 -2.4432  0.4235  1.1889
  134SAPE   C1214436   3.413   0.104  10.804 -0.1900  0.1196  0.4068
  134SAPE  H12A14437   3.332   0.074  10.734 -0.5418  0.9226  0.4524
  134SAPE  H12B14438   3.439   0.018  10.869 -1.0963  0.2773  0.9951
  134SAPE   C1114439   3.531   0.167  10.729 -0.4081  0.7341 -0.5031
  134SAPE  H11A14440   3.486   0.243  10.661 -0.6257  0.8320 -0.2532
  134SAPE  H11B14441   3.579   0.084  10.673 -0.9506 -0.3405  0.5640
  134SAPE     P14442   3.672   0.373  10.820 -0.2870  0.3460  0.2402
  134SAPE   O1314443   3.545   0.438  10.849 -0.0866 -0.1260  0.0989
  134SAPE   O1414444   3.779   0.402  10.923  0.8043  0.6150  0.2568
  134SAPE   O1214445   3.636   0.217  10.817  0.6253  0.0518  0.6421
  134SAPE   O1114446   3.718   0.406  10.670  0.2080 -0.0488 -0.7611
  134SAPE    C114447   3.767   0.307  10.583 -0.1331 -0.6662 -0.4087
  134SAPE    HA14448   3.861   0.267  10.627 -0.9118  0.7391  2.7974
  134SAPE    HB14449   3.687   0.238  10.549 -3.4031  2.2791  0.6577
  134SAPE    C214450   3.817   0.380  10.451 -0.0066  0.3891 -0.3534
  134SAPE    HS14451   3.895   0.451  10.486 -1.0969  0.7306  1.5391
  134SAPE   O2114452   3.702   0.443  10.378 -0.3299  0.2998 -0.1066
  134SAPE   C2114453   3.730   0.535  10.293  0.2379  0.4518  0.2876
  134SAPE   O2214454   3.837   0.591  10.275  0.6222  0.0648  0.0087
  134SAPE   C2214455   3.606   0.564  10.203 -0.3032  0.0184  0.1771
  134SAPE   H2R14456   3.537   0.477  10.201 -0.9874  0.5457 -1.5080
  134SAPE   H2S14457   3.554   0.640  10.265  0.8751  0.6071  0.4669
  134SAPE    C314458   3.890   0.272  10.367  0.5063  0.2037 -0.2027
  134SAPE    HX14459   3.810   0.196  10.348  0.0545  0.7882 -0.6685
  134SAPE    HY14460   3.965   0.218  10.428 -0.6421 -1.6701 -0.3576
  134SAPE   O3114461   3.946   0.308  10.244  0.5318 -0.0348  0.0689
  134SAPE   C3114462   4.070   0.362  10.252  0.2149 -0.1659  0.7834
  134SAPE   O3214463   4.141   0.370  10.351  0.0633  0.2331 -0.0735
  134SAPE   C3214464   4.113   0.408  10.110  0.3360 -0.3301 -0.3601
  134SAPE   H2X14465   4.164   0.506  10.123  0.6623 -0.7952  2.4762
  134SAPE   H2Y14466   4.018   0.406  10.052 -1.3444  1.7695  2.1156
  134SAPE   C2314467   3.634   0.619  10.059 -0.5337  0.2955  0.5048
  134SAPE   H3R14468   3.716   0.693  10.053  0.5027 -0.8280  0.4170
  134SAPE   H3S14469   3.544   0.673  10.022  2.0047  1.8204 -4.2598
  134SAPE   C2414470   3.675   0.508   9.956  0.2539 -0.3093 -0.4553
  134SAPE   H4R14471   3.600   0.428   9.974  0.8161 -0.2193  3.0412
  134SAPE   H4S14472   3.770   0.459   9.988  0.2999  1.2873  2.1455
  134SAPE   C2514473   3.656   0.556   9.815 -0.1982 -0.0797 -0.3394
  134SAPE   H5R14474   3.571   0.622   9.792 -0.0967 -0.1424 -0.9197
  134SAPE   C2614475   3.738   0.531   9.711 -0.1704 -0.2981  0.9852
  134SAPE   H6R14476   3.714   0.583   9.618  1.0801 -0.3779  0.5957
  134SAPE   C2714477   3.864   0.450   9.720 -0.3799  0.5523  0.6819
  134SAPE   H7R14478   3.903   0.434   9.822  1.3232 -2.0207 -0.2645
  134SAPE   H7S14479   3.947   0.506   9.672 -0.5275  0.5820  0.4565
  134SAPE   C2814480   3.847   0.307   9.674 -0.6729 -0.2166  0.4655
  134SAPE   H8R14481   3.824   0.248   9.763 -0.7868 -0.9117 -0.0116
  134SAPE   C2914482   3.860   0.249   9.559  0.1140  0.5211  0.0503
  134SAPE   H9R14483   3.857   0.139   9.549  0.5636  0.4429  0.7036
  134SAPE  C21014484   3.903   0.313   9.437 -1.1666 -0.0818 -0.0374
  134SAPE  H10R14485   4.005   0.357   9.446 -0.1149 -2.6025  1.0580
  134SAPE  H10S14486   3.836   0.397   9.410 -0.5797 -0.0685 -1.5982
  134SAPE  C21114487   3.899   0.225   9.316 -0.8167 -0.7358  0.3972
  134SAPE  H11R14488   3.796   0.228   9.276 -1.2710  1.0737  1.5694
  134SAPE  C21214489   4.005   0.176   9.248  0.5705  0.0686  0.3886
  134SAPE  H12R14490   3.991   0.117   9.156  2.0318 -0.8764  0.7270
  134SAPE  C21314491   4.143   0.190   9.291  0.2462  0.4479 -0.3760
  134SAPE  H13R14492   4.155   0.140   9.390 -2.5791  1.2902  0.4793
  134SAPE  H13S14493   4.157   0.296   9.320 -0.2670  0.0734  1.4213
  134SAPE  C21414494   4.239   0.142   9.188  0.5646  0.3099  0.3349
  134SAPE  H14R14495   4.272   0.038   9.198  1.0044  0.3883 -0.2548
  134SAPE  C21514496   4.298   0.206   9.084 -0.4330  0.7304  0.3199
  134SAPE  H15R14497   4.359   0.145   9.016  0.9750  0.2832  1.9065
  134SAPE  C21614498   4.273   0.352   9.050  0.4269 -0.0779 -0.4139
  134SAPE  H16R14499   4.227   0.408   9.134 -1.7468 -0.1929 -1.4511
  134SAPE  H16S14500   4.196   0.353   8.970  0.9771 -0.5576 -0.9633
  134SAPE  C21714501   4.401   0.420   9.013 -0.0094 -0.2299  0.5330
  134SAPE  H17R14502   4.426   0.374   8.915  0.5160  0.3549  0.3868
  134SAPE  H17S14503   4.477   0.391   9.088  0.3540 -0.8807 -0.0724
  134SAPE  C21814504   4.384   0.574   9.007  0.0994  0.7835  0.0931
  134SAPE  H18R14505   4.487   0.614   9.022  0.9238 -1.4523  0.9571
  134SAPE  H18S14506   4.316   0.600   9.090  1.0136  0.9768  0.8012
  134SAPE  C21914507   4.325   0.624   8.877  0.5105  0.5023  0.3789
  134SAPE  H19R14508   4.328   0.735   8.890  1.1495  0.2545  3.1318
  134SAPE  H19S14509   4.224   0.585   8.855 -0.2350  0.9066  2.8004
  134SAPE  C22014510   4.420   0.587   8.755 -0.0255 -0.5332 -0.4617
  134SAPE  H20R14511   4.388   0.488   8.716 -0.0226 -1.5894  2.0241
  134SAPE  H20S14512   4.527   0.581   8.786  0.4345 -0.1448 -1.8798
  134SAPE  H20T14513   4.414   0.659   8.671 -0.1018 -1.2373 -1.0707
  134SAPE   C3314514   4.212   0.308  10.044 -0.0351 -0.1922  0.6404
  134SAPE   H3X14515   4.167   0.210  10.019  1.0716 -0.5978  0.1908
  134SAPE   H3Y14516   4.301   0.292  10.109 -0.6826  0.8160  1.8231
  134SAPE   C3414517   4.242   0.357   9.899  0.1411 -0.0924 -0.0003
  134SAPE   H4X14518   4.277   0.462   9.892 -0.5356  0.2781  1.6258
  134SAPE   H4Y14519   4.142   0.355   9.852  1.0875 -1.2054 -2.0944
  134SAPE   C3514520   4.337   0.264   9.821 -0.3493  0.5626 -0.6238
  134SAPE   H5X14521   4.298   0.160   9.824  0.4227  0.2187 -1.8310
  134SAPE   H5Y14522   4.427   0.259   9.886 -0.3620 -0.1433 -0.6507
  134SAPE   C3614523   4.382   0.311   9.686 -0.8999 -0.1011  0.4831
  134SAPE   H6X14524   4.405   0.420   9.698 -1.8394  0.1124  0.3804
  134SAPE   H6Y14525   4.303   0.314   9.608 -0.1024 -0.6189 -0.3615
  134SAPE   C3714526   4.498   0.237   9.623 -0.0846  0.0940 -0.2121
  134SAPE   H7X14527   4.492   0.127   9.637  0.9631  0.0794  0.1822
  134SAPE   H7Y14528   4.587   0.271   9.681  0.4561 -1.3562 -0.1562
  134SAPE   C3814529   4.516   0.262   9.474  0.8463 -0.8413  0.1514
  134SAPE   H8X14530   4.522   0.372   9.462  0.4959 -0.7129  1.0692
  134SAPE   H8Y14531   4.427   0.219   9.423  0.1281 -0.1877  0.8195
  134SAPE   C3914532   4.654   0.211   9.415 -0.2273 -0.3426  0.0471
  134SAPE   H9X14533   4.680   0.105   9.436 -0.9518 -0.8238 -1.3153
  134SAPE   H9Y14534   4.733   0.269   9.467  0.3148 -1.0116 -0.0183
  134SAPE  C31014535   4.667   0.250   9.269 -0.0108 -0.3322  0.0053
  134SAPE  H10X14536   4.666   0.361   9.259  0.7263 -0.3352 -0.1145
  134SAPE  H10Y14537   4.576   0.209   9.219  0.5639  0.3897 -1.7187
  134SAPE  C31114538   4.797   0.196   9.201  0.1696 -0.5618  0.8701
  134SAPE  H11X14539   4.802   0.085   9.215  2.5013 -0.8121 -1.1851
  134SAPE  H11Y14540   4.885   0.232   9.259  0.4035  0.0789  0.1345
  134SAPE  C31214541   4.802   0.231   9.047  0.4197  0.2849 -0.7722
  134SAPE  H12X14542   4.905   0.208   9.013 -0.2210 -2.5312 -1.0424
  134SAPE  H12Y14543   4.783   0.341   9.046  0.7554  0.3501 -0.4120
  134SAPE  C31314544   4.705   0.149   8.965 -0.4563 -0.0751 -0.0851
  134SAPE  H13X14545   4.602   0.189   8.981 -0.4819 -0.7517  1.6053
  134SAPE  H13Y14546   4.719   0.042   8.988 -0.9929  0.0440  0.8455
  134SAPE  C31414547   4.725   0.155   8.810  0.0471 -0.6172 -0.4555
  134SAPE  H14X14548   4.628   0.121   8.769 -0.0591  0.4933 -1.1494
  134SAPE  H14Y14549   4.792   0.077   8.769 -2.6770 -2.4804 -1.5943
  134SAPE  C31514550   4.769   0.290   8.747 -0.2532  0.4309  0.3957
  134SAPE  H15X14551   4.875   0.314   8.769 -0.1105  3.4973 -2.7214
  134SAPE  H15Y14552   4.707   0.375   8.783 -0.9951  0.7077 -1.4368
  134SAPE  C31614553   4.756   0.281   8.593 -0.2473 -0.4402  0.3836
  134SAPE  H16X14554   4.671   0.214   8.569 -0.3722 -0.1471 -0.0009
  134SAPE  H16Y14555   4.847   0.222   8.574 -0.3617  0.3610 -3.4653
  134SAPE  C31714556   4.770   0.415   8.524  0.2860  0.2929 -1.0188
  134SAPE  H17X14557   4.836   0.481   8.584 -0.3138  0.2642 -0.3197
  134SAPE  H17Y14558   4.672   0.467   8.523 -1.5042 -2.7978 -1.2030
  134SAPE  C31814559   4.807   0.413   8.372  0.3681  0.7162 -0.2534
  134SAPE  H18X14560   4.829   0.500   8.307  1.7447  0.0968 -0.6399
  134SAPE  H18Y14561   4.730   0.358   8.315 -0.0984 -1.5667  2.3380
  134SAPE  H18Z14562   4.900   0.353   8.365  1.0514  1.6190  0.7018
  135SAPE     N14563   2.803   5.564  10.455  0.0403 -0.0136  0.1927
  135SAPE   HN114564   2.833   5.613  10.542  0.6884  0.4943 -0.3011
  135SAPE   HN214565   2.761   5.470  10.467  0.3218 -0.0131  1.2831
  135SAPE   HN314566   2.888   5.549  10.397  0.3868  1.3015  0.3303
  135SAPE   C1214567   2.705   5.647  10.379 -0.1506 -0.2007  0.1910
  135SAPE  H12A14568   2.687   5.594  10.283  0.7085  1.7961 -1.1481
  135SAPE  H12B14569   2.764   5.738  10.355  0.8759 -0.2457  2.3446
  135SAPE   C1114570   2.590   5.671  10.467 -0.1011 -0.1693 -0.5091
  135SAPE  H11A14571   2.563   5.581  10.526  0.4636  0.5182  0.8570
  135SAPE  H11B14572   2.506   5.692  10.398  0.5142  1.4998 -0.7925
  135SAPE     P14573   2.496   5.893  10.582  0.2275 -0.0477  0.3809
  135SAPE   O1314574   2.360   5.837  10.599  0.1704  0.4162 -0.5020
  135SAPE   O1414575   2.560   5.972  10.693  0.8396 -0.1317  0.0129
  135SAPE   O1214576   2.604   5.772  10.560  0.0947  0.1753  0.5953
  135SAPE   O1114577   2.498   5.962  10.437 -0.5682 -0.3746 -0.1622
  135SAPE    C114578   2.576   6.080  10.423  0.0760 -0.0544  0.3120
  135SAPE    HA14579   2.521   6.167  10.463 -2.1335 -0.4805 -1.5676
  135SAPE    HB14580   2.668   6.085  10.485 -0.2957  2.0049  0.7505
  135SAPE    C214581   2.610   6.119  10.278 -0.4822  0.6143  0.1317
  135SAPE    HS14582   2.668   6.214  10.274 -1.2676  1.0918 -0.1274
  135SAPE   O2114583   2.501   6.114  10.182 -1.0206  0.0917 -0.1450
  135SAPE   C2114584   2.426   6.222  10.195 -0.3566  0.5625  0.4828
  135SAPE   O2214585   2.446   6.316  10.268  0.0297  0.4960  0.3347
  135SAPE   C2214586   2.294   6.191  10.115 -1.0687 -0.7810  0.2843
  135SAPE   H2R14587   2.323   6.128  10.028 -0.9275 -0.0879 -0.1729
  135SAPE   H2S14588   2.236   6.145  10.198 -2.3922  1.3169  0.5866
  135SAPE    C314589   2.708   6.009  10.228  0.7673  0.2789  0.2498
  135SAPE    HX14590   2.657   5.914  10.254  0.7776  0.1077 -0.3413
  135SAPE    HY14591   2.802   6.011  10.287  0.5834 -0.5962  0.5788
  135SAPE   O3114592   2.734   6.020  10.085 -0.7191  0.6622 -0.6209
  135SAPE   C3114593   2.689   5.924  10.001 -0.3180  0.0261  0.1415
  135SAPE   O3214594   2.647   5.816  10.033  0.2950 -0.0821  0.3938
  135SAPE   C3214595   2.698   5.980   9.851 -0.3164 -0.0721  0.1777
  135SAPE   H2X14596   2.776   5.915   9.805  1.3644  3.8020 -2.9575
  135SAPE   H2Y14597   2.729   6.086   9.851 -0.6045  0.0175 -1.0810
  135SAPE   C2314598   2.215   6.312  10.060  0.3025 -0.0062 -0.4063
  135SAPE   H3R14599   2.279   6.392  10.016  2.3078 -0.5774  1.3193
  135SAPE   H3S14600   2.178   6.353  10.156 -0.5175 -0.5417 -0.4881
  135SAPE   C2414601   2.094   6.275   9.972  0.1548 -0.7144 -0.2148
  135SAPE   H4R14602   2.024   6.208  10.027 -0.0854 -0.8612 -0.6964
  135SAPE   H4S14603   2.137   6.206   9.897 -0.0568 -0.3493 -0.6704
  135SAPE   C2514604   2.016   6.395   9.922  0.2339 -0.0022  0.2333
  135SAPE   H5R14605   1.956   6.450   9.996  0.7023 -0.8015  1.2333
  135SAPE   C2614606   2.016   6.443   9.793 -0.0901  0.0059 -0.6293
  135SAPE   H6R14607   1.962   6.536   9.770 -1.5467 -0.5058  0.5244
  135SAPE   C2714608   2.089   6.389   9.674  0.6073 -0.9545 -0.0913
  135SAPE   H7R14609   2.044   6.289   9.658 -0.7651 -0.8519  2.5694
  135SAPE   H7S14610   2.198   6.390   9.696 -0.1469 -0.9263  4.8002
  135SAPE   C2814611   2.073   6.466   9.546  0.8554  0.0088  0.5917
  135SAPE   H8R14612   2.067   6.575   9.558 -0.6623  0.1142 -0.7283
  135SAPE   C2914613   2.047   6.413   9.425  0.3943 -0.0803  0.5483
  135SAPE   H9R14614   2.053   6.478   9.336 -0.9640 -1.4731 -0.6341
  135SAPE  C21014615   2.046   6.264   9.390 -0.0060  0.1587  0.3815
  135SAPE  H10R14616   1.946   6.241   9.348  0.3868 -0.2969 -0.3305
  135SAPE  H10S14617   2.055   6.204   9.482  1.8851  2.6469  1.9495
  135SAPE  C21114618   2.156   6.220   9.302 -0.2042  0.6085 -0.6812
  135SAPE  H11R14619   2.249   6.272   9.331 -0.5945  0.4746  0.8605
  135SAPE  C21214620   2.149   6.136   9.201 -0.0196  0.0499 -0.0273
  135SAPE  H12R14621   2.241   6.120   9.143 -0.1800  0.6374 -0.4534
  135SAPE  C21314622   2.017   6.066   9.156 -0.3331 -0.1174 -0.2688
  135SAPE  H13R14623   1.959   6.127   9.083 -1.0670 -1.3180 -0.7278
  135SAPE  H13S14624   1.946   6.054   9.241  0.0452 -2.3560 -0.2151
  135SAPE  C21414625   2.051   5.932   9.093 -0.2380 -0.5847  0.9317
  135SAPE  H14R14626   2.067   5.848   9.162  0.2882 -1.3470 -0.0867
  135SAPE  C21514627   2.056   5.897   8.960 -0.7359 -0.0917  0.0405
  135SAPE  H15R14628   2.079   5.794   8.929 -2.5981 -0.4156 -0.3744
  135SAPE  C21614629   2.025   5.987   8.846 -0.5016  0.2797 -0.1593
  135SAPE  H16R14630   2.100   5.973   8.765  0.7910 -2.3553  1.3547
  135SAPE  H16S14631   2.006   6.095   8.866 -0.4954  0.6220 -1.8972
  135SAPE  C21714632   1.888   5.940   8.791  0.3013  0.3605 -0.2498
  135SAPE  H17R14633   1.861   5.990   8.695  2.6650 -0.9978 -1.7038
  135SAPE  H17S14634   1.812   5.963   8.869  1.1176  0.7358  0.4405
  135SAPE  C21814635   1.887   5.791   8.753  0.8869  0.6597  0.2018
  135SAPE  H18R14636   1.782   5.789   8.716  0.7009  2.0974  0.5940
  135SAPE  H18S14637   1.891   5.725   8.842 -0.6271  0.9395  0.5034
  135SAPE  C21914638   1.978   5.760   8.641  0.3481  0.5740  0.5684
  135SAPE  H19R14639   2.082   5.745   8.678  0.9006  0.3083 -1.0182
  135SAPE  H19S14640   1.981   5.840   8.564 -1.4040 -0.9055 -1.1148
  135SAPE  C22014641   1.933   5.626   8.571 -0.1491 -0.1661  0.2745
  135SAPE  H20R14642   1.827   5.624   8.538 -1.0794 -1.4272  3.0501
  135SAPE  H20S14643   1.933   5.544   8.645 -1.0786 -1.6338 -1.2833
  135SAPE  H20T14644   2.000   5.600   8.486 -1.3628 -0.1838 -0.7079
  135SAPE   C3314645   2.564   5.976   9.779 -0.3132  0.0825 -0.1343
  135SAPE   H3X14646   2.494   6.030   9.846 -0.4843  0.7978 -0.8683
  135SAPE   H3Y14647   2.536   5.869   9.764  0.1547  0.2072 -2.2143
  135SAPE   C3414648   2.563   6.041   9.642 -0.6206 -0.8998  0.0581
  135SAPE   H4X14649   2.590   6.146   9.667  0.2710 -1.3739  1.1970
  135SAPE   H4Y14650   2.458   6.028   9.608 -0.6477 -1.4874  0.3468
  135SAPE   C3514651   2.660   5.981   9.542  0.1248 -0.0132  0.0342
  135SAPE   H5X14652   2.766   5.983   9.575  0.6529  1.8545 -1.5254
  135SAPE   H5Y14653   2.657   6.055   9.458  0.9795 -0.0726 -0.0534
  135SAPE   C3614654   2.623   5.844   9.480  0.3106 -1.0679  0.5464
  135SAPE   H6X14655   2.576   5.777   9.554  1.9774 -2.4033  0.4613
  135SAPE   H6Y14656   2.720   5.800   9.448  0.6389  0.6280 -0.9299
  135SAPE   C3714657   2.535   5.861   9.360 -0.0026  0.2484 -0.0474
  135SAPE   H7X14658   2.592   5.913   9.280  0.5376 -1.9648 -1.1862
  135SAPE   H7Y14659   2.450   5.927   9.386  0.3324  0.1585  1.3592
  135SAPE   C3814660   2.495   5.726   9.309 -0.6500 -0.6902 -0.0095
  135SAPE   H8X14661   2.438   5.676   9.391  0.3111 -1.6550  0.0853
  135SAPE   H8Y14662   2.588   5.671   9.284  0.4284  1.2205 -0.4196
  135SAPE   C3914663   2.410   5.726   9.177  0.6787  0.3972 -0.1646
  135SAPE   H9X14664   2.468   5.767   9.091  1.5682 -0.3133  0.0793
  135SAPE   H9Y14665   2.323   5.790   9.204  0.4820  0.4883 -0.9858
  135SAPE  C31014666   2.364   5.588   9.145  0.3557 -0.6501  0.2746
  135SAPE  H10X14667   2.319   5.542   9.236  0.2132 -1.4852 -0.2011
  135SAPE  H10Y14668   2.451   5.521   9.125  1.0729 -0.2609  1.9073
  135SAPE  C31114669   2.263   5.581   9.032  0.0955 -1.0739 -0.2284
  135SAPE  H11X14670   2.307   5.638   8.947  0.3521  1.6491  1.5957
  135SAPE  H11Y14671   2.172   5.633   9.068  0.5884  0.8589 -1.6171
  135SAPE  C31214672   2.217   5.431   9.002  0.1188 -0.3396 -0.0606
  135SAPE  H12X14673   2.169   5.394   9.096 -1.1834 -0.4300 -0.7398
  135SAPE  H12Y14674   2.305   5.370   8.972  0.9882  1.9849 -2.6104
  135SAPE  C31314675   2.139   5.411   8.872 -0.4739  0.6611  0.3143
  135SAPE  H13X14676   2.194   5.464   8.791  0.5463  0.1144  0.6340
  135SAPE  H13Y14677   2.046   5.471   8.879 -0.7276  0.2019  0.9000
  135SAPE  C31414678   2.119   5.265   8.841 -0.3811  0.0097  0.5188
  135SAPE  H14X14679   2.067   5.219   8.928 -3.0140 -0.7466 -1.3403
  135SAPE  H14Y14680   2.211   5.204   8.826 -0.4888  0.1195 -0.6793
  135SAPE  C31514681   2.035   5.257   8.716 -0.2580 -0.2489 -0.4042
  135SAPE  H15X14682   1.968   5.345   8.726 -0.4775 -0.5718  1.4678
  135SAPE  H15Y14683   1.964   5.171   8.720 -0.1243 -0.3181  1.3090
  135SAPE  C31614684   2.115   5.255   8.587  0.7008 -0.1726  0.0090
  135SAPE  H16X14685   2.179   5.164   8.584  0.5412 -0.3292  1.0337
  135SAPE  H16Y14686   2.170   5.351   8.580 -1.8848  1.4166  0.1357
  135SAPE  C31714687   2.015   5.262   8.463 -0.4606 -0.7802 -0.1802
  135SAPE  H17X14688   1.937   5.336   8.492 -0.5737 -0.0537 -2.1515
  135SAPE  H17Y14689   1.960   5.166   8.456  1.0837 -1.8965  1.9505
  135SAPE  C31814690   2.082   5.305   8.337 -0.1209 -0.7858  0.0435
  135SAPE  H18X14691   2.179   5.254   8.318  1.1793  1.0262  1.3989
  135SAPE  H18Y14692   2.102   5.414   8.329 -0.1502 -0.8965 -2.5854
  135SAPE  H18Z14693   2.015   5.290   8.249 -0.1280  1.1225 -0.3209
  136SAPE     N14694   6.191   4.520  11.013  0.8906 -0.2029  0.0675
  136SAPE   HN114695   6.242   4.608  10.990 -1.2295  1.7849  2.4607
  136SAPE   HN214696   6.150   4.471  10.931  1.3375 -0.4296 -0.0273
  136SAPE   HN314697   6.112   4.561  11.067  0.1495  0.7216 -1.6376
  136SAPE   C1214698   6.273   4.424  11.096 -0.0589  0.1360 -0.4269
  136SAPE  H12A14699   6.197   4.355  11.140 -0.3246 -0.8458 -2.3085
  136SAPE  H12B14700   6.328   4.473  11.179  2.1898 -1.4479 -0.8822
  136SAPE   C1114701   6.373   4.336  11.018 -0.1821 -0.3029 -0.6226
  136SAPE  H11A14702   6.412   4.260  11.090 -0.6796 -1.4008 -1.4773
  136SAPE  H11B14703   6.452   4.406  10.985 -3.1332  2.0290 -3.4390
  136SAPE     P14704   6.247   4.131  10.909  0.0105 -0.2399  0.4582
  136SAPE   O1314705   6.178   4.120  11.040  0.0925 -0.3034  0.1451
  136SAPE   O1414706   6.151   4.123  10.793 -0.4322 -0.8155 -0.0593
  136SAPE   O1214707   6.322   4.273  10.903  0.0436 -0.2937 -0.1329
  136SAPE   O1114708   6.355   4.012  10.890 -0.8549 -0.0540 -0.2287
  136SAPE    C114709   6.489   4.050  10.870 -0.2612  0.0194 -0.2479
  136SAPE    HA14710   6.531   4.139  10.920  0.2862 -0.1506 -0.3933
  136SAPE    HB14711   6.555   3.975  10.920  0.6524  0.5114 -0.6810
  136SAPE    C214712   6.527   4.053  10.720 -0.0699  0.3495  0.0538
  136SAPE    HS14713   6.638   4.065  10.722  0.4751 -3.4322 -0.9107
  136SAPE   O2114714   6.466   4.165  10.651 -0.1544 -0.4165 -0.0748
  136SAPE   C2114715   6.527   4.285  10.674 -0.0945 -0.8986  0.3612
  136SAPE   O2214716   6.642   4.290  10.717  0.1614  0.3360 -0.0143
  136SAPE   C2214717   6.434   4.402  10.636 -0.3756 -0.7522  0.9222
  136SAPE   H2R14718   6.327   4.371  10.634 -0.3605 -0.7674 -0.1536
  136SAPE   H2S14719   6.447   4.473  10.720 -3.6355 -0.1788  1.0845
  136SAPE    C314720   6.499   3.918  10.661 -0.1114  0.2540 -0.1988
  136SAPE    HX14721   6.397   3.889  10.693  1.0287 -3.2570  0.7165
  136SAPE    HY14722   6.557   3.837  10.711 -0.4527 -0.7093 -1.3255
  136SAPE   O3114723   6.501   3.924  10.518 -0.3341  0.0883 -0.0995
  136SAPE   C3114724   6.612   3.890  10.460 -0.6456  0.1029 -0.1359
  136SAPE   O3214725   6.722   3.877  10.514 -0.1296 -0.2820  0.5733
  136SAPE   C3214726   6.580   3.863  10.313  0.0735  0.3724  0.4682
  136SAPE   H2X14727   6.628   3.945  10.255  0.8949 -0.9963 -0.8731
  136SAPE   H2Y14728   6.472   3.865  10.288  0.2074 -0.5381 -0.2758
  136SAPE   C2314729   6.483   4.471  10.503  0.0798  0.1734 -0.2573
  136SAPE   H3R14730   6.593   4.455  10.504  0.1843  0.8567 -0.3331
  136SAPE   H3S14731   6.459   4.579  10.514  1.3036  0.3680  0.8380
  136SAPE   C2414732   6.410   4.418  10.374 -0.6487  0.2029  0.2425
  136SAPE   H4R14733   6.414   4.309  10.394 -2.0247 -0.0777 -0.8992
  136SAPE   H4S14734   6.476   4.448  10.290  0.0651 -1.3973  0.1941
  136SAPE   C2514735   6.267   4.473  10.365 -0.7691  0.4073 -1.0403
  136SAPE   H5R14736   6.226   4.467  10.467  2.9945 -1.2373  0.5703
  136SAPE   C2614737   6.209   4.506  10.253  0.3184 -0.8699 -0.0183
  136SAPE   H6R14738   6.101   4.524  10.267  0.3493 -0.9054  0.2632
  136SAPE   C2714739   6.270   4.500  10.110  0.6429 -0.0605 -0.4937
  136SAPE   H7R14740   6.294   4.392  10.093  1.0281 -0.4615  2.1430
  136SAPE   H7S14741   6.371   4.546  10.101  0.7987 -0.1088  0.8054
  136SAPE   C2814742   6.159   4.557  10.025 -0.2082 -0.3257 -0.0051
  136SAPE   H8R14743   6.100   4.638  10.069  0.1112 -1.3386  2.4452
  136SAPE   C2914744   6.126   4.532   9.898  0.3920  0.2494 -0.0185
  136SAPE   H9R14745   6.046   4.593   9.854 -0.8006  0.1760  1.9043
  136SAPE  C21014746   6.191   4.430   9.811  0.4780 -0.3197 -0.3122
  136SAPE  H10R14747   6.146   4.336   9.851  0.8986  0.0076  0.9803
  136SAPE  H10S14748   6.299   4.424   9.837  0.2214 -0.7530  0.7108
  136SAPE  C21114749   6.180   4.448   9.659 -0.3729  0.3399  0.3496
  136SAPE  H11R14750   6.247   4.520   9.609 -3.0554  0.1010 -4.1653
  136SAPE  C21214751   6.091   4.399   9.572  0.1233 -0.4810  0.4818
  136SAPE  H12R14752   6.107   4.419   9.465  1.1853 -1.6632  0.3891
  136SAPE  C21314753   5.988   4.306   9.599  0.2483  0.5424  0.2962
  136SAPE  H13R14754   6.012   4.260   9.698  1.2009  2.5426  1.0361
  136SAPE  H13S14755   5.989   4.223   9.525  0.0701  1.2839 -0.5388
  136SAPE  C21414756   5.840   4.356   9.595  0.2661  0.7384  0.6027
  136SAPE  H14R14757   5.800   4.393   9.500 -0.3184  0.8835  0.9023
  136SAPE  C21514758   5.748   4.343   9.694  0.1037  0.4118  0.5471
  136SAPE  H15R14759   5.650   4.391   9.678  0.1886  0.4226  0.0483
  136SAPE  C21614760   5.772   4.282   9.823 -0.0382  0.3262 -0.2029
  136SAPE  H16R14761   5.875   4.243   9.833 -0.4009 -1.0285 -1.3237
  136SAPE  H16S14762   5.703   4.196   9.840  2.3845 -1.7125  0.0106
  136SAPE  C21714763   5.763   4.394   9.938 -0.1137  0.0619 -0.6284
  136SAPE  H17R14764   5.658   4.430   9.936 -0.6923 -1.6014 -1.6124
  136SAPE  H17S14765   5.823   4.486   9.919 -0.5801  1.2357  2.7258
  136SAPE  C21814766   5.812   4.348  10.081  0.1020 -0.3608  0.1174
  136SAPE  H18R14767   5.910   4.300  10.060 -0.2368 -1.5052  1.0927
  136SAPE  H18S14768   5.752   4.267  10.127 -0.4424  0.8056  1.5686
  136SAPE  C21914769   5.818   4.468  10.177 -0.2328 -0.4070  0.3057
  136SAPE  H19R14770   5.893   4.535  10.130  0.6667 -1.2842  0.4513
  136SAPE  H19S14771   5.849   4.430  10.276  0.7707 -1.2498 -0.3050
  136SAPE  C22014772   5.691   4.546  10.192  1.0649  0.1018 -0.9652
  136SAPE  H20R14773   5.697   4.631  10.263  0.7503  0.4130 -1.3016
  136SAPE  H20S14774   5.612   4.478  10.230  2.2616 -0.6237  0.2902
  136SAPE  H20T14775   5.666   4.589  10.092 -1.9173 -1.0993 -0.8613
  136SAPE   C3314776   6.657   3.734  10.265  0.2013  0.1587 -0.1647
  136SAPE   H3X14777   6.623   3.645  10.321 -0.6668 -0.0755 -1.0393
  136SAPE   H3Y14778   6.767   3.740  10.276  0.2862 -0.9419 -0.3210
  136SAPE   C3414779   6.650   3.707  10.108  0.0893 -0.0315 -0.6612
  136SAPE   H4X14780   6.544   3.694  10.077  0.0512 -1.3252 -0.0470
  136SAPE   H4Y14781   6.696   3.607  10.090 -0.2842 -0.6488  1.4672
  136SAPE   C3514782   6.725   3.812  10.023  0.2553 -0.5259 -0.3444
  136SAPE   H5X14783   6.829   3.814  10.061  0.5466 -0.6050 -1.1187
  136SAPE   H5Y14784   6.680   3.910  10.048  0.4356 -0.2297 -1.1333
  136SAPE   C3614785   6.711   3.780   9.875 -0.1391 -0.7601  0.4248
  136SAPE   H6X14786   6.603   3.768   9.852  0.1318 -2.1712 -0.1556
  136SAPE   H6Y14787   6.763   3.684   9.855  1.0852  0.1136 -0.7689
  136SAPE   C3714788   6.764   3.880   9.779  0.2956 -0.0278  0.4242
  136SAPE   H7X14789   6.865   3.912   9.812 -0.9185  2.4359  2.1102
  136SAPE   H7Y14790   6.706   3.975   9.777  3.0104  1.7406 -1.4774
  136SAPE   C3814791   6.781   3.831   9.636 -0.1383  0.3128  1.0275
  136SAPE   H8X14792   6.685   3.817   9.580 -0.1892 -0.8459  1.3748
  136SAPE   H8Y14793   6.820   3.727   9.645 -1.9019 -0.4024  0.9573
  136SAPE   C3914794   6.875   3.911   9.539  0.3923 -0.7353 -0.9262
  136SAPE   H9X14795   6.967   3.935   9.596  0.8178 -0.4862 -1.7169
  136SAPE   H9Y14796   6.828   4.007   9.509 -2.3924 -2.1013 -1.2503
  136SAPE  C31014797   6.897   3.857   9.404 -0.3350 -0.9435 -0.2338
  136SAPE  H10X14798   6.791   3.841   9.373 -2.0601  1.3718  3.6869
  136SAPE  H10Y14799   6.942   3.758   9.428 -2.0109 -1.5142  0.7877
  136SAPE  C31114800   6.979   3.946   9.308 -0.2586  0.6938  0.6697
  136SAPE  H11X14801   7.079   3.899   9.297 -1.1570 -1.8517  2.4097
  136SAPE  H11Y14802   6.988   4.049   9.349  1.0051  0.2789  1.5052
  136SAPE  C31214803   6.911   3.954   9.172  0.5840 -0.2520  0.4185
  136SAPE  H12X14804   6.842   4.041   9.171  2.0847  1.0002 -0.8406
  136SAPE  H12Y14805   6.849   3.872   9.128  1.4079 -0.5777 -0.1674
  136SAPE  C31314806   7.022   3.991   9.061  0.3442  0.4485 -0.1800
  136SAPE  H13X14807   7.112   3.926   9.067 -0.6229 -0.9722 -0.5644
  136SAPE  H13Y14808   7.056   4.094   9.084  0.1222  1.0155 -2.2308
  136SAPE  C31414809   6.968   3.990   8.919  0.2961  0.1818 -0.0837
  136SAPE  H14X14810   7.029   4.059   8.858  1.6466 -1.7054 -0.9757
  136SAPE  H14Y14811   6.862   4.021   8.910  0.1751 -0.3826 -0.6741
  136SAPE  C31514812   6.976   3.856   8.850 -0.0775 -0.7809 -0.5257
  136SAPE  H15X14813   6.914   3.791   8.916  0.1669 -0.6868 -0.1985
  136SAPE  H15Y14814   7.084   3.830   8.859 -0.6128 -2.8325  0.7897
  136SAPE  C31614815   6.930   3.860   8.702 -0.0955  0.1085 -0.6334
  136SAPE  H16X14816   6.963   3.950   8.646  1.6687  0.0303  0.1974
  136SAPE  H16Y14817   6.819   3.853   8.706 -0.0683 -0.1137 -0.1704
  136SAPE  C31714818   6.985   3.742   8.613 -0.2766 -0.0519 -0.0906
  136SAPE  H17X14819   6.922   3.748   8.521 -0.1799  1.9261 -0.0657
  136SAPE  H17Y14820   6.965   3.644   8.662 -0.0781  0.0336  0.1650
  136SAPE  C31814821   7.136   3.748   8.576  0.2145 -0.0541  0.3269
  136SAPE  H18X14822   7.188   3.777   8.670 -0.4819  1.8248  0.1871
  136SAPE  H18Y14823   7.163   3.830   8.506  1.9268 -0.4922  0.4453
  136SAPE  H18Z14824   7.172   3.654   8.529 -1.1085 -0.9704  1.0772
  137SAPE     N14825   2.265   0.780  11.049  0.6110 -0.8063 -0.0090
  137SAPE   HN114826   2.198   0.726  11.108 -2.6206  2.2837 -0.5624
  137SAPE   HN214827   2.277   0.873  11.094 -0.8285 -0.9844  0.7899
  137SAPE   HN314828   2.224   0.782  10.954  0.4721 -0.2872  0.0568
  137SAPE   C1214829   2.407   0.734  11.061 -0.9777 -0.2505 -0.2611
  137SAPE  H12A14830   2.420   0.644  10.998 -1.5710 -0.5544  0.0535
  137SAPE  H12B14831   2.425   0.713  11.169 -0.1175  1.2436 -0.0750
  137SAPE   C1114832   2.501   0.854  11.026 -0.2909  0.3050  0.1601
  137SAPE  H11A14833   2.494   0.860  10.915  0.5720 -1.9594 -0.0721
  137SAPE  H11B14834   2.601   0.809  11.047 -0.6424  0.0279  1.2812
  137SAPE     P14835   2.569   1.099  11.087  0.2001  0.1877  0.1025
  137SAPE   O1314836   2.510   1.225  11.135  0.4928  0.0166  0.2655
  137SAPE   O1414837   2.692   1.054  11.149 -0.2170 -0.4417  0.1364
  137SAPE   O1214838   2.468   0.975  11.090 -0.2375 -0.9686 -0.7034
  137SAPE   O1114839   2.598   1.105  10.926  0.4608 -0.2013 -0.7244
  137SAPE    C114840   2.496   1.159  10.832  0.3826  0.9121 -0.6025
  137SAPE    HA14841   2.398   1.110  10.844  0.6422  0.2797 -1.0226
  137SAPE    HB14842   2.480   1.265  10.861  1.0943  0.3965  2.0293
  137SAPE    C214843   2.540   1.148  10.686 -0.7165  0.8109  0.2562
  137SAPE    HS14844   2.453   1.155  10.617 -0.9843 -0.4418  0.4467
  137SAPE   O2114845   2.603   1.026  10.667 -0.3201  1.3967 -0.3223
  137SAPE   C2114846   2.520   0.933  10.636  0.1789  0.0711  0.1880
  137SAPE   O2214847   2.396   0.944  10.625  0.6245  0.0785 -0.3096
  137SAPE   C2214848   2.589   0.802  10.599  0.0212  0.6275 -0.5441
  137SAPE   H2R14849   2.699   0.811  10.614 -0.0440 -1.6677  2.3574
  137SAPE   H2S14850   2.556   0.734  10.681  0.9833  0.8928  0.0764
  137SAPE    C314851   2.639   1.260  10.641  0.1016 -0.0325  0.6163
  137SAPE    HX14852   2.722   1.281  10.713  0.4225 -0.4147  0.3599
  137SAPE    HY14853   2.586   1.358  10.642  0.7913  0.3495  1.3613
  137SAPE   O3114854   2.674   1.232  10.504  0.7778 -0.2173 -0.1975
  137SAPE   C3114855   2.783   1.156  10.497 -0.2645 -0.5017  0.3852
  137SAPE   O3214856   2.858   1.126  10.590  0.3678  0.1619 -0.0033
  137SAPE   C3214857   2.815   1.148  10.344 -0.5669  0.2528 -0.3510
  137SAPE   H2X14858   2.883   1.234  10.326 -1.4046  1.2153  0.9266
  137SAPE   H2Y14859   2.720   1.184  10.300 -0.7313  0.6272  0.3056
  137SAPE   C2314860   2.553   0.742  10.466 -0.0013  0.0233  0.6511
  137SAPE   H3R14861   2.558   0.825  10.392 -0.5867  0.1721  0.7726
  137SAPE   H3S14862   2.445   0.714  10.463 -0.5474  1.8963  1.3290
  137SAPE   C2414863   2.638   0.628  10.419  0.3293 -0.3540  0.3724
  137SAPE   H4R14864   2.645   0.555  10.503  2.4984  1.4661  1.8831
  137SAPE   H4S14865   2.745   0.654  10.414  0.5292 -1.4011 -1.3700
  137SAPE   C2514866   2.575   0.568  10.296  0.0240  0.1163 -1.2179
  137SAPE   H5R14867   2.475   0.525  10.312  1.2162 -2.4677 -0.0215
  137SAPE   C2614868   2.626   0.571  10.170 -0.9056 -0.2617 -0.0484
  137SAPE   H6R14869   2.585   0.510  10.087  1.3938  1.5222 -2.7043
  137SAPE   C2714870   2.760   0.624  10.142 -0.2583 -0.8457  0.4337
  137SAPE   H7R14871   2.824   0.535  10.124  1.0354  0.3169 -1.0599
  137SAPE   H7S14872   2.813   0.677  10.224  0.0713  0.6776 -0.7250
  137SAPE   C2814873   2.757   0.723  10.027 -0.1952 -0.2409  0.6971
  137SAPE   H8R14874   2.696   0.814  10.037 -0.1025 -0.0374 -0.5068
  137SAPE   C2914875   2.805   0.696   9.900  0.5224  0.1792 -0.8379
  137SAPE   H9R14876   2.802   0.777   9.826  1.6244  2.2266  1.2447
  137SAPE  C21014877   2.870   0.578   9.840 -0.3235  0.8042  0.5918
  137SAPE  H10R14878   2.792   0.520   9.786 -0.5948  0.8660  0.9090
  137SAPE  H10S14879   2.901   0.511   9.923 -1.8434  0.1845  0.6864
  137SAPE  C21114880   2.983   0.614   9.747  0.0271  0.8288 -0.3151
  137SAPE  H11R14881   3.062   0.674   9.794  1.7565 -0.6778 -1.1640
  137SAPE  C21214882   2.989   0.583   9.612 -0.4803 -0.2506  0.6245
  137SAPE  H12R14883   3.087   0.601   9.566 -1.7243 -0.5862 -2.3809
  137SAPE  C21314884   2.892   0.505   9.527 -0.1204 -0.1181 -0.2854
  137SAPE  H13R14885   2.863   0.423   9.596 -2.1509  0.5139 -0.3019
  137SAPE  H13S14886   2.947   0.450   9.449  2.6966 -0.9825  2.1179
  137SAPE  C21414887   2.770   0.585   9.484 -1.4534  0.2174 -0.8968
  137SAPE  H14R14888   2.743   0.658   9.561  0.7074  0.1776 -0.0231
  137SAPE  C21514889   2.698   0.587   9.371  0.8311  0.2948 -0.3828
  137SAPE  H15R14890   2.610   0.652   9.372 -0.8625 -1.8833  0.4810
  137SAPE  C21614891   2.716   0.495   9.248 -0.1562 -0.2872 -1.0321
  137SAPE  H16R14892   2.624   0.437   9.226 -0.2842 -0.7775  0.6615
  137SAPE  H16S14893   2.794   0.418   9.265 -1.9846 -1.8470  0.8558
  137SAPE  C21714894   2.759   0.572   9.124  0.5409  0.1032 -0.4912
  137SAPE  H17R14895   2.853   0.630   9.140  1.6103 -1.8173  0.6407
  137SAPE  H17S14896   2.677   0.642   9.101  1.8188  2.3277  1.2344
  137SAPE  C21814897   2.789   0.479   9.001 -0.3153  0.3933 -0.2770
  137SAPE  H18R14898   2.697   0.423   8.974 -0.3042  0.6117 -0.7736
  137SAPE  H18S14899   2.876   0.411   9.016 -0.7560 -0.0206  0.4560
  137SAPE  C21914900   2.827   0.564   8.881  0.6484  0.4327 -0.0120
  137SAPE  H19R14901   2.924   0.610   8.910  1.2837  0.1238 -1.5423
  137SAPE  H19S14902   2.760   0.648   8.853 -0.3655 -0.3636 -0.0420
  137SAPE  C22014903   2.851   0.485   8.756  0.6612  0.7499  0.3129
  137SAPE  H20R14904   2.929   0.410   8.784  0.5393  0.9481  1.2082
  137SAPE  H20S14905   2.876   0.544   8.665  1.6794  1.4082  0.9958
  137SAPE  H20T14906   2.754   0.431   8.748  2.3427 -2.8507  1.7813
  137SAPE   C3314907   2.856   1.009  10.290  1.1284 -0.2844  0.2103
  137SAPE   H3X14908   2.769   0.940  10.303  1.3766 -0.7232 -0.3884
  137SAPE   H3Y14909   2.939   0.970  10.353  0.3441 -3.5727 -0.5737
  137SAPE   C3414910   2.887   1.017  10.141 -0.7182  0.5945 -0.7602
  137SAPE   H4X14911   2.798   1.075  10.109 -3.1477 -2.2258  0.3512
  137SAPE   H4Y14912   2.888   0.914  10.100  3.3326  0.7261 -1.4314
  137SAPE   C3514913   3.025   1.089  10.109 -0.7580  0.3522  0.7885
  137SAPE   H5X14914   3.114   1.023  10.115  0.6368  2.0479 -0.1800
  137SAPE   H5Y14915   3.033   1.170  10.185  0.5912  1.0750 -0.0836
  137SAPE   C3614916   3.019   1.171   9.978 -0.2778  0.2688 -0.2539
  137SAPE   H6X14917   3.107   1.238   9.973 -1.4676  1.7990 -1.7387
  137SAPE   H6Y14918   2.932   1.240   9.976  0.7918  1.8605  2.5674
  137SAPE   C3714919   3.027   1.077   9.856 -0.4375 -0.5676  0.6458
  137SAPE   H7X14920   2.926   1.036   9.834  0.4346 -0.8054 -3.9990
  137SAPE   H7Y14921   3.104   0.997   9.862 -1.0493 -1.3771 -1.5256
  137SAPE   C3814922   3.057   1.169   9.734 -0.2535  0.0752  0.0497
  137SAPE   H8X14923   3.157   1.215   9.751  0.3508 -1.5591  1.2023
  137SAPE   H8Y14924   2.980   1.249   9.732  0.9109  1.2261  0.3395
  137SAPE   C3914925   3.056   1.087   9.598  0.5721  0.3740  0.4777
  137SAPE   H9X14926   3.069   1.166   9.521 -2.0912 -0.0910 -0.5710
  137SAPE   H9Y14927   2.962   1.031   9.579  1.4632 -0.9071 -0.2686
  137SAPE  C31014928   3.175   0.988   9.586 -0.3475 -0.4359  0.3215
  137SAPE  H10X14929   3.190   0.930   9.679  1.7851 -0.1581  0.1944
  137SAPE  H10Y14930   3.262   1.054   9.564 -1.4715  0.0907 -3.1235
  137SAPE  C31114931   3.169   0.880   9.474 -0.5108 -0.2737  0.0744
  137SAPE  H11X14932   3.074   0.826   9.492 -0.4980 -0.0742  0.7980
  137SAPE  H11Y14933   3.251   0.810   9.502  0.2514  0.7184  0.3794
  137SAPE  C31214934   3.179   0.937   9.332 -0.3854  0.4292 -0.1349
  137SAPE  H12X14935   3.280   0.982   9.325  0.0380 -0.4427  0.2321
  137SAPE  H12Y14936   3.096   1.011   9.331  0.0819  1.0266  1.9008
  137SAPE  C31314937   3.155   0.826   9.223  0.4715 -1.3281 -0.1753
  137SAPE  H13X14938   3.065   0.768   9.252  0.5461 -0.8639  1.0625
  137SAPE  H13Y14939   3.245   0.764   9.244  2.4069  0.9009 -1.4226
  137SAPE  C31414940   3.148   0.890   9.084  0.8729  1.1594  0.1014
  137SAPE  H14X14941   3.131   0.800   9.022  0.4602 -0.4655  2.4563
  137SAPE  H14Y14942   3.250   0.929   9.060  0.4038  1.2368 -1.9142
  137SAPE  C31514943   3.030   0.991   9.061 -0.3458 -0.2534 -0.2667
  137SAPE  H15X14944   3.054   1.038   8.963  0.7877  0.4493  0.3371
  137SAPE  H15Y14945   3.043   1.073   9.135  1.2561 -0.0753 -0.7087
  137SAPE  C31614946   2.890   0.938   9.069 -0.3149 -0.0223 -0.0636
  137SAPE  H16X14947   2.884   0.877   9.162 -0.3579  1.6854  1.0996
  137SAPE  H16Y14948   2.890   0.863   8.987 -1.5272 -0.1625  0.0573
  137SAPE  C31714949   2.785   1.045   9.070 -0.0381  0.5270  0.0500
  137SAPE  H17X14950   2.794   1.101   9.166  1.3853 -0.8434  0.7486
  137SAPE  H17Y14951   2.684   1.004   9.095  1.0544 -1.1613  1.9756
  137SAPE  C31814952   2.783   1.133   8.946 -0.5963 -0.2129 -0.3729
  137SAPE  H18X14953   2.775   1.078   8.850  1.6105  2.0208 -1.9806
  137SAPE  H18Y14954   2.883   1.181   8.942 -0.7183  0.0704 -0.0823
  137SAPE  H18Z14955   2.708   1.215   8.956  0.9031  1.1350  0.3381
  138SAPE     N14956   1.163   0.368  10.353  0.4124 -0.8638 -0.4737
  138SAPE   HN114957   1.139   0.465  10.325 -0.1762  0.2990  3.4058
  138SAPE   HN214958   1.213   0.377  10.445 -0.6308 -0.7305  0.0928
  138SAPE   HN314959   1.223   0.323  10.281  1.5638 -0.0627 -0.0594
  138SAPE   C1214960   1.045   0.279  10.374 -0.0108 -0.4979 -0.7580
  138SAPE  H12A14961   0.964   0.317  10.309  0.6671  0.5691 -1.0011
  138SAPE  H12B14962   1.003   0.299  10.474  2.5865  1.5502  0.0400
  138SAPE   C1114963   1.092   0.132  10.359 -0.0831  0.3858 -0.6110
  138SAPE  H11A14964   1.145   0.106  10.453  1.3274 -0.8114 -1.6895
  138SAPE  H11B14965   1.166   0.106  10.280 -1.4487  0.0724 -1.8245
  138SAPE     P14966   0.891  -0.006  10.473 -0.0427 -0.2489  0.0749
  138SAPE   O1314967   0.983  -0.073  10.566 -0.4083 -0.4483  0.0716
  138SAPE   O1414968   0.813   0.107  10.534 -0.2088  0.6139 -0.0759
  138SAPE   O1214969   0.970   0.051  10.344  0.0165 -0.2761 -0.4016
  138SAPE   O1114970   0.796  -0.116  10.416  0.0989 -0.2150 -0.4727
  138SAPE    C114971   0.820  -0.174  10.286 -0.6199 -0.3748 -0.8343
  138SAPE    HA14972   0.924  -0.197  10.257 -0.8673 -1.5681 -0.8068
  138SAPE    HB14973   0.766  -0.271  10.283 -1.4553  0.0926 -1.4517
  138SAPE    C214974   0.756  -0.080  10.182 -0.6024  0.4671 -0.0886
  138SAPE    HS14975   0.807   0.018  10.192 -0.8956  0.4072  3.0095
  138SAPE   O2114976   0.618  -0.057  10.215  0.0108 -0.1366  0.2347
  138SAPE   C2114977   0.560   0.051  10.147  0.1632 -0.7489 -0.4674
  138SAPE   O2214978   0.623   0.134  10.087 -0.2466  0.3921 -0.0147
  138SAPE   C2214979   0.410   0.051  10.152  0.2530  0.1019  0.5070
  138SAPE   H2R14980   0.381   0.020  10.255 -0.8395  1.5188  0.6535
  138SAPE   H2S14981   0.367   0.152  10.138  1.8399  0.7351 -0.0686
  138SAPE    C314982   0.781  -0.122  10.034  0.0132  0.3432 -0.1436
  138SAPE    HX14983   0.883  -0.166  10.036 -0.3599 -0.5325  2.1648
  138SAPE    HY14984   0.780  -0.035   9.965 -0.8812  0.1622 -0.3687
  138SAPE   O3114985   0.686  -0.221   9.997  0.1757  0.7115  0.1403
  138SAPE   C3114986   0.715  -0.272   9.875  0.6127  0.0548  0.1445
  138SAPE   O3214987   0.800  -0.229   9.801  0.6064  0.1166  0.5684
  138SAPE   C3214988   0.620  -0.388   9.851  0.5557 -0.0985  0.1512
  138SAPE   H2X14989   0.522  -0.345   9.879  1.6468  2.4492  0.3427
  138SAPE   H2Y14990   0.643  -0.474   9.918  0.5429 -0.4394 -0.2700
  138SAPE   C2314991   0.348  -0.055  10.054  0.1733 -0.2299 -0.1266
  138SAPE   H3R14992   0.242  -0.054  10.086 -0.3388  1.4873 -1.6829
  138SAPE   H3S14993   0.391  -0.157  10.057  0.7994  0.0116  3.3958
  138SAPE   C2414994   0.329   0.009   9.914 -0.4628  0.7227 -0.4847
  138SAPE   H4R14995   0.288   0.111   9.927  0.4243  1.3024 -2.0340
  138SAPE   H4S14996   0.250  -0.059   9.875 -1.7889  0.2006  2.8202
  138SAPE   C2514997   0.444  -0.000   9.813  0.4667 -0.2615  0.3709
  138SAPE   H5R14998   0.543  -0.024   9.856  0.8911 -0.4360 -0.6913
  138SAPE   C2614999   0.432   0.012   9.681 -0.2164  0.2913  0.8424
  138SAPE   H6R15000   0.520  -0.009   9.618 -0.5451 -0.5013  0.6353
  138SAPE   C2715001   0.301   0.032   9.604 -0.1637  0.5152  0.5706
  138SAPE   H7R15002   0.210   0.008   9.663 -0.2514  3.2280  1.6888
  138SAPE   H7S15003   0.308  -0.038   9.519 -1.3356 -1.1099  1.7322
  138SAPE   C2815004   0.279   0.177   9.565 -0.3251  0.4505  0.9348
  138SAPE   H8R15005   0.271   0.249   9.648 -2.4230  0.6109  0.6462
  138SAPE   C2915006   0.273   0.217   9.435 -0.2078  0.2435 -0.3859
  138SAPE   H9R15007   0.264   0.324   9.410  0.3546 -0.0810 -2.1565
  138SAPE  C21015008   0.291   0.132   9.313 -0.4915  0.4326  0.6085
  138SAPE  H10R15009   0.370   0.054   9.314  0.6634  1.5522  0.1095
  138SAPE  H10S15010   0.316   0.193   9.223  0.3096  1.4415  1.4854
  138SAPE  C21115011   0.163   0.060   9.284 -0.2783 -0.4996 -0.0355
  138SAPE  H11R15012   0.098   0.014   9.360 -1.4575 -1.1994 -1.4280
  138SAPE  C21215013   0.118   0.024   9.161  0.3225 -0.8275 -0.0020
  138SAPE  H12R15014   0.023  -0.031   9.152  0.4140 -1.1800  1.0845
  138SAPE  C21315015   0.178   0.051   9.022  0.4220  0.4808  0.4100
  138SAPE  H13R15016   0.132  -0.026   8.955 -0.6831 -0.1953  1.8770
  138SAPE  H13S15017   0.285   0.021   9.029  0.0330 -1.0778  0.0235
  138SAPE  C21415018   0.172   0.195   8.962 -0.6075 -0.0250 -0.5026
  138SAPE  H14R15019   0.243   0.268   9.004 -0.8461 -0.7888  1.3420
  138SAPE  C21515020   0.104   0.234   8.847  0.3946 -0.7628  0.5269
  138SAPE  H15R15021   0.112   0.340   8.821 -2.3520 -0.6914 -0.3703
  138SAPE  C21615022   0.007   0.154   8.761 -0.5320 -0.1439  0.1258
  138SAPE  H16R15023  -0.033   0.062   8.808 -0.0226 -1.0368 -1.1503
  138SAPE  H16S15024   0.067   0.114   8.677 -0.1225  1.1719 -0.2260
  138SAPE  C21715025  -0.111   0.231   8.713  0.1515  0.2177 -0.3613
  138SAPE  H17R15026  -0.076   0.307   8.639 -0.2954  1.1253  0.3381
  138SAPE  H17S15027  -0.170   0.271   8.798  1.4702 -3.0190  2.2898
  138SAPE  C21815028  -0.208   0.138   8.631 -0.9381 -0.1568 -0.8027
  138SAPE  H18R15029  -0.249   0.066   8.704  0.3824 -0.7078 -0.5684
  138SAPE  H18S15030  -0.148   0.076   8.560  1.3707 -0.4691  1.2896
  138SAPE  C21915031  -0.333   0.191   8.570  0.1148  0.0618 -0.6905
  138SAPE  H19R15032  -0.307   0.249   8.479  1.6318  2.0469  0.8880
  138SAPE  H19S15033  -0.380   0.257   8.646  1.5120  0.6389 -0.2968
  138SAPE  C22015034  -0.433   0.086   8.531 -0.2799 -0.7953 -0.3849
  138SAPE  H20R15035  -0.507   0.137   8.466 -1.4371 -0.3114  1.2587
  138SAPE  H20S15036  -0.485   0.053   8.624  0.6440  0.8616  0.7633
  138SAPE  H20T15037  -0.394  -0.004   8.478  0.0004 -0.8489 -0.0901
  138SAPE   C3315038   0.617  -0.442   9.702 -0.0182 -0.0405  0.5696
  138SAPE   H3X15039   0.599  -0.359   9.630  1.2997 -1.8040 -1.9698
  138SAPE   H3Y15040   0.526  -0.506   9.704 -0.7070  0.8852  3.7179
  138SAPE   C3415041   0.740  -0.523   9.674 -0.1810  0.6707  0.8687
  138SAPE   H4X15042   0.730  -0.610   9.742  0.9758  1.1077  1.6397
  138SAPE   H4Y15043   0.835  -0.468   9.694  1.2473  0.1904 -3.5144
  138SAPE   C3515044   0.758  -0.574   9.526 -0.1629 -0.4222  0.0037
  138SAPE   H5X15045   0.843  -0.645   9.527  1.2324  1.1996 -0.5772
  138SAPE   H5Y15046   0.772  -0.483   9.464 -0.8027 -0.1457  0.2441
  138SAPE   C3615047   0.650  -0.653   9.466  0.1159 -0.3669  0.3030
  138SAPE   H6X15048   0.549  -0.619   9.498 -0.2053 -0.7534 -0.2937
  138SAPE   H6Y15049   0.656  -0.759   9.498  2.8894 -0.8615 -1.5858
  138SAPE   C3715050   0.645  -0.641   9.302 -0.1619 -0.5784  0.4551
  138SAPE   H7X15051   0.744  -0.680   9.269 -1.2303 -3.9097  0.8251
  138SAPE   H7Y15052   0.633  -0.533   9.280 -1.2488 -0.5611  1.0783
  138SAPE   C3815053   0.530  -0.717   9.244  0.5544 -0.0845 -0.7283
  138SAPE   H8X15054   0.441  -0.678   9.297  0.9073  1.2541 -1.0885
  138SAPE   H8Y15055   0.537  -0.824   9.272 -1.7249 -0.2431 -0.6072
  138SAPE   C3915056   0.521  -0.686   9.088 -0.0466  0.7412  0.0739
  138SAPE   H9X15057   0.598  -0.750   9.041  0.3140 -0.4321  2.1501
  138SAPE   H9Y15058   0.546  -0.578   9.076 -3.8424  2.1386  2.8832
  138SAPE  C31015059   0.384  -0.719   9.032  0.0208 -0.0226  0.9555
  138SAPE  H10X15060   0.361  -0.655   8.945 -1.2347 -1.4045  0.2147
  138SAPE  H10Y15061   0.297  -0.696   9.097 -0.6765  0.1195 -0.0087
  138SAPE  C31115062   0.362  -0.866   8.975 -0.6404  0.2812 -0.1844
  138SAPE  H11X15063   0.410  -0.870   8.874  0.8502 -0.3465  0.5145
  138SAPE  H11Y15064   0.254  -0.891   8.971 -0.2389 -1.4395 -2.3491
  138SAPE  C31215065   0.424  -0.971   9.067  0.0413 -0.4410 -0.1429
  138SAPE  H12X15066   0.398  -0.951   9.173 -0.6020 -1.5622 -0.0629
  138SAPE  H12Y15067   0.532  -0.952   9.057  0.0238  0.4449  1.0853
  138SAPE  C31315068   0.401  -1.112   9.019  0.6561  0.3377  0.3492
  138SAPE  H13X15069   0.293  -1.137   9.031  0.1815  0.7496 -2.3446
  138SAPE  H13Y15070   0.460  -1.192   9.068  1.3380 -0.0996 -1.1029
  138SAPE  C31415071   0.446  -1.134   8.872  0.3427  0.2033 -0.8749
  138SAPE  H14X15072   0.549  -1.094   8.860  0.1190  1.4637  1.0370
  138SAPE  H14Y15073   0.374  -1.088   8.801 -0.5128  0.4925  0.1443
  138SAPE  C31515074   0.463  -1.283   8.821  0.2865 -0.8990 -0.1547
  138SAPE  H15X15075   0.554  -1.327   8.868  0.9115  0.0001 -0.5113
  138SAPE  H15Y15076   0.483  -1.274   8.712  1.0255  0.0226  0.0517
  138SAPE  C31615077   0.342  -1.379   8.850  0.0274  0.2046 -0.8959
  138SAPE  H16X15078   0.310  -1.366   8.956  1.7008  0.8946 -0.4546
  138SAPE  H16Y15079   0.362  -1.488   8.841  0.8201  0.2034  0.5998
  138SAPE  C31715080   0.220  -1.351   8.760 -0.2658  0.3252  0.0395
  138SAPE  H17X15081   0.190  -1.245   8.778  1.3653  1.7419 -4.1763
  138SAPE  H17Y15082   0.138  -1.422   8.781  0.4077 -1.7110 -3.3877
  138SAPE  C31815083   0.258  -1.363   8.614  0.0014 -0.2712  0.4668
  138SAPE  H18X15084   0.167  -1.358   8.550  0.7005  2.6520 -0.4542
  138SAPE  H18Y15085   0.305  -1.460   8.585  0.6373  0.3363 -0.6065
  138SAPE  H18Z15086   0.331  -1.286   8.580 -0.0120 -1.0730 -1.5086
  139SAPE     N15087   5.766   5.874  10.923  0.0974  0.3891  0.2501
  139SAPE   HN115088   5.847   5.814  10.947  2.1192  2.9381  0.1591
  139SAPE   HN215089   5.794   5.973  10.935  1.4207  0.3006 -1.6551
  139SAPE   HN315090   5.688   5.863  10.991  0.2634 -0.4772  0.3098
  139SAPE   C1215091   5.717   5.848  10.790 -0.0971  1.0802 -0.2093
  139SAPE  H12A15092   5.610   5.875  10.785 -0.6646 -0.3607  2.1862
  139SAPE  H12B15093   5.718   5.736  10.792  0.5889  1.0584 -1.0522
  139SAPE   C1115094   5.797   5.914  10.676 -0.0395 -0.1637 -0.1946
  139SAPE  H11A15095   5.773   6.018  10.707 -2.5679 -1.5404  3.1255
  139SAPE  H11B15096   5.758   5.897  10.573  0.7848  1.6363 -0.8492
  139SAPE     P15097   6.021   5.769  10.635  0.2560 -0.4337  0.0686
  139SAPE   O1315098   6.152   5.760  10.707  0.5297 -0.2863 -0.1646
  139SAPE   O1415099   5.926   5.654  10.634 -0.2359  0.0752  0.3751
  139SAPE   O1215100   5.939   5.894  10.682  0.1179 -0.3330 -0.1712
  139SAPE   O1115101   6.051   5.808  10.479  0.8315 -0.5731 -0.3555
  139SAPE    C115102   6.144   5.919  10.470  0.0129 -0.0920 -0.3158
  139SAPE    HA15103   6.105   6.009  10.523  1.7074  0.9419 -0.7276
  139SAPE    HB15104   6.244   5.903  10.517  0.9269 -1.1451 -2.4706
  139SAPE    C215105   6.176   5.962  10.324 -0.4739  0.0024 -0.1043
  139SAPE    HS15106   6.238   6.054  10.325  0.6848 -0.7456 -0.9810
  139SAPE   O2115107   6.059   5.974  10.244 -0.1271 -0.7412 -0.3355
  139SAPE   C2115108   5.971   6.067  10.281 -0.3030 -0.5621 -0.0828
  139SAPE   O2215109   5.982   6.139  10.379 -0.0204 -0.6512 -0.2429
  139SAPE   C2215110   5.844   6.053  10.194  0.3634  0.6899  0.0013
  139SAPE   H2R15111   5.873   6.073  10.089  1.5615 -2.2967 -0.3184
  139SAPE   H2S15112   5.820   5.945  10.201 -1.1188  1.0363  0.6964
  139SAPE    C315113   6.278   5.856  10.263 -0.1111 -0.3202 -0.2955
  139SAPE    HX15114   6.214   5.765  10.277 -2.4520  0.8348 -2.6097
  139SAPE    HY15115   6.372   5.856  10.322  0.1156  0.9121 -0.6309
  139SAPE   O3115116   6.308   5.880  10.125 -0.4551  0.3187  0.4697
  139SAPE   C3115117   6.228   5.818  10.039  0.2461  0.5542  0.0381
  139SAPE   O3215118   6.126   5.761  10.064  0.3153  0.0077 -0.7743
  139SAPE   C3215119   6.285   5.832   9.902 -0.2970 -0.3399  0.6379
  139SAPE   H2X15120   6.320   5.730   9.875  2.9175 -0.3459  4.0911
  139SAPE   H2Y15121   6.373   5.900   9.906 -0.1102 -0.5717  0.4868
  139SAPE   C2315122   5.714   6.131  10.243  0.0807 -0.4813  0.1816
  139SAPE   H3R15123   5.723   6.240  10.222 -1.8409  0.6458  4.1053
  139SAPE   H3S15124   5.717   6.129  10.354 -1.6250  1.0077  0.3151
  139SAPE   C2415125   5.586   6.086  10.170  0.7897  0.5404 -0.2144
  139SAPE   H4R15126   5.579   6.110  10.062 -1.1889  0.3071 -0.1778
  139SAPE   H4S15127   5.510   6.149  10.220 -1.2121 -0.9832 -1.1873
  139SAPE   C2515128   5.544   5.947  10.205  0.0876 -0.6144 -0.9237
  139SAPE   H5R15129   5.517   5.941  10.312  2.0277  1.0157 -0.2795
  139SAPE   C2615130   5.543   5.841  10.122  0.0840 -0.5486 -0.9900
  139SAPE   H6R15131   5.524   5.741  10.163 -1.0411 -0.0782 -0.3273
  139SAPE   C2715132   5.586   5.838   9.975  0.6656 -0.1419 -0.3173
  139SAPE   H7R15133   5.572   5.942   9.936  0.4805  0.0463  0.2405
  139SAPE   H7S15134   5.520   5.779   9.908 -1.5531  0.7425  0.9663
  139SAPE   C2815135   5.719   5.762   9.964 -0.2293  0.3360 -0.3832
  139SAPE   H8R15136   5.756   5.735  10.063 -0.1579  2.2251  0.1479
  139SAPE   C2915137   5.793   5.736   9.855  0.3765  0.6604  0.4107
  139SAPE   H9R15138   5.891   5.689   9.865  0.7225  1.2124 -0.2871
  139SAPE  C21015139   5.767   5.785   9.713 -0.4326  0.0570 -0.5290
  139SAPE  H10R15140   5.847   5.860   9.696 -0.9126  0.2190 -2.1839
  139SAPE  H10S15141   5.667   5.832   9.707 -1.6333 -2.5129 -2.4040
  139SAPE  C21115142   5.775   5.680   9.608  0.5928  0.2846  0.1237
  139SAPE  H11R15143   5.729   5.583   9.629 -1.8141  1.4431  0.5970
  139SAPE  C21215144   5.826   5.693   9.488 -0.3324  0.4594  0.3038
  139SAPE  H12R15145   5.821   5.606   9.420 -1.9240  0.7830 -0.0309
  139SAPE  C21315146   5.900   5.818   9.442  0.0794 -0.0092 -0.0658
  139SAPE  H13R15147   5.969   5.858   9.520  0.9846 -1.9629  0.1890
  139SAPE  H13S15148   5.824   5.891   9.408  2.7179  1.8694 -2.3721
  139SAPE  C21415149   5.977   5.790   9.316  0.0909 -1.0355  0.0799
  139SAPE  H14R15150   6.081   5.762   9.338  0.6599 -0.0711 -1.2557
  139SAPE  C21515151   5.922   5.789   9.189 -0.1269  0.4844 -0.3100
  139SAPE  H15R15152   5.993   5.768   9.108  0.1977  1.6381 -0.3490
  139SAPE  C21615153   5.778   5.796   9.144 -1.0176 -0.1028  0.1490
  139SAPE  H16R15154   5.747   5.896   9.108  1.3019 -0.3105 -2.7634
  139SAPE  H16S15155   5.704   5.765   9.221 -0.2956 -0.2087  0.8128
  139SAPE  C21715156   5.771   5.715   9.017 -0.3137 -0.0006 -0.0133
  139SAPE  H17R15157   5.778   5.608   9.046  1.3251  0.2640  0.7224
  139SAPE  H17S15158   5.850   5.747   8.945 -0.8108  2.0165  0.2821
  139SAPE  C21815159   5.642   5.754   8.940 -0.1106 -0.6956 -0.6488
  139SAPE  H18R15160   5.655   5.862   8.918 -2.7084 -0.0821  0.3879
  139SAPE  H18S15161   5.553   5.746   9.007 -0.1034  2.4694 -0.1271
  139SAPE  C21915162   5.620   5.672   8.807 -0.3831  0.3678  0.0656
  139SAPE  H19R15163   5.582   5.574   8.844 -0.9733  1.1049  1.5017
  139SAPE  H19S15164   5.719   5.671   8.757 -0.6230 -0.0014 -0.4026
  139SAPE  C22015165   5.512   5.733   8.713 -0.3991 -0.8780 -0.1824
  139SAPE  H20R15166   5.548   5.825   8.663  0.0974 -1.5017 -1.0105
  139SAPE  H20S15167   5.424   5.760   8.775  0.5095 -2.5310  1.9943
  139SAPE  H20T15168   5.485   5.664   8.630 -2.3760  0.4982 -0.7448
  139SAPE   C3315169   6.190   5.887   9.799  0.4696 -0.1413  0.1569
  139SAPE   H3X15170   6.157   5.991   9.824 -0.4900 -0.6286  1.0267
  139SAPE   H3Y15171   6.093   5.832   9.809 -0.2021  0.7028 -1.3960
  139SAPE   C3415172   6.225   5.879   9.653  0.0416 -0.4839 -0.3084
  139SAPE   H4X15173   6.143   5.913   9.586  0.8795  1.8470 -0.2451
  139SAPE   H4Y15174   6.261   5.775   9.638  1.2600 -0.0133 -0.8006
  139SAPE   C3515175   6.350   5.976   9.615  0.6379 -0.2005  0.0007
  139SAPE   H5X15176   6.431   5.951   9.687  2.4953  0.4271 -1.7567
  139SAPE   H5Y15177   6.316   6.082   9.623  1.6207  0.1599 -0.3764
  139SAPE   C3615178   6.409   5.959   9.476  0.5368 -0.4477  0.4850
  139SAPE   H6X15179   6.441   5.855   9.453 -3.6379 -1.7627 -0.1575
  139SAPE   H6Y15180   6.494   6.030   9.466 -0.0521  0.1979 -0.0274
  139SAPE   C3715181   6.317   5.999   9.357 -0.3623  0.6995 -0.2074
  139SAPE   H7X15182   6.303   6.109   9.359  2.4780  1.1517 -0.3142
  139SAPE   H7Y15183   6.232   5.927   9.355 -1.2750  1.7672 -0.8648
  139SAPE   C3815184   6.388   5.988   9.225 -0.2906  0.1260  0.4899
  139SAPE   H8X15185   6.441   5.891   9.215 -0.6664  0.0165 -0.6334
  139SAPE   H8Y15186   6.478   6.054   9.229  0.0587 -0.0895 -1.9674
  139SAPE   C3915187   6.306   6.020   9.107  0.1813  0.0178  0.6185
  139SAPE   H9X15188   6.261   6.120   9.122  1.1742  0.7878 -1.1734
  139SAPE   H9Y15189   6.219   5.952   9.099 -0.8629  1.4206 -0.3316
  139SAPE  C31015190   6.388   6.026   8.974 -0.1674  0.2603  0.4759
  139SAPE  H10X15191   6.430   5.927   8.949 -1.3062  0.1902 -1.3243
  139SAPE  H10Y15192   6.469   6.102   8.983 -0.5874  0.7223  0.4370
  139SAPE  C31115193   6.303   6.055   8.849  0.4743 -0.8072  0.8923
  139SAPE  H11X15194   6.229   6.134   8.873  0.2284 -0.0897 -1.9512
  139SAPE  H11Y15195   6.239   5.968   8.821  0.3874  0.0031 -1.6590
  139SAPE  C31215196   6.371   6.100   8.719 -0.5381 -0.9359  0.5824
  139SAPE  H12X15197   6.430   6.009   8.699  0.6994 -0.3189  1.3187
  139SAPE  H12Y15198   6.437   6.185   8.746 -0.9904 -0.8466  1.4543
  139SAPE  C31315199   6.287   6.151   8.599  0.5792 -0.9351 -0.4296
  139SAPE  H13X15200   6.358   6.188   8.522  0.5229  1.5863  0.6351
  139SAPE  H13Y15201   6.231   6.243   8.626  2.1400  0.2868 -1.1764
  139SAPE  C31415202   6.182   6.042   8.548 -0.3274 -0.3277 -0.0441
  139SAPE  H14X15203   6.152   5.982   8.636  1.4498 -1.0995  0.0809
  139SAPE  H14Y15204   6.221   5.972   8.471  0.1814  0.5414 -0.6038
  139SAPE  C31515205   6.056   6.106   8.496 -0.4148  0.2443  0.2044
  139SAPE  H15X15206   6.015   6.040   8.417 -1.4854  0.6623  0.3978
  139SAPE  H15Y15207   6.079   6.207   8.456  0.0589  0.2137  0.3825
  139SAPE  C31615208   5.947   6.137   8.604 -0.3128 -0.1865  0.2446
  139SAPE  H16X15209   6.002   6.147   8.700 -1.4296 -2.0362  1.1306
  139SAPE  H16Y15210   5.908   6.239   8.587  0.3280  0.3718  1.8898
  139SAPE  C31715211   5.829   6.040   8.599  0.0384 -0.4301 -0.2220
  139SAPE  H17X15212   5.878   5.947   8.634  0.4113 -1.0846 -2.3222
  139SAPE  H17Y15213   5.798   6.015   8.495  0.0593 -0.6422 -0.1791
  139SAPE  C31815214   5.716   6.079   8.688  0.3912  0.1840  0.0060
  139SAPE  H18X15215   5.695   6.188   8.682 -2.7571 -0.3144  0.3465
  139SAPE  H18Y15216   5.733   6.055   8.795 -0.7603  3.3361  1.0273
  139SAPE  H18Z15217   5.626   6.026   8.651  1.5120 -1.1094 -0.9856
  140SAPE     N15218   3.657   5.622  10.772 -0.4495 -0.8145  0.3723
  140SAPE   HN115219   3.581   5.675  10.818  0.8350  0.1455  1.4941
  140SAPE   HN215220   3.743   5.679  10.786 -2.0421  0.9345  4.8236
  140SAPE   HN315221   3.645   5.614  10.669 -2.7879 -0.7624  0.5882
  140SAPE   C1215222   3.680   5.491  10.841  0.2227  0.0844 -0.1587
  140SAPE  H12A15223   3.588   5.429  10.833  0.2601  0.2453 -2.6575
  140SAPE  H12B15224   3.691   5.513  10.950 -1.3577 -1.8212  0.4571
  140SAPE   C1115225   3.799   5.416  10.790 -0.2042  0.4729 -0.0951
  140SAPE  H11A15226   3.770   5.389  10.686  2.2297  3.3937 -1.6818
  140SAPE  H11B15227   3.820   5.322  10.845  0.9437 -1.4013 -3.4562
  140SAPE     P15228   4.066   5.436  10.802  0.2449 -0.0398  0.1693
  140SAPE   O1315229   4.163   5.543  10.776 -0.2669 -0.7126  0.1897
  140SAPE   O1415230   4.077   5.353  10.926  0.3401 -0.1710  0.1485
  140SAPE   O1215231   3.917   5.495  10.787 -0.1391  0.6197  0.1538
  140SAPE   O1115232   4.072   5.323  10.688  0.1656 -0.2313 -0.0078
  140SAPE    C115233   4.130   5.352  10.561 -0.0067 -0.1448 -0.1619
  140SAPE    HA15234   4.214   5.424  10.574  0.4937 -0.7431  0.0504
  140SAPE    HB15235   4.162   5.253  10.522 -0.3204  0.4187 -1.9147
  140SAPE    C215236   4.028   5.418  10.469  0.5776  1.1153  0.3999
  140SAPE    HS15237   3.987   5.509  10.517 -2.4681 -0.0916  0.3169
  140SAPE   O2115238   3.914   5.335  10.443 -0.1043  0.1895  0.3638
  140SAPE   C2115239   3.817   5.399  10.382 -0.4012 -0.1227  0.2344
  140SAPE   O2215240   3.814   5.522  10.363  0.1689  0.6838  0.0857
  140SAPE   C2215241   3.708   5.302  10.346  0.0545  0.1820 -0.2433
  140SAPE   H2R15242   3.760   5.207  10.321 -2.7529 -1.6595  0.4894
  140SAPE   H2S15243   3.648   5.300  10.439  1.7715  2.5759  1.0037
  140SAPE    C315244   4.105   5.467  10.338  0.0428  0.4492 -1.4185
  140SAPE    HX15245   4.184   5.536  10.375  1.5554 -2.7021  1.8974
  140SAPE    HY15246   4.035   5.511  10.264 -1.5020 -0.5106 -0.5819
  140SAPE   O3115247   4.169   5.355  10.272  0.0190  0.3260  0.7678
  140SAPE   C3115248   4.119   5.302  10.165  0.1286  0.1806  0.2457
  140SAPE   O3215249   4.006   5.315  10.118  0.3712  0.1324 -0.5521
  140SAPE   C3215250   4.233   5.220  10.098 -0.1328  0.5647 -0.3898
  140SAPE   H2X15251   4.205   5.113  10.107  1.2745  0.1359 -0.9606
  140SAPE   H2Y15252   4.326   5.223  10.157  1.4509 -0.8033 -2.6542
  140SAPE   C2315253   3.610   5.355  10.227 -0.6654 -0.0193  0.2865
  140SAPE   H3R15254   3.554   5.447  10.250  0.7106  0.9521 -0.0850
  140SAPE   H3S15255   3.536   5.273  10.218  0.7036 -1.3495  0.6521
  140SAPE   C2415256   3.686   5.365  10.102 -0.5006 -0.0833 -0.6321
  140SAPE   H4R15257   3.727   5.265  10.077 -2.3121 -0.3798 -2.6888
  140SAPE   H4S15258   3.766   5.440  10.118 -0.4247 -0.4675  1.0651
  140SAPE   C2515259   3.604   5.404   9.989  0.4527  0.1532 -0.0918
  140SAPE   H5R15260   3.547   5.498   9.997 -2.4866 -1.4136 -1.4187
  140SAPE   C2615261   3.603   5.336   9.878 -0.1141 -0.2846  0.3918
  140SAPE   H6R15262   3.540   5.380   9.800  0.6393 -1.0996 -0.7158
  140SAPE   C2715263   3.679   5.214   9.835  0.5177 -0.6968  0.0460
  140SAPE   H7R15264   3.615   5.173   9.753 -0.2565 -0.1031  0.3448
  140SAPE   H7S15265   3.683   5.137   9.915  0.5893  0.1976  0.9218
  140SAPE   C2815266   3.816   5.254   9.795 -0.1060  0.3046  0.0325
  140SAPE   H8R15267   3.885   5.288   9.874 -0.7144 -1.1793  1.2674
  140SAPE   C2915268   3.852   5.255   9.663  0.2898 -0.2259 -0.2822
  140SAPE   H9R15269   3.958   5.270   9.638  0.2673 -0.8609 -0.7887
  140SAPE  C21015270   3.776   5.226   9.533 -0.1859  0.6432 -0.0206
  140SAPE  H10R15271   3.824   5.286   9.453 -0.1208 -0.3530 -0.7555
  140SAPE  H10S15272   3.668   5.250   9.543 -0.4049  0.1837 -1.1785
  140SAPE  C21115273   3.777   5.079   9.510 -0.5098 -0.1207 -0.3570
  140SAPE  H11R15274   3.720   5.010   9.574 -0.1169  1.3108  1.6195
  140SAPE  C21215275   3.864   5.021   9.423 -0.1506 -0.3000  0.3205
  140SAPE  H12R15276   3.871   4.912   9.421  1.9581 -0.2313  1.4457
  140SAPE  C21315277   3.965   5.098   9.339  0.0790 -0.3339  0.2392
  140SAPE  H13R15278   4.022   5.155   9.415  1.8033  0.1575 -1.3477
  140SAPE  H13S15279   3.908   5.164   9.269  0.3004 -1.0009 -0.5880
  140SAPE  C21415280   4.059   5.005   9.263 -0.4664 -0.0951 -0.5978
  140SAPE  H14R15281   4.105   4.933   9.332  0.2897 -0.1065 -1.0919
  140SAPE  C21515282   4.096   5.015   9.131  0.6904 -0.7230  0.2753
  140SAPE  H15R15283   4.165   4.943   9.085  2.6689  1.4913 -0.4146
  140SAPE  C21615284   4.050   5.123   9.039 -0.2446 -0.4759  0.1012
  140SAPE  H16R15285   4.138   5.165   8.985 -0.4333 -1.3961 -0.9653
  140SAPE  H16S15286   3.998   5.203   9.095  0.7623 -0.2579  0.7689
  140SAPE  C21715287   3.946   5.068   8.938  0.4201  0.5623  0.5923
  140SAPE  H17R15288   3.862   5.032   9.001  0.4948  1.1322  1.0247
  140SAPE  H17S15289   3.982   4.986   8.872 -0.3036 -0.2123  1.1391
  140SAPE  C21815290   3.884   5.181   8.850 -0.2972  0.2310 -0.1189
  140SAPE  H18R15291   3.803   5.143   8.784 -0.0476  3.8687 -2.8311
  140SAPE  H18S15292   3.966   5.231   8.793  2.1861 -1.7503  1.4912
  140SAPE  C21915293   3.821   5.286   8.941  0.2768  0.2196  0.0262
  140SAPE  H19R15294   3.905   5.341   8.989 -0.9843  1.7751  0.5224
  140SAPE  H19S15295   3.755   5.237   9.015 -0.6379 -0.1460 -0.9913
  140SAPE  C22015296   3.754   5.385   8.848 -0.1331  0.1065  0.2600
  140SAPE  H20R15297   3.668   5.351   8.786  1.5454 -0.0006 -2.1658
  140SAPE  H20S15298   3.825   5.434   8.778 -0.0036 -1.3450 -0.6615
  140SAPE  H20T15299   3.710   5.467   8.910  1.0210  1.3122 -0.4567
  140SAPE   C3315300   4.260   5.253   9.950  0.2996  0.0393 -0.1025
  140SAPE   H3X15301   4.326   5.342   9.937 -1.4394  1.5580  0.8438
  140SAPE   H3Y15302   4.160   5.268   9.903  0.5257  1.6437 -0.1344
  140SAPE   C3415303   4.327   5.142   9.876  0.3337  0.5457 -0.3616
  140SAPE   H4X15304   4.260   5.054   9.860  0.8711 -0.0135  0.3642
  140SAPE   H4Y15305   4.416   5.101   9.929 -0.8286 -1.8569 -0.1184
  140SAPE   C3515306   4.372   5.187   9.732  0.1015  0.1830 -0.4392
  140SAPE   H5X15307   4.454   5.262   9.734  0.0485  0.2312  1.4995
  140SAPE   H5Y15308   4.290   5.222   9.667 -0.0468 -0.8473 -0.8339
  140SAPE   C3615309   4.431   5.069   9.652  0.0679 -0.3690 -0.6982
  140SAPE   H6X15310   4.350   4.993   9.653 -1.6203  1.3676  0.2124
  140SAPE   H6Y15311   4.529   5.033   9.688  0.5684  1.8345  0.2819
  140SAPE   C3715312   4.454   5.095   9.504 -0.0848 -0.0834  0.3608
  140SAPE   H7X15313   4.546   5.157   9.492  0.0292 -0.2480  0.3936
  140SAPE   H7Y15314   4.374   5.149   9.449  1.9001  1.6392 -1.0380
  140SAPE   C3815315   4.467   4.962   9.426 -0.4598  0.4074  0.1350
  140SAPE   H8X15316   4.394   4.892   9.472  0.7782 -0.6718  0.5066
  140SAPE   H8Y15317   4.560   4.907   9.449  0.2957  0.6903 -1.9829
  140SAPE   C3915318   4.465   4.980   9.274  0.8519  0.0569  0.3792
  140SAPE   H9X15319   4.543   5.054   9.247 -0.0743  1.1563  0.6526
  140SAPE   H9Y15320   4.370   5.018   9.232  0.2976  0.8981  2.2860
  140SAPE  C31015321   4.508   4.849   9.199 -0.5141  0.0670 -0.6183
  140SAPE  H10X15322   4.457   4.756   9.230 -0.0091 -0.2143 -0.6309
  140SAPE  H10Y15323   4.615   4.842   9.228 -0.6492  0.6579  0.0675
  140SAPE  C31115324   4.501   4.863   9.047 -0.3729 -1.1399  0.1806
  140SAPE  H11X15325   4.552   4.958   9.024  1.3884 -2.0519  0.1535
  140SAPE  H11Y15326   4.396   4.878   9.013  0.3949 -1.2771 -2.4800
  140SAPE  C31215327   4.560   4.755   8.960 -0.3134 -0.1715 -0.4873
  140SAPE  H12X15328   4.564   4.788   8.854 -0.1919 -1.0652 -0.7775
  140SAPE  H12Y15329   4.510   4.656   8.961 -0.3228 -0.1731  0.9276
  140SAPE  C31315330   4.695   4.709   9.014 -0.1208  0.0592 -0.0647
  140SAPE  H13X15331   4.677   4.658   9.111 -1.9736 -0.8364 -0.8224
  140SAPE  H13Y15332   4.744   4.805   9.042  1.5959 -0.3075 -1.6134
  140SAPE  C31415333   4.786   4.638   8.911  0.1628 -0.5835  0.3609
  140SAPE  H14X15334   4.813   4.708   8.830  0.4335 -0.7718  0.2906
  140SAPE  H14Y15335   4.732   4.556   8.860 -0.4217 -0.0218  0.0658
  140SAPE  C31515336   4.918   4.585   8.976 -0.2904 -0.0911 -1.0662
  140SAPE  H15X15337   5.000   4.564   8.903  2.2902  1.7668  1.0842
  140SAPE  H15Y15338   4.886   4.493   9.030 -0.7703  0.9078  0.4032
  140SAPE  C31615339   4.988   4.678   9.081 -0.5097 -0.5428 -0.1937
  140SAPE  H16X15340   4.904   4.707   9.147 -1.7883  0.6478 -2.2388
  140SAPE  H16Y15341   5.030   4.772   9.039 -1.3939  0.7861  1.7535
  140SAPE  C31715342   5.086   4.603   9.176  0.2584 -0.0836 -0.0072
  140SAPE  H17X15343   5.183   4.603   9.121  0.2912  1.8735 -0.0078
  140SAPE  H17Y15344   5.055   4.500   9.203  0.3429  0.3819  2.0647
  140SAPE  C31815345   5.104   4.679   9.304 -0.1678 -0.1026 -1.2653
  140SAPE  H18X15346   5.161   4.769   9.273  0.9978 -0.5644 -0.5405
  140SAPE  H18Y15347   5.164   4.625   9.380  1.0114  0.7712 -1.5447
  140SAPE  H18Z15348   5.001   4.698   9.343  0.5828  2.7062 -0.4230
  141SAPE     N15349   3.762   4.829  11.118  0.5831  0.6724 -0.0608
  141SAPE   HN115350   3.764   4.919  11.065  2.5152  0.7834  0.1265
  141SAPE   HN215351   3.768   4.840  11.221 -2.1399  1.6027  0.0845
  141SAPE   HN315352   3.831   4.761  11.080 -0.5270 -0.4594 -0.0921
  141SAPE   C1215353   3.626   4.784  11.081  0.3297  0.2381  0.3593
  141SAPE  H12A15354   3.559   4.812  11.166 -0.9047  1.0317 -0.8323
  141SAPE  H12B15355   3.625   4.673  11.076  1.3593  0.0421  2.8023
  141SAPE   C1115356   3.567   4.839  10.953  0.5380 -0.0563  0.3189
  141SAPE  H11A15357   3.476   4.778  10.933  0.4945  0.2763 -0.5414
  141SAPE  H11B15358   3.632   4.813  10.867 -2.0515  2.0139 -2.4865
  141SAPE     P15359   3.613   5.102  10.935 -0.1056  0.0057 -0.1836
  141SAPE   O1315360   3.532   5.213  10.987 -0.2766  0.3448 -0.0990
  141SAPE   O1415361   3.733   5.068  11.003 -0.2027 -0.3270 -0.1506
  141SAPE   O1215362   3.526   4.971  10.952  0.1239  0.2127  0.2915
  141SAPE   O1115363   3.627   5.116  10.780 -0.0665 -0.1496 -0.1266
  141SAPE    C115364   3.537   5.190  10.700 -0.0508 -0.0327  0.0788
  141SAPE    HA15365   3.467   5.254  10.758 -0.5267 -0.3285 -0.1589
  141SAPE    HB15366   3.593   5.265  10.639 -2.1357  0.0796 -1.8553
  141SAPE    C215367   3.451   5.108  10.615  0.3509  0.6621 -0.0631
  141SAPE    HS15368   3.378   5.054  10.679 -0.2307 -0.4210 -1.5773
  141SAPE   O2115369   3.532   5.013  10.540  0.0355  0.4854 -0.3011
  141SAPE   C2115370   3.473   4.900  10.517 -0.0174 -0.0043  0.0161
  141SAPE   O2215371   3.389   4.843  10.583  0.6412 -0.6640  0.3032
  141SAPE   C2215372   3.527   4.847  10.384  0.2830 -0.7159  0.4297
  141SAPE   H2R15373   3.533   4.923  10.303 -0.0254 -1.5398 -0.3853
  141SAPE   H2S15374   3.630   4.816  10.411  0.9537  2.4952  2.1480
  141SAPE    C315375   3.351   5.198  10.522  0.1562 -0.4257  0.4491
  141SAPE    HX15376   3.416   5.264  10.461 -1.2573 -0.8462 -1.6459
  141SAPE    HY15377   3.282   5.246  10.595 -0.3655 -0.0476 -0.2721
  141SAPE   O3115378   3.269   5.116  10.427  0.2441  0.1743 -0.3714
  141SAPE   C3115379   3.180   5.180  10.360 -0.6531 -0.8323  0.6962
  141SAPE   O3215380   3.189   5.303  10.334 -0.2383  0.6550 -0.5461
  141SAPE   C3215381   3.083   5.083  10.295 -0.3606 -0.6017 -0.0983
  141SAPE   H2X15382   3.004   5.067  10.372  0.8059 -0.4547  1.1579
  141SAPE   H2Y15383   3.113   4.978  10.278 -0.2260 -0.3829 -1.3550
  141SAPE   C2315384   3.444   4.715  10.342 -0.1537 -0.0674  0.5613
  141SAPE   H3R15385   3.425   4.634  10.415 -1.8990 -0.1034  0.1150
  141SAPE   H3S15386   3.488   4.670  10.251 -0.3745 -0.0154  0.4273
  141SAPE   C2415387   3.308   4.757  10.292  0.2398 -0.9950  0.1930
  141SAPE   H4R15388   3.334   4.847  10.232  0.3134 -1.7170 -0.8733
  141SAPE   H4S15389   3.259   4.801  10.382  3.0522  0.6872  1.0547
  141SAPE   C2515390   3.226   4.650  10.227 -0.0667 -0.3884  0.2236
  141SAPE   H5R15391   3.142   4.615  10.288  1.0773 -2.2453  0.8273
  141SAPE   C2615392   3.239   4.594  10.101 -0.0938 -1.8967 -0.0608
  141SAPE   H6R15393   3.157   4.528  10.071 -0.1045 -2.3649  0.9591
  141SAPE   C2715394   3.348   4.628  10.006 -0.3060 -0.2967  0.0456
  141SAPE   H7R15395   3.429   4.693  10.047  0.4209 -0.8916 -0.4237
  141SAPE   H7S15396   3.306   4.672   9.913 -2.2019 -1.0894  0.4855
  141SAPE   C2815397   3.422   4.501   9.969  0.9013 -0.0385  0.2736
  141SAPE   H8R15398   3.387   4.419  10.034 -0.4327  0.8853  0.7687
  141SAPE   C2915399   3.492   4.477   9.858 -0.1844 -0.4791 -0.0280
  141SAPE   H9R15400   3.528   4.375   9.839  1.6406  0.3494 -1.2549
  141SAPE  C21015401   3.522   4.582   9.759  0.2527  0.6862 -0.5217
  141SAPE  H10R15402   3.490   4.678   9.804 -0.8644  1.7430 -3.3316
  141SAPE  H10S15403   3.454   4.559   9.674  2.2291 -3.9456 -1.1429
  141SAPE  C21115404   3.665   4.563   9.723 -0.0479 -0.1786 -0.2194
  141SAPE  H11R15405   3.736   4.606   9.795  0.2042 -0.5938 -0.2147
  141SAPE  C21215406   3.717   4.533   9.608 -0.0612  0.3237  0.5973
  141SAPE  H12R15407   3.826   4.524   9.599  0.0111  1.0414  0.7636
  141SAPE  C21315408   3.638   4.507   9.479  0.2867 -0.1646  0.3272
  141SAPE  H13R15409   3.539   4.459   9.492  0.8629 -1.2659  0.8944
  141SAPE  H13S15410   3.691   4.429   9.419  0.3687  1.3360 -1.6283
  141SAPE  C21415411   3.622   4.631   9.398  0.1355  0.0916 -0.4200
  141SAPE  H14R15412   3.544   4.696   9.440 -0.1648  0.5767 -1.6806
  141SAPE  C21515413   3.680   4.660   9.271  0.3424  0.9964  0.4823
  141SAPE  H15R15414   3.658   4.750   9.213 -2.7836 -0.8342 -1.4156
  141SAPE  C21615415   3.775   4.566   9.204  0.4250 -0.3873  0.2537
  141SAPE  H16R15416   3.739   4.462   9.216  0.6931 -0.6154 -0.8380
  141SAPE  H16S15417   3.879   4.575   9.241  0.5097 -2.7509  0.7475
  141SAPE  C21715418   3.772   4.587   9.049  0.0187  0.4241  0.0466
  141SAPE  H17R15419   3.850   4.519   9.009  1.1281  1.0538  1.0882
  141SAPE  H17S15420   3.806   4.691   9.032  0.8700  0.5948  2.3433
  141SAPE  C21815421   3.631   4.571   8.979  0.0429 -0.3182  0.0084
  141SAPE  H18R15422   3.560   4.634   9.037 -1.4043 -1.3661 -0.5869
  141SAPE  H18S15423   3.597   4.466   8.975 -0.6624 -0.0761 -0.6455
  141SAPE  C21915424   3.642   4.625   8.834 -0.5901 -0.2597 -0.2669
  141SAPE  H19R15425   3.722   4.572   8.778 -1.3565 -0.5356 -1.1288
  141SAPE  H19S15426   3.673   4.729   8.858 -0.0312 -0.8160  1.6017
  141SAPE  C22015427   3.509   4.623   8.762 -0.0351  0.1639  0.0832
  141SAPE  H20R15428   3.462   4.523   8.774 -1.5742  0.5224 -2.2598
  141SAPE  H20S15429   3.524   4.642   8.653  2.3762 -1.8676 -0.0493
  141SAPE  H20T15430   3.438   4.694   8.809 -0.9465 -1.8088  1.8923
  141SAPE   C3315431   3.019   5.148  10.169  0.2087  0.1677  0.5101
  141SAPE   H3X15432   2.971   5.240  10.208  1.8209  0.2152  2.5582
  141SAPE   H3Y15433   2.941   5.076  10.135  1.1964 -1.6805  1.9299
  141SAPE   C3415434   3.111   5.170  10.049 -0.3304  0.3353  0.5407
  141SAPE   H4X15435   3.182   5.253  10.067  0.0844  0.2307 -0.5063
  141SAPE   H4Y15436   3.060   5.197   9.954  0.1895 -1.4614 -0.3031
  141SAPE   C3515437   3.204   5.053  10.008  0.0429 -0.2279 -0.0614
  141SAPE   H5X15438   3.138   4.965  10.010 -2.0475  1.2678 -0.2716
  141SAPE   H5Y15439   3.279   5.039  10.090  0.7648  0.0351 -0.6597
  141SAPE   C3615440   3.282   5.085   9.877 -0.3528  1.0069 -0.1349
  141SAPE   H6X15441   3.368   5.153   9.892  0.1469  0.3847 -0.1312
  141SAPE   H6Y15442   3.221   5.150   9.811 -0.4233  0.4232 -0.6622
  141SAPE   C3715443   3.328   4.955   9.821 -0.2877  0.5346 -0.4246
  141SAPE   H7X15444   3.259   4.871   9.845 -0.4391  0.1417 -2.1114
  141SAPE   H7Y15445   3.428   4.923   9.858 -0.4730  2.2473  1.7197
  141SAPE   C3815446   3.347   4.959   9.668  0.6251 -0.0737  0.0560
  141SAPE   H8X15447   3.366   4.857   9.629 -1.6178 -0.3654 -0.3987
  141SAPE   H8Y15448   3.425   5.026   9.626  0.2735 -0.5604 -1.4052
  141SAPE   C3915449   3.218   4.996   9.582 -0.4238  0.6171 -0.0338
  141SAPE   H9X15450   3.216   5.107   9.591 -0.3266  0.5022  1.8512
  141SAPE   H9Y15451   3.133   4.956   9.640  1.1383 -1.3904  1.0185
  141SAPE  C31015452   3.209   4.963   9.431 -0.4478 -0.7501  0.1116
  141SAPE  H10X15453   3.111   4.975   9.380  0.6931 -1.9877 -2.5764
  141SAPE  H10Y15454   3.230   4.856   9.412 -3.0715 -1.0753 -1.3319
  141SAPE  C31115455   3.306   5.046   9.347 -0.5576  0.1371  0.1854
  141SAPE  H11X15456   3.404   5.035   9.398  0.0889 -1.8959 -1.3469
  141SAPE  H11Y15457   3.270   5.151   9.355 -1.4243 -0.0935 -0.5823
  141SAPE  C31215458   3.321   4.998   9.199  0.3582  0.0941 -0.2963
  141SAPE  H12X15459   3.335   4.887   9.192 -1.3431 -0.6168  4.2587
  141SAPE  H12Y15460   3.403   5.057   9.153  0.1372  1.0014  0.4609
  141SAPE  C31315461   3.183   5.034   9.120 -0.3882  0.1417 -0.6578
  141SAPE  H13X15462   3.170   5.144   9.127  0.1634  0.4953 -3.7618
  141SAPE  H13Y15463   3.092   4.981   9.157 -1.9134  1.3653 -2.4544
  141SAPE  C31415464   3.183   5.011   8.968  0.2454 -0.3479 -0.2568
  141SAPE  H14X15465   3.255   5.078   8.917  0.4418 -0.4256 -0.0865
  141SAPE  H14Y15466   3.081   5.039   8.934  0.4011  2.4051  1.3251
  141SAPE  C31515467   3.218   4.863   8.923 -0.1616 -0.1706 -0.2662
  141SAPE  H15X15468   3.315   4.845   8.974  0.6796  3.5067 -0.2974
  141SAPE  H15Y15469   3.225   4.856   8.812 -0.8452  1.5518 -0.4475
  141SAPE  C31615470   3.118   4.752   8.969  0.1752 -0.2449 -0.3884
  141SAPE  H16X15471   3.041   4.747   8.889  0.9311  1.3971 -1.2608
  141SAPE  H16Y15472   3.064   4.782   9.062 -1.5746  1.9602 -1.9995
  141SAPE  C31715473   3.179   4.613   8.991  0.7050  0.6087  0.4725
  141SAPE  H17X15474   3.234   4.583   8.899  0.6133 -0.8574  0.8586
  141SAPE  H17Y15475   3.108   4.532   9.019  0.0713  1.0823  0.2410
  141SAPE  C31815476   3.270   4.594   9.117 -0.6539  0.0083  0.0377
  141SAPE  H18X15477   3.211   4.579   9.210 -0.5201  0.1797  0.1514
  141SAPE  H18Y15478   3.340   4.679   9.129  0.8631 -1.1611 -0.1735
  141SAPE  H18Z15479   3.338   4.507   9.111  0.9618  1.2488 -0.3131
  142SAPE     N15480   3.568   3.460  11.311  0.2117 -0.6533  0.6095
  142SAPE   HN115481   3.656   3.447  11.257 -0.6778  1.9870 -1.7311
  142SAPE   HN215482   3.542   3.558  11.285  3.0192 -0.0603 -0.3482
  142SAPE   HN315483   3.594   3.477  11.410  2.2343  1.2131 -0.1443
  142SAPE   C1215484   3.476   3.350  11.266  0.2445  0.1768  0.3842
  142SAPE  H12A15485   3.379   3.366  11.318 -1.5323 -1.0112 -2.3349
  142SAPE  H12B15486   3.512   3.251  11.302 -0.4027 -0.3008 -0.2432
  142SAPE   C1115487   3.465   3.353  11.110  1.2711  0.5224  0.2300
  142SAPE  H11A15488   3.549   3.305  11.055 -0.8350 -2.7207 -0.4680
  142SAPE  H11B15489   3.454   3.460  11.085  1.0687  0.6400  0.8142
  142SAPE     P15490   3.330   3.146  11.028 -0.4360  0.1274 -0.0299
  142SAPE   O1315491   3.403   3.069  11.136 -0.0486  0.1752  0.0977
  142SAPE   O1415492   3.196   3.110  10.994 -0.3949 -0.0871 -0.1324
  142SAPE   O1215493   3.345   3.295  11.066 -0.3541 -0.3955  0.0716
  142SAPE   O1115494   3.420   3.135  10.902  0.2601 -0.7664 -0.1973
  142SAPE    C115495   3.384   3.222  10.791 -0.7929  0.2525  0.0928
  142SAPE    HA15496   3.273   3.227  10.782 -0.9284  0.2369  1.4901
  142SAPE    HB15497   3.431   3.320  10.815 -1.6574  0.1921  2.3234
  142SAPE    C215498   3.438   3.164  10.652 -0.5365 -0.5228 -0.7520
  142SAPE    HS15499   3.424   3.244  10.575 -1.8444 -0.4299 -0.4512
  142SAPE   O2115500   3.356   3.050  10.605  0.4202  0.1270 -0.1508
  142SAPE   C2115501   3.230   3.065  10.575 -0.1487 -0.5989 -0.0184
  142SAPE   O2215502   3.167   3.173  10.588  0.3728  0.1308 -0.2179
  142SAPE   C2215503   3.168   2.930  10.539 -0.7174  0.9566  0.6566
  142SAPE   H2R15504   3.229   2.849  10.585 -1.0094 -1.2796 -2.5911
  142SAPE   H2S15505   3.067   2.933  10.585 -1.6653 -3.5141 -0.7049
  142SAPE    C315506   3.588   3.132  10.668  0.0393 -0.1850  0.3583
  142SAPE    HX15507   3.610   3.053  10.742  1.8824  0.4762  0.5835
  142SAPE    HY15508   3.630   3.229  10.702 -3.5049  2.2499 -1.5782
  142SAPE   O3115509   3.646   3.086  10.539  0.3111  0.0310  0.1729
  142SAPE   C3115510   3.748   3.002  10.537  0.1176 -0.1282 -0.2368
  142SAPE   O3215511   3.801   2.956  10.639 -0.1419  0.6539  0.7058
  142SAPE   C3215512   3.783   2.964  10.388  0.6345 -0.0674 -0.2708
  142SAPE   H2X15513   3.876   3.019  10.361  1.7878 -1.3152  0.9995
  142SAPE   H2Y15514   3.699   2.991  10.321  0.9600  1.3260 -0.1408
  142SAPE   C2315515   3.148   2.915  10.390  0.0760 -0.0515  0.6084
  142SAPE   H3R15516   3.098   3.007  10.351  1.9523  1.0170  0.6083
  142SAPE   H3S15517   3.087   2.823  10.381  3.3951 -2.2113 -3.1022
  142SAPE   C2415518   3.272   2.885  10.305 -0.9157  0.4674  0.2257
  142SAPE   H4R15519   3.251   2.829  10.211  1.8210 -1.8714  0.8633
  142SAPE   H4S15520   3.328   2.808  10.363 -0.3790  1.1438  0.6232
  142SAPE   C2515521   3.366   3.000  10.272 -0.4010 -0.0688  0.6364
  142SAPE   H5R15522   3.414   3.033  10.365  0.1268 -1.4819  0.9049
  142SAPE   C2615523   3.391   3.055  10.151  0.8382  0.2982  0.1065
  142SAPE   H6R15524   3.452   3.147  10.151  3.1076 -1.1200 -0.2215
  142SAPE   C2715525   3.321   3.020  10.017 -0.8580 -0.7947  0.2331
  142SAPE   H7R15526   3.298   3.112   9.959  1.7418  0.4085  0.9773
  142SAPE   H7S15527   3.225   2.969  10.040 -1.2894  0.0817  0.3933
  142SAPE   C2815528   3.399   2.916   9.937  0.1567  0.0582 -0.9302
  142SAPE   H8R15529   3.496   2.893   9.984 -0.0036  1.4518  0.1687
  142SAPE   C2915530   3.374   2.880   9.815  0.5293  0.2847  0.0226
  142SAPE   H9R15531   3.431   2.800   9.765  3.4943  2.7122 -0.7600
  142SAPE  C21015532   3.261   2.931   9.732  0.7283 -0.4625 -0.3602
  142SAPE  H10R15533   3.196   3.004   9.785  2.3309  0.7452 -0.0009
  142SAPE  H10S15534   3.198   2.844   9.703  0.8606 -0.2197 -1.4400
  142SAPE  C21115535   3.322   3.005   9.621  0.2282 -0.1109  0.8824
  142SAPE  H11R15536   3.391   3.089   9.640  2.9795 -1.4067 -2.3204
  142SAPE  C21215537   3.308   2.971   9.495 -0.0245  0.5477  0.6905
  142SAPE  H12R15538   3.370   3.022   9.419  0.7062  1.2168  1.7075
  142SAPE  C21315539   3.236   2.845   9.434  0.4496  0.0837 -0.4565
  142SAPE  H13R15540   3.207   2.784   9.522 -1.2008  2.5154  0.8021
  142SAPE  H13S15541   3.313   2.787   9.379  1.1408  0.1856  0.3959
  142SAPE  C21415542   3.125   2.887   9.343 -0.0369 -0.2384  0.2104
  142SAPE  H14R15543   3.028   2.885   9.395  1.6240  1.1706  3.6393
  142SAPE  C21515544   3.128   2.914   9.212 -0.2500  0.3423 -0.5262
  142SAPE  H15R15545   3.034   2.944   9.163 -2.0185 -0.4458  2.2094
  142SAPE  C21615546   3.254   2.913   9.124  0.0044 -0.2841  0.2590
  142SAPE  H16R15547   3.343   2.897   9.189  1.2765  1.2282 -1.0053
  142SAPE  H16S15548   3.273   3.001   9.059 -1.9878 -1.1829 -1.6698
  142SAPE  C21715549   3.265   2.783   9.040 -0.2107 -0.2191  0.2457
  142SAPE  H17R15550   3.265   2.694   9.105 -4.2972  0.1298  0.9560
  142SAPE  H17S15551   3.347   2.797   8.965 -1.8305  2.3495 -1.2294
  142SAPE  C21815552   3.139   2.767   8.953  0.1457 -0.8964  0.9054
  142SAPE  H18R15553   3.141   2.854   8.883 -0.0240 -2.0914 -0.6338
  142SAPE  H18S15554   3.042   2.763   9.006 -1.5389  0.6106 -1.8239
  142SAPE  C21915555   3.155   2.653   8.853 -0.0781  0.3168  0.4233
  142SAPE  H19R15556   3.262   2.631   8.834  0.3547  1.5640  1.2620
  142SAPE  H19S15557   3.114   2.696   8.759  1.7215  2.3271  0.4591
  142SAPE  C22015558   3.092   2.518   8.896  0.2633  0.2360  0.1483
  142SAPE  H20R15559   2.986   2.516   8.862 -0.5573 -1.9520  2.5327
  142SAPE  H20S15560   3.097   2.500   9.005  1.5625 -0.8235 -0.0627
  142SAPE  H20T15561   3.139   2.434   8.841  0.3170  0.0286  0.5067
  142SAPE   C3315562   3.836   2.818  10.389 -0.6444  0.2960 -1.2904
  142SAPE   H3X15563   3.765   2.752  10.336 -0.8282  0.6903 -1.5378
  142SAPE   H3Y15564   3.865   2.787  10.492 -2.2839  1.0124 -0.5996
  142SAPE   C3415565   3.975   2.811  10.317  0.6081 -0.2708 -0.4756
  142SAPE   H4X15566   4.027   2.719  10.353 -1.1264 -0.7241  1.0716
  142SAPE   H4Y15567   4.040   2.899  10.337  0.5824 -0.4760  0.5731
  142SAPE   C3515568   3.952   2.786  10.168 -0.1377 -0.0432 -0.0033
  142SAPE   H5X15569   3.899   2.690  10.148  2.0876 -1.6132  1.1613
  142SAPE   H5Y15570   4.055   2.777  10.128  0.3972 -1.6330  1.5959
  142SAPE   C3615571   3.909   2.914  10.088 -0.2008 -0.1827 -0.0673
  142SAPE   H6X15572   3.979   2.993  10.125 -2.3631  1.7505  0.1087
  142SAPE   H6Y15573   3.799   2.928  10.089 -0.1128  0.6842 -0.8778
  142SAPE   C3715574   3.926   2.908   9.936  0.1873 -0.1911 -0.5977
  142SAPE   H7X15575   4.022   2.863   9.902 -0.9240 -1.8134 -1.7596
  142SAPE   H7Y15576   3.910   3.009   9.894 -0.5498  0.3408  0.8623
  142SAPE   C3815577   3.810   2.832   9.863  0.5659 -0.0953 -0.4079
  142SAPE   H8X15578   3.707   2.870   9.878  1.2100  1.0269  1.6802
  142SAPE   H8Y15579   3.800   2.732   9.909 -0.5364  0.8440  1.5043
  142SAPE   C3915580   3.848   2.826   9.713 -0.4057 -0.1358 -0.1543
  142SAPE   H9X15581   3.934   2.758   9.692  0.1261  0.8196 -1.2391
  142SAPE   H9Y15582   3.878   2.930   9.688  0.4864  0.2649  2.3618
  142SAPE  C31015583   3.738   2.770   9.614 -0.0179 -0.7162  0.0469
  142SAPE  H10X15584   3.641   2.817   9.640 -0.6743 -2.9126  1.9277
  142SAPE  H10Y15585   3.725   2.660   9.626 -2.6287 -0.8902 -3.1740
  142SAPE  C31115586   3.765   2.795   9.465  0.0681 -0.5466  0.3679
  142SAPE  H11X15587   3.866   2.761   9.432 -0.2207  0.1622 -1.3612
  142SAPE  H11Y15588   3.788   2.903   9.452  2.9488 -1.1091  0.0677
  142SAPE  C31215589   3.652   2.749   9.368 -0.2326  0.2058  0.5367
  142SAPE  H12X15590   3.576   2.826   9.393  1.5801  1.7275  1.6505
  142SAPE  H12Y15591   3.614   2.649   9.399  0.2307 -0.5630 -1.2176
  142SAPE  C31315592   3.687   2.746   9.217  0.0137  0.7559  0.1299
  142SAPE  H13X15593   3.793   2.712   9.217 -0.7626 -1.9548 -1.0928
  142SAPE  H13Y15594   3.679   2.853   9.189  0.4884  1.1970  1.5958
  142SAPE  C31415595   3.590   2.656   9.129 -0.5652  0.6574  0.1538
  142SAPE  H14X15596   3.488   2.699   9.144 -0.6025  1.3330 -1.7291
  142SAPE  H14Y15597   3.604   2.551   9.161 -1.1369 -0.0967 -1.8901
  142SAPE  C31515598   3.628   2.662   8.975  0.2793 -0.4582  0.0390
  142SAPE  H15X15599   3.736   2.637   8.972  0.3962 -0.5154  2.4545
  142SAPE  H15Y15600   3.612   2.767   8.944  2.1879 -0.4155 -0.9624
  142SAPE  C31615601   3.555   2.566   8.878  0.6576 -0.2244  0.6452
  142SAPE  H16X15602   3.447   2.583   8.896  0.1979  1.7868 -3.1097
  142SAPE  H16Y15603   3.584   2.459   8.892 -0.5420 -0.7405 -0.6089
  142SAPE  C31715604   3.578   2.599   8.738  0.2639 -0.1090 -0.3946
  142SAPE  H17X15605   3.687   2.605   8.715  0.2851  0.8575 -0.0669
  142SAPE  H17Y15606   3.544   2.704   8.724  0.8713  0.1866  0.3087
  142SAPE  C31815607   3.493   2.518   8.637  1.3272 -0.6106  0.5869
  142SAPE  H18X15608   3.491   2.407   8.644  1.0342 -0.5592  1.4566
  142SAPE  H18Y15609   3.521   2.557   8.537 -1.5628  0.3640  0.0662
  142SAPE  H18Z15610   3.390   2.559   8.645  1.3646 -0.8160  2.4843
  143SAPE     N15611   0.588   3.831  11.151  0.7343  0.6377  0.0698
  143SAPE   HN115612   0.609   3.918  11.204 -0.5064  1.4516 -0.7549
  143SAPE   HN215613   0.489   3.801  11.155  0.6519 -0.1557 -4.0092
  143SAPE   HN315614   0.651   3.758  11.192 -0.1836 -1.9156 -2.6518
  143SAPE   C1215615   0.623   3.869  11.011 -0.3168 -0.4893  0.3536
  143SAPE  H12A15616   0.573   3.967  10.994 -1.1804 -0.9443  0.2171
  143SAPE  H12B15617   0.564   3.804  10.943  1.3901  0.2280 -1.9707
  143SAPE   C1115618   0.773   3.873  10.989 -0.0725 -0.3049  0.4699
  143SAPE  H11A15619   0.796   3.897  10.883 -0.6019  0.4048  0.5077
  143SAPE  H11B15620   0.822   3.776  11.013 -1.8498 -0.9371  1.7578
  143SAPE     P15621   0.943   4.063  11.060  0.1758  0.0460 -0.0212
  143SAPE   O1315622   0.967   4.146  11.176  0.2305  0.1169  0.1206
  143SAPE   O1415623   1.066   3.994  11.011 -0.2027  0.0243 -0.4963
  143SAPE   O1215624   0.821   3.970  11.085  0.0479  0.2399 -0.6447
  143SAPE   O1115625   0.895   4.150  10.937 -0.1044  0.2790  0.1727
  143SAPE    C115626   0.787   4.247  10.959  0.1963 -0.5372 -0.4007
  143SAPE    HA15627   0.733   4.230  11.054 -1.6407 -0.4989 -1.3932
  143SAPE    HB15628   0.829   4.349  10.966 -1.4073  0.0940  0.4208
  143SAPE    C215629   0.680   4.235  10.847  0.7775 -0.0969 -0.3034
  143SAPE    HS15630   0.617   4.146  10.865 -0.6393  0.7276 -0.9609
  143SAPE   O2115631   0.746   4.224  10.721  0.2593 -0.3368  0.8940
  143SAPE   C2115632   0.682   4.148  10.632  0.0378  0.0232 -0.1100
  143SAPE   O2215633   0.588   4.068  10.661  0.6389 -0.5802 -0.0035
  143SAPE   C2215634   0.740   4.174  10.488  0.1397  0.0478  0.2532
  143SAPE   H2R15635   0.666   4.216  10.417  1.5787 -1.4648 -2.2895
  143SAPE   H2S15636   0.827   4.242  10.496  0.9530 -0.8352 -0.8663
  143SAPE    C315637   0.593   4.360  10.854  0.1757 -0.4348 -0.9155
  143SAPE    HX15638   0.665   4.444  10.866 -0.1546 -0.2755  0.0154
  143SAPE    HY15639   0.524   4.361  10.941  0.1604  1.7629 -0.9068
  143SAPE   O3115640   0.519   4.373  10.732 -0.1355 -0.2891  0.2586
  143SAPE   C3115641   0.399   4.299  10.730  0.1812 -0.1765 -0.1846
  143SAPE   O3215642   0.353   4.234  10.821  0.0084 -0.4572  0.1283
  143SAPE   C3215643   0.317   4.332  10.607  0.1976  0.1349 -0.6760
  143SAPE   H2X15644   0.372   4.309  10.513  0.2503 -0.5166 -0.4884
  143SAPE   H2Y15645   0.281   4.436  10.619 -1.7175 -0.3918 -1.4528
  143SAPE   C2315646   0.801   4.049  10.424 -0.3519 -0.1556 -0.1761
  143SAPE   H3R15647   0.715   3.978  10.425  0.0887 -0.6987  0.4421
  143SAPE   H3S15648   0.878   4.002  10.489 -1.1471 -3.8967 -1.6533
  143SAPE   C2415649   0.849   4.060  10.286 -0.4195 -0.5803 -0.2630
  143SAPE   H4R15650   0.770   4.104  10.222 -0.0022  0.6744  0.0585
  143SAPE   H4S15651   0.867   3.963  10.234  0.2761  0.8833 -2.8889
  143SAPE   C2515652   0.975   4.146  10.293  0.3415  0.2438  0.0033
  143SAPE   H5R15653   1.003   4.189  10.390  1.3303 -1.3177  0.4417
  143SAPE   C2615654   1.040   4.183  10.186 -0.0497  0.1040 -0.0281
  143SAPE   H6R15655   1.123   4.255  10.193 -2.0748  2.4587  2.1978
  143SAPE   C2715656   1.007   4.147  10.038 -0.6149 -0.3092 -0.2522
  143SAPE   H7R15657   0.901   4.113  10.032 -0.6858  0.0368 -1.2664
  143SAPE   H7S15658   1.073   4.061  10.016 -0.4731 -0.1038 -0.6423
  143SAPE   C2815659   1.029   4.253   9.935  0.1157  0.7782 -0.4020
  143SAPE   H8R15660   1.009   4.355   9.973  0.7588  1.1286 -0.9875
  143SAPE   C2915661   1.069   4.242   9.807  0.4349  0.8032  0.2996
  143SAPE   H9R15662   1.080   4.332   9.746  3.5389  0.3390  0.0310
  143SAPE  C21015663   1.107   4.104   9.740  0.0923 -1.2216 -0.1821
  143SAPE  H10R15664   1.125   4.024   9.815 -2.1033 -0.0321  1.7152
  143SAPE  H10S15665   1.209   4.120   9.697  0.6592  1.8419  2.0172
  143SAPE  C21115666   1.010   4.062   9.628 -0.1747  0.6624  0.3871
  143SAPE  H11R15667   0.909   4.028   9.655 -0.1610 -1.5849 -2.0608
  143SAPE  C21215668   1.024   4.065   9.492  0.3806 -0.4219 -0.1571
  143SAPE  H12R15669   0.937   4.033   9.434  0.0449  0.4255 -0.1298
  143SAPE  C21315670   1.146   4.091   9.411  0.4602 -0.6699  0.4156
  143SAPE  H13R15671   1.221   4.038   9.474  0.4236  1.8311  2.7370
  143SAPE  H13S15672   1.163   4.201   9.409 -1.5263 -0.2913  1.7713
  143SAPE  C21415673   1.137   4.035   9.269 -0.3153 -0.5638 -0.1861
  143SAPE  H14R15674   1.193   3.942   9.248  2.1998  0.6356  0.7256
  143SAPE  C21515675   1.065   4.090   9.174  0.0584  0.4905  0.2789
  143SAPE  H15R15676   1.081   4.040   9.077 -0.7315 -2.4492  1.5654
  143SAPE  C21615677   0.976   4.209   9.184  0.8165  0.1801  0.4025
  143SAPE  H16R15678   1.016   4.298   9.131 -1.3098  1.0608  0.1912
  143SAPE  H16S15679   0.963   4.241   9.290 -0.3520 -0.2672  0.4065
  143SAPE  C21715680   0.834   4.176   9.125 -0.7820  0.1301 -0.5012
  143SAPE  H17R15681   0.841   4.145   9.018 -0.0242  0.4814 -0.5597
  143SAPE  H17S15682   0.776   4.270   9.132  1.2488  1.4755 -1.0565
  143SAPE  C21815683   0.757   4.056   9.192  0.7482  0.4190 -0.3053
  143SAPE  H18R15684   0.775   4.058   9.302 -2.0220  0.2897  0.2365
  143SAPE  H18S15685   0.808   3.964   9.157  1.8311  0.8370  0.1273
  143SAPE  C21915686   0.604   4.067   9.157 -0.4691  1.4235  0.1587
  143SAPE  H19R15687   0.560   4.160   9.199 -2.1949  0.4012  0.7556
  143SAPE  H19S15688   0.555   3.982   9.210 -2.3012  1.6678 -1.0499
  143SAPE  C22015689   0.572   4.050   9.006 -0.0494  0.1775  0.8412
  143SAPE  H20R15690   0.609   3.950   8.975  0.6328  0.8772 -0.7318
  143SAPE  H20S15691   0.637   4.123   8.954  1.8708 -0.8821  1.6255
  143SAPE  H20T15692   0.464   4.061   8.984 -0.1438 -1.9391 -0.0318
  143SAPE   C3315693   0.185   4.245  10.591 -0.0060  0.7448 -0.7351
  143SAPE   H3X15694   0.111   4.283  10.666 -0.1586  0.0259 -0.5057
  143SAPE   H3Y15695   0.203   4.137  10.611 -0.9573  0.4869 -1.1876
  143SAPE   C3415696   0.117   4.268  10.455  0.3326 -0.4945 -0.0426
  143SAPE   H4X15697   0.200   4.290  10.385 -0.8665  0.9688 -1.0487
  143SAPE   H4Y15698   0.050   4.356  10.444 -1.5872 -2.0482 -1.4695
  143SAPE   C3515699   0.034   4.150  10.409  0.9999  0.0247 -0.2974
  143SAPE   H5X15700  -0.058   4.143  10.470  1.0732 -0.8091 -0.2803
  143SAPE   H5Y15701   0.093   4.059  10.431 -1.6323 -1.5783  0.5011
  143SAPE   C3615702   0.016   4.154  10.255 -0.2245 -0.4269 -0.3020
  143SAPE   H6X15703  -0.011   4.052  10.220 -1.1124 -0.7132  1.1306
  143SAPE   H6Y15704   0.110   4.179  10.202 -0.9849 -1.3638 -2.1628
  143SAPE   C3715705  -0.083   4.255  10.213 -0.3844  0.3404  0.2310
  143SAPE   H7X15706  -0.059   4.358  10.246 -1.3867  0.5551  0.3259
  143SAPE   H7Y15707  -0.184   4.245  10.258  0.4789 -3.1567  1.7427
  143SAPE   C3815708  -0.099   4.266  10.059  0.6645  0.4181 -0.0876
  143SAPE   H8X15709  -0.133   4.162  10.034  0.0592  0.0499  2.0658
  143SAPE   H8Y15710  -0.003   4.279  10.006 -0.4463  2.8455 -1.6735
  143SAPE   C3915711  -0.199   4.370  10.016  1.0371 -0.3422 -0.2772
  143SAPE   H9X15712  -0.146   4.467  10.030  2.5648 -1.0576 -0.9258
  143SAPE   H9Y15713  -0.290   4.365  10.080  1.6185  2.5551  0.9586
  143SAPE  C31015714  -0.237   4.355   9.869 -0.2843 -0.3115  0.0142
  143SAPE  H10X15715  -0.319   4.425   9.842  0.8105  0.6628 -0.8935
  143SAPE  H10Y15716  -0.266   4.249   9.855  1.3429 -0.7530 -0.1254
  143SAPE  C31115717  -0.113   4.388   9.776  0.3348 -0.7413 -0.5776
  143SAPE  H11X15718  -0.019   4.334   9.797  0.2802 -0.3917  0.6093
  143SAPE  H11Y15719  -0.099   4.496   9.798 -4.6518  0.2433 -0.8988
  143SAPE  C31215720  -0.149   4.396   9.622  0.0210 -0.2234 -0.1367
  143SAPE  H12X15721  -0.066   4.457   9.581  0.6331 -1.3038 -0.5286
  143SAPE  H12Y15722  -0.236   4.463   9.602  0.2637  0.0434 -0.3114
  143SAPE  C31315723  -0.163   4.259   9.557 -0.0062 -0.2061 -0.3279
  143SAPE  H13X15724  -0.248   4.203   9.602  0.8076  0.4264  2.1872
  143SAPE  H13Y15725  -0.072   4.199   9.577 -0.5719 -1.1004 -0.3917
  143SAPE  C31415726  -0.180   4.271   9.405  0.1994 -0.2628  0.3243
  143SAPE  H14X15727  -0.268   4.337   9.396  0.3771 -0.1875 -1.0992
  143SAPE  H14Y15728  -0.203   4.170   9.363 -0.3119  0.6095 -1.6297
  143SAPE  C31515729  -0.060   4.327   9.326 -0.1208  0.4588 -0.0983
  143SAPE  H15X15730   0.018   4.248   9.319 -0.4180 -0.0373  1.7760
  143SAPE  H15Y15731  -0.016   4.421   9.365  1.6489  1.0808 -3.2407
  143SAPE  C31615732  -0.105   4.346   9.183 -0.1106 -0.6862  0.3776
  143SAPE  H16X15733  -0.188   4.419   9.170 -0.8914 -1.5245  0.5341
  143SAPE  H16Y15734  -0.145   4.255   9.132  0.7383 -0.2218 -1.1788
  143SAPE  C31715735   0.004   4.395   9.092 -0.2517  0.3439 -0.0793
  143SAPE  H17X15736   0.104   4.353   9.114  0.2217  0.7110 -1.3980
  143SAPE  H17Y15737   0.009   4.505   9.107 -1.1388  0.6566 -1.7774
  143SAPE  C31815738  -0.023   4.378   8.941 -0.2309 -0.0775 -0.1167
  143SAPE  H18X15739   0.023   4.280   8.918  1.2064  0.7384 -0.9256
  143SAPE  H18Y15740   0.034   4.456   8.885  0.9117 -2.3111 -2.2354
  143SAPE  H18Z15741  -0.129   4.370   8.910 -0.4199 -1.0857  0.7484
  144SAPE     N15742   1.570   6.287  10.614 -0.5147  0.1937  0.8192
  144SAPE   HN115743   1.559   6.389  10.599 -2.8652  0.2890  2.6280
  144SAPE   HN215744   1.510   6.228  10.552  0.9339 -0.5404  0.0700
  144SAPE   HN315745   1.542   6.282  10.714  1.9936  0.2858  1.5961
  144SAPE   C1215746   1.721   6.249  10.601 -0.0814 -0.1312  0.0363
  144SAPE  H12A15747   1.738   6.204  10.501  0.2905  1.1833 -0.5119
  144SAPE  H12B15748   1.736   6.178  10.685 -3.0772  1.4295  2.0706
  144SAPE   C1115749   1.806   6.371  10.608 -0.0157 -0.2144  0.1788
  144SAPE  H11A15750   1.801   6.444  10.525  0.8356  2.1790  2.1046
  144SAPE  H11B15751   1.912   6.339  10.604  0.9404  2.4790  1.2219
  144SAPE     P15752   1.857   6.562  10.781  0.1464  0.1028  0.0138
  144SAPE   O1315753   1.774   6.639  10.883 -0.0291  0.0594  0.3726
  144SAPE   O1415754   1.994   6.519  10.823  0.9755 -0.0964 -0.4302
  144SAPE   O1215755   1.780   6.438  10.730 -0.0721 -0.1678  0.1346
  144SAPE   O1115756   1.866   6.646  10.646 -0.0501  0.1661 -0.1387
  144SAPE    C115757   1.754   6.728  10.608 -0.0265  1.1808 -1.2738
  144SAPE    HA15758   1.658   6.681  10.638  1.4101 -1.1895 -0.0341
  144SAPE    HB15759   1.757   6.821  10.669 -0.5335  0.5915 -0.3205
  144SAPE    C215760   1.758   6.759  10.459 -0.6283 -0.9211  0.6231
  144SAPE    HS15761   1.726   6.665  10.410 -1.9393 -0.5173  0.6625
  144SAPE   O2115762   1.894   6.803  10.415  0.8991  0.1973 -0.5971
  144SAPE   C2115763   1.970   6.727  10.347 -0.8063 -0.0973  0.4087
  144SAPE   O2215764   1.942   6.612  10.318 -0.1261  0.3501 -0.1089
  144SAPE   C2215765   2.097   6.802  10.320 -0.2255  0.8277  0.1262
  144SAPE   H2R15766   2.090   6.904  10.277 -0.1614 -0.1165 -2.2438
  144SAPE   H2S15767   2.139   6.815  10.422 -1.1149  2.1197  0.3594
  144SAPE    C315768   1.660   6.874  10.424 -0.3986 -0.3394  0.4375
  144SAPE    HX15769   1.691   6.971  10.468 -0.2278 -0.1686 -0.0550
  144SAPE    HY15770   1.561   6.861  10.473 -0.9327  2.3614  0.2018
  144SAPE   O3115771   1.634   6.884  10.276 -0.2256  0.3574  0.2101
  144SAPE   C3115772   1.555   6.793  10.220  0.2083  0.2678  0.0251
  144SAPE   O3215773   1.495   6.703  10.282 -0.1228 -0.8169 -0.1455
  144SAPE   C3215774   1.528   6.828  10.075  0.0746  0.6655  0.7872
  144SAPE   H2X15775   1.613   6.893  10.044 -0.0573 -0.0818 -1.3079
  144SAPE   H2Y15776   1.425   6.868  10.069 -0.9560 -2.0077 -1.6403
  144SAPE   C2315777   2.208   6.717  10.245 -0.4449  0.5693  0.8604
  144SAPE   H3R15778   2.206   6.613  10.284 -0.2628 -0.6673 -2.1253
  144SAPE   H3S15779   2.309   6.759  10.262 -0.7798  1.8738 -0.2379
  144SAPE   C2415780   2.197   6.708  10.089  0.2890 -0.0737  0.5093
  144SAPE   H4R15781   2.108   6.646  10.066  0.9153 -0.4425 -1.0558
  144SAPE   H4S15782   2.289   6.656  10.053  0.7097  0.7131  0.4197
  144SAPE   C2515783   2.192   6.845  10.026 -0.2859 -0.2501  0.1892
  144SAPE   H5R15784   2.276   6.909  10.056 -0.3074 -0.4940  0.8040
  144SAPE   C2615785   2.110   6.890   9.926  0.6816 -0.4331 -0.1937
  144SAPE   H6R15786   2.136   6.986   9.880  2.1151 -0.2287  0.9779
  144SAPE   C2715787   1.986   6.817   9.866 -0.2354  0.0513 -0.0674
  144SAPE   H7R15788   1.937   6.768   9.952  0.7426  0.8660  0.9815
  144SAPE   H7S15789   2.017   6.746   9.786  2.4339 -0.4025  1.2713
  144SAPE   C2815790   1.885   6.919   9.810 -0.0423 -0.2091  0.7115
  144SAPE   H8R15791   1.831   6.975   9.888 -2.7338  0.0050 -1.1769
  144SAPE   C2915792   1.856   6.947   9.678  0.2901 -0.6167 -0.4907
  144SAPE   H9R15793   1.779   7.025   9.673 -1.3629 -1.8941  2.2416
  144SAPE  C21015794   1.904   6.890   9.553  0.7032  0.3367 -0.0106
  144SAPE  H10R15795   1.823   6.875   9.479 -1.7152  1.6384  2.1882
  144SAPE  H10S15796   1.946   6.789   9.575  2.2470  0.8152 -0.5847
  144SAPE  C21115797   2.011   6.970   9.487 -0.0217  0.3077  0.8889
  144SAPE  H11R15798   2.073   7.033   9.552 -0.8075  0.8853  1.0870
  144SAPE  C21215799   2.062   6.949   9.363 -0.8819 -0.3345 -0.2824
  144SAPE  H12R15800   2.144   7.011   9.326 -1.7265  1.1821  0.2834
  144SAPE  C21315801   2.003   6.843   9.272  0.2050 -0.0707 -0.2522
  144SAPE  H13R15802   1.946   6.763   9.323 -0.2547  0.9655  0.9106
  144SAPE  H13S15803   2.094   6.792   9.236 -0.0376 -1.5526  1.1446
  144SAPE  C21415804   1.914   6.900   9.164  0.6566  0.0475 -0.0934
  144SAPE  H14R15805   1.823   6.947   9.204  1.0643 -0.1275  1.0841
  144SAPE  C21515806   1.940   6.911   9.030 -0.7861  0.0082 -0.2274
  144SAPE  H15R15807   1.876   6.959   8.955 -0.2870  0.9580 -0.0762
  144SAPE  C21615808   2.057   6.861   8.954  0.2193  0.5858  0.1378
  144SAPE  H16R15809   2.087   6.759   8.987  0.0225  0.2822 -0.6091
  144SAPE  H16S15810   2.143   6.930   8.966 -0.9744  1.6924  3.1264
  144SAPE  C21715811   2.017   6.851   8.802 -0.6033 -0.1820 -0.0833
  144SAPE  H17R15812   1.928   6.786   8.791 -0.7754  0.1882 -0.9650
  144SAPE  H17S15813   2.103   6.805   8.750 -0.0916 -0.9212  1.3529
  144SAPE  C21815814   2.002   6.991   8.738  0.3181  0.3943  0.3128
  144SAPE  H18R15815   2.091   7.047   8.773  1.4699 -2.2946  1.9441
  144SAPE  H18S15816   1.914   7.054   8.761  1.1958  2.4348 -1.4748
  144SAPE  C21915817   1.991   6.977   8.581 -0.7112 -0.2260  0.6583
  144SAPE  H19R15818   1.905   6.908   8.564 -0.3409 -0.6862  0.6371
  144SAPE  H19S15819   2.076   6.915   8.544  0.8511  1.9179  0.5084
  144SAPE  C22015820   1.964   7.103   8.506 -0.2196 -0.6856  0.3621
  144SAPE  H20R15821   2.029   7.184   8.546  0.1381  0.3207 -2.0755
  144SAPE  H20S15822   1.856   7.117   8.528 -0.5678  0.3937 -1.7586
  144SAPE  H20T15823   1.991   7.080   8.400 -0.3760 -0.0625  0.1763
  144SAPE   C3315824   1.556   6.702   9.986  0.2379 -0.2710 -0.5227
  144SAPE   H3X15825   1.497   6.609   9.998 -0.9377  0.6538  1.2820
  144SAPE   H3Y15826   1.657   6.669  10.018  0.9992  1.8877 -0.5441
  144SAPE   C3415827   1.553   6.729   9.837 -1.1061  1.0202  0.5680
  144SAPE   H4X15828   1.605   6.825   9.817  0.1410  0.5277  1.2855
  144SAPE   H4Y15829   1.446   6.732   9.809 -1.5147  2.0176  2.0872
  144SAPE   C3515830   1.626   6.629   9.742 -0.5502 -0.0300 -0.4885
  144SAPE   H5X15831   1.591   6.524   9.755 -0.0337 -0.4093 -1.9835
  144SAPE   H5Y15832   1.734   6.625   9.767 -0.1107 -1.6194 -2.3433
  144SAPE   C3615833   1.607   6.653   9.595  0.4097  0.8507 -0.1111
  144SAPE   H6X15834   1.658   6.747   9.566  0.2786  0.4802 -1.6350
  144SAPE   H6Y15835   1.499   6.656   9.568  0.0604 -2.3266  0.5094
  144SAPE   C3715836   1.664   6.541   9.511 -0.0817  0.5615  0.2144
  144SAPE   H7X15837   1.578   6.471   9.510  0.6120 -0.3072 -0.2608
  144SAPE   H7Y15838   1.752   6.488   9.554  1.3433 -1.6946 -4.7423
  144SAPE   C3815839   1.676   6.577   9.362 -0.3410  0.5744  0.4615
  144SAPE   H8X15840   1.780   6.607   9.335 -0.2870 -1.3859 -1.8166
  144SAPE   H8Y15841   1.602   6.658   9.347 -1.0642  0.1909  1.8876
  144SAPE   C3915842   1.652   6.457   9.257  0.0680 -0.0998  0.2805
  144SAPE   H9X15843   1.561   6.400   9.284 -1.4690  1.8408 -0.4648
  144SAPE   H9Y15844   1.742   6.395   9.274  0.4218  0.7257  1.5669
  144SAPE  C31015845   1.655   6.510   9.110  0.0988 -0.2656 -0.1850
  144SAPE  H10X15846   1.759   6.547   9.101  0.3282 -0.8653  0.0114
  144SAPE  H10Y15847   1.584   6.595   9.102  1.2331  0.5774 -2.2790
  144SAPE  C31115848   1.632   6.400   9.002 -0.2342 -0.0829 -0.1746
  144SAPE  H11X15849   1.526   6.369   9.016 -0.5199  1.0979  0.4015
  144SAPE  H11Y15850   1.700   6.315   9.027  0.4081  0.5109  0.1172
  144SAPE  C31215851   1.656   6.443   8.858 -0.2420 -0.3459 -0.5443
  144SAPE  H12X15852   1.767   6.455   8.858 -0.2530 -0.1464  0.7465
  144SAPE  H12Y15853   1.613   6.545   8.842  1.6776  0.7295  0.7744
  144SAPE  C31315854   1.643   6.334   8.752 -0.7366  0.0935  0.2399
  144SAPE  H13X15855   1.710   6.251   8.784 -1.1955  0.5551  2.5372
  144SAPE  H13Y15856   1.685   6.377   8.658 -0.5730 -0.9629 -0.1977
  144SAPE  C31415857   1.501   6.277   8.720 -0.4613 -0.0067 -0.0650
  144SAPE  H14X15858   1.466   6.203   8.795 -0.9210 -1.5467 -1.7258
  144SAPE  H14Y15859   1.513   6.208   8.634  0.6224  1.1390 -0.8833
  144SAPE  C31515860   1.396   6.389   8.696 -0.2302 -0.3318 -0.1521
  144SAPE  H15X15861   1.441   6.447   8.613 -0.4941 -1.6722 -1.2884
  144SAPE  H15Y15862   1.390   6.458   8.782  1.5901 -0.1046 -0.1631
  144SAPE  C31615863   1.253   6.341   8.650 -0.5303 -0.0288 -0.5848
  144SAPE  H16X15864   1.200   6.284   8.730 -1.2109 -0.1252 -1.0997
  144SAPE  H16Y15865   1.264   6.264   8.571 -0.5862 -1.6114  0.8871
  144SAPE  C31715866   1.155   6.454   8.615  0.0506  0.1641  1.0917
  144SAPE  H17X15867   1.068   6.405   8.566  0.5949 -0.8151  1.0660
  144SAPE  H17Y15868   1.210   6.509   8.537 -0.0931 -1.5253 -0.2643
  144SAPE  C31815869   1.112   6.545   8.725  0.0301  0.6605  0.3013
  144SAPE  H18X15870   1.192   6.616   8.759 -0.3024  1.0860  0.2069
  144SAPE  H18Y15871   1.068   6.493   8.812  2.9340  0.3040  1.6804
  144SAPE  H18Z15872   1.042   6.612   8.671  2.3217  0.1763 -3.6527
  145SAPE     N15873   3.650   2.980  11.167 -0.2008 -0.0368 -0.2797
  145SAPE   HN115874   3.681   3.021  11.257 -0.3660 -1.2855  0.3805
  145SAPE   HN215875   3.559   3.023  11.142 -0.0989 -0.5466 -1.6224
  145SAPE   HN315876   3.621   2.881  11.186  0.0097 -0.2738 -1.1322
  145SAPE   C1215877   3.764   2.973  11.069 -0.7423  0.2036  0.5412
  145SAPE  H12A15878   3.726   2.906  10.990  0.9530 -1.5668  1.1415
  145SAPE  H12B15879   3.854   2.936  11.123  0.7427  2.6402 -0.1035
  145SAPE   C1115880   3.768   3.111  11.006 -0.1781 -0.9573  0.2279
  145SAPE  H11A15881   3.670   3.145  10.964 -0.4281  1.1913  2.2714
  145SAPE  H11B15882   3.834   3.110  10.917 -0.5821 -1.1378 -0.0747
  145SAPE     P15883   3.837   3.363  11.045  0.2336 -0.3914 -0.0077
  145SAPE   O1315884   3.763   3.463  11.124 -0.3918 -0.1109  0.0190
  145SAPE   O1415885   3.988   3.375  11.043  0.0122  0.1831  0.3082
  145SAPE   O1215886   3.811   3.212  11.096 -0.0031 -0.2925  1.0683
  145SAPE   O1115887   3.786   3.360  10.904 -0.4042 -0.2065 -0.0990
  145SAPE    C115888   3.783   3.480  10.823  0.7063  0.3198  0.4588
  145SAPE    HA15889   3.673   3.498  10.818  0.9087  1.3897 -0.4768
  145SAPE    HB15890   3.832   3.572  10.860  0.3189  0.4435  0.6726
  145SAPE    C215891   3.827   3.452  10.677 -0.2827 -0.0275  0.0544
  145SAPE    HS15892   3.769   3.371  10.628  1.7804 -0.2298 -2.1742
  145SAPE   O2115893   3.967   3.416  10.691 -0.6445 -0.0742 -0.0821
  145SAPE   C2115894   4.003   3.317  10.616 -0.7512 -0.2787 -0.1433
  145SAPE   O2215895   3.935   3.249  10.548 -0.2159  0.2846  0.1463
  145SAPE   C2215896   4.162   3.290  10.650 -0.0950 -0.2681  0.3498
  145SAPE   H2R15897   4.210   3.383  10.688 -0.0340  0.2555 -0.9603
  145SAPE   H2S15898   4.155   3.213  10.730 -0.5206  1.7992  2.4221
  145SAPE    C315899   3.821   3.575  10.590 -0.4857 -0.2070  0.5007
  145SAPE    HX15900   3.904   3.634  10.636  0.1101  0.1408 -0.9668
  145SAPE    HY15901   3.729   3.637  10.587 -0.5026 -0.2416  0.2785
  145SAPE   O3115902   3.863   3.545  10.453 -0.0390  0.4041 -0.0027
  145SAPE   C3115903   3.761   3.483  10.391 -0.5291 -0.2159 -0.4565
  145SAPE   O3215904   3.648   3.481  10.440 -0.5325 -0.7231  0.9687
  145SAPE   C3215905   3.807   3.419  10.255 -0.0375  0.0988 -0.4614
  145SAPE   H2X15906   3.870   3.330  10.278  0.6200  0.4509 -0.8855
  145SAPE   H2Y15907   3.884   3.487  10.213  0.7270 -1.3100 -1.4286
  145SAPE   C2315908   4.243   3.230  10.535  0.3881  0.1328  0.2650
  145SAPE   H3R15909   4.193   3.141  10.490  2.0019 -0.1428 -1.0859
  145SAPE   H3S15910   4.349   3.213  10.561  0.7177  1.4155 -0.1719
  145SAPE   C2415911   4.256   3.334  10.418 -0.1129  0.1097 -0.9046
  145SAPE   H4R15912   4.288   3.429  10.467 -1.4272  0.1742 -0.1335
  145SAPE   H4S15913   4.158   3.357  10.371 -1.0931  0.4295  1.1827
  145SAPE   C2515914   4.361   3.284  10.313  0.6429 -0.2540 -0.1531
  145SAPE   H5R15915   4.464   3.282  10.351  1.0400 -0.6501 -1.2167
  145SAPE   C2615916   4.342   3.254  10.179 -0.0311 -0.0915 -0.1432
  145SAPE   H6R15917   4.423   3.223  10.112  0.8888 -0.4190  1.0942
  145SAPE   C2715918   4.206   3.258  10.108 -0.4267  0.4530  0.1954
  145SAPE   H7R15919   4.137   3.256  10.195  0.7819 -0.4595  1.1746
  145SAPE   H7S15920   4.189   3.163  10.053 -0.3320  1.3981 -1.5256
  145SAPE   C2815921   4.198   3.381  10.025 -0.0444 -0.1230  0.3702
  145SAPE   H8R15922   4.206   3.473  10.086 -0.1741  0.7655 -0.9165
  145SAPE   C2915923   4.168   3.407   9.894  0.2725  0.7266  0.1249
  145SAPE   H9R15924   4.174   3.512   9.862  1.0024  0.7417  0.2960
  145SAPE  C21015925   4.135   3.298   9.794 -0.0181  0.2986 -0.6814
  145SAPE  H10R15926   4.039   3.318   9.742 -1.1520 -1.8012  0.4673
  145SAPE  H10S15927   4.100   3.213   9.856 -2.8459  2.2247  0.6100
  145SAPE  C21115928   4.246   3.272   9.693 -0.2209  0.3403  0.0468
  145SAPE  H11R15929   4.341   3.252   9.744 -0.6474 -2.5675 -0.1360
  145SAPE  C21215930   4.253   3.266   9.556  0.1091  0.7444  0.2885
  145SAPE  H12R15931   4.346   3.232   9.509 -0.1356  0.0981  0.2502
  145SAPE  C21315932   4.130   3.280   9.468  0.6209 -0.2244 -0.2040
  145SAPE  H13R15933   4.047   3.317   9.532 -0.9452 -2.6474 -0.7261
  145SAPE  H13S15934   4.104   3.182   9.423 -1.9024  0.7700 -1.0846
  145SAPE  C21415935   4.156   3.380   9.358 -0.6500 -0.7875 -0.5901
  145SAPE  H14R15936   4.161   3.484   9.394  0.0481 -0.8022 -0.6383
  145SAPE  C21515937   4.188   3.352   9.229  0.5860  0.7591 -0.4852
  145SAPE  H15R15938   4.211   3.429   9.153  0.1328  0.7525 -0.6334
  145SAPE  C21615939   4.186   3.220   9.162 -0.0007  0.2278  0.7995
  145SAPE  H16R15940   4.089   3.199   9.112  0.6670 -0.8466 -0.0964
  145SAPE  H16S15941   4.212   3.143   9.238 -0.9199  0.3048  1.2079
  145SAPE  C21715942   4.293   3.211   9.043  0.1653  0.2384  0.2078
  145SAPE  H17R15943   4.336   3.109   9.040  1.0833  0.5571  1.7331
  145SAPE  H17S15944   4.377   3.276   9.075 -1.3367  1.7935  1.1833
  145SAPE  C21815945   4.235   3.249   8.908  1.1936  0.2536  0.3270
  145SAPE  H18R15946   4.219   3.359   8.901 -2.9857 -0.2457 -1.3081
  145SAPE  H18S15947   4.133   3.206   8.918  0.8792  0.7852 -0.4919
  145SAPE  C21915948   4.311   3.189   8.784 -0.3293 -0.1164 -0.5000
  145SAPE  H19R15949   4.275   3.228   8.687  1.4211  0.6607 -0.8651
  145SAPE  H19S15950   4.285   3.081   8.775 -0.2249 -0.3034  1.1246
  145SAPE  C22015951   4.459   3.219   8.785 -0.0246  0.4319  0.1864
  145SAPE  H20R15952   4.507   3.192   8.881  3.7022  2.1024 -1.0141
  145SAPE  H20S15953   4.474   3.328   8.768 -0.2586  0.6182  1.1322
  145SAPE  H20T15954   4.524   3.168   8.711  0.7143  0.9789  0.4570
  145SAPE   C3315955   3.701   3.377  10.151  0.2871  0.9777 -0.4185
  145SAPE   H3X15956   3.625   3.458  10.142  0.5878  1.3641  0.4404
  145SAPE   H3Y15957   3.652   3.287  10.194 -0.2815  1.7620  0.6277
  145SAPE   C3415958   3.768   3.338  10.017  0.2299 -0.1127 -0.1289
  145SAPE   H4X15959   3.836   3.253  10.038  2.1336  1.4680  0.4937
  145SAPE   H4Y15960   3.822   3.429   9.983  0.5501 -0.4499 -0.5302
  145SAPE   C3515961   3.668   3.292   9.907 -0.3183 -0.0621 -0.2631
  145SAPE   H5X15962   3.594   3.370   9.878 -0.6325 -0.3787 -0.3126
  145SAPE   H5Y15963   3.623   3.197   9.943 -1.1100  0.8340  1.2123
  145SAPE   C3615964   3.748   3.274   9.776  0.4752 -0.0787  0.0998
  145SAPE   H6X15965   3.842   3.217   9.785  0.4695 -0.2513 -0.8414
  145SAPE   H6Y15966   3.789   3.374   9.748 -1.7919  1.1189  0.7672
  145SAPE   C3715967   3.671   3.227   9.652 -0.2821  0.0501 -0.3423
  145SAPE   H7X15968   3.582   3.292   9.638 -0.8910 -0.4269  1.0365
  145SAPE   H7Y15969   3.628   3.124   9.655 -1.1123  0.3908 -0.4253
  145SAPE   C3815970   3.767   3.249   9.535 -0.5650 -0.1937  0.2723
  145SAPE   H8X15971   3.853   3.183   9.560 -1.9079 -3.1545 -2.2988
  145SAPE   H8Y15972   3.802   3.354   9.529  0.0230 -0.4004 -0.0160
  145SAPE   C3915973   3.701   3.204   9.402  0.4565 -0.4198 -1.1998
  145SAPE   H9X15974   3.603   3.251   9.384 -1.2038 -2.4108  1.7548
  145SAPE   H9Y15975   3.681   3.096   9.423 -0.7322  0.1755  0.9937
  145SAPE  C31015976   3.783   3.218   9.275 -0.4349 -0.1958 -0.8844
  145SAPE  H10X15977   3.884   3.174   9.293  0.2509  1.8542  0.8064
  145SAPE  H10Y15978   3.810   3.325   9.258  3.0553 -0.5186  1.5166
  145SAPE  C31115979   3.692   3.167   9.161 -0.4011  0.2880 -0.0017
  145SAPE  H11X15980   3.629   3.255   9.136  0.7802  0.2902 -3.5083
  145SAPE  H11Y15981   3.638   3.084   9.212 -2.2542  1.1132 -0.5286
  145SAPE  C31215982   3.765   3.112   9.038  0.6971 -0.0861 -0.2377
  145SAPE  H12X15983   3.697   3.047   8.979  0.7242 -0.9261  0.6169
  145SAPE  H12Y15984   3.851   3.046   9.061  0.6965  0.1037  0.3344
  145SAPE  C31315985   3.816   3.219   8.949 -0.1561 -0.1524 -0.3007
  145SAPE  H13X15986   3.891   3.287   8.994 -0.1886 -0.4633  0.2225
  145SAPE  H13Y15987   3.742   3.293   8.912  0.6585 -0.3395 -2.4653
  145SAPE  C31415988   3.884   3.159   8.819  0.3640  0.2882  0.1351
  145SAPE  H14X15989   3.824   3.077   8.774  0.4950  0.9767 -1.3536
  145SAPE  H14Y15990   3.966   3.098   8.864 -0.1826 -0.2736  0.3859
  145SAPE  C31515991   3.931   3.266   8.725 -0.2003 -0.5623 -0.1754
  145SAPE  H15X15992   4.000   3.342   8.767 -0.4042 -0.8382  0.6678
  145SAPE  H15Y15993   3.834   3.309   8.692 -0.7558 -1.9356 -0.4080
  145SAPE  C31615994   3.993   3.205   8.595  0.3852 -0.2494  0.6462
  145SAPE  H16X15995   4.043   3.113   8.632 -0.0051 -1.1416 -0.9818
  145SAPE  H16Y15996   4.073   3.269   8.553  0.4550 -0.4365  0.4973
  145SAPE  C31715997   3.881   3.162   8.495 -0.0123 -0.2292 -0.2434
  145SAPE  H17X15998   3.830   3.249   8.447 -0.0707 -0.9718 -1.5861
  145SAPE  H17Y15999   3.796   3.113   8.546  1.2932  0.2625  2.5850
  145SAPE  C31816000   3.931   3.070   8.383 -0.2951  0.0853  0.1027
  145SAPE  H18X16001   3.991   2.990   8.432 -0.0310  0.0761 -0.2293
  145SAPE  H18Y16002   3.987   3.126   8.305 -1.3133  1.2354  0.1820
  145SAPE  H18Z16003   3.846   3.014   8.338 -0.4302  1.8708 -2.0403
  146SAPE     N16004   0.811   2.433  10.671  0.4081  0.4629 -0.2906
  146SAPE   HN116005   0.708   2.429  10.686  0.7001 -1.5862  1.8312
  146SAPE   HN216006   0.864   2.467  10.753  0.0458 -0.1522  0.2075
  146SAPE   HN316007   0.834   2.494  10.590  1.4619 -1.3663 -1.4335
  146SAPE   C1216008   0.860   2.293  10.656 -0.1300  0.5589 -0.1608
  146SAPE  H12A16009   0.828   2.249  10.559  0.7967 -0.0043 -0.2184
  146SAPE  H12B16010   0.821   2.219  10.730  0.1830 -0.3338 -0.8759
  146SAPE   C1116011   1.019   2.293  10.658  0.4718  0.0073 -0.1590
  146SAPE  H11A16012   1.066   2.340  10.569  2.3557 -0.2779  0.6309
  146SAPE  H11B16013   1.039   2.183  10.657 -1.0264 -0.2860 -1.0055
  146SAPE     P16014   1.186   2.303  10.860  0.2401  0.5297  0.2441
  146SAPE   O1316015   1.234   2.404  10.951  0.8145 -0.4918  0.1577
  146SAPE   O1416016   1.136   2.177  10.910 -0.4256  0.5347  0.0129
  146SAPE   O1216017   1.072   2.360  10.772  0.4208 -0.0825 -0.3923
  146SAPE   O1116018   1.288   2.269  10.746 -0.1447 -0.6253 -0.3391
  146SAPE    C116019   1.412   2.336  10.744  0.3320  0.1946  0.3086
  146SAPE    HA16020   1.389   2.442  10.722  1.0897  0.7496  1.9881
  146SAPE    HB16021   1.460   2.326  10.844  0.7559 -2.2269 -0.0625
  146SAPE    C216022   1.495   2.268  10.635 -0.2913  0.0162 -0.2539
  146SAPE    HS16023   1.585   2.330  10.616  0.8390 -1.9445 -1.6049
  146SAPE   O2116024   1.417   2.243  10.507 -0.2360  0.5169 -0.5595
  146SAPE   C2116025   1.417   2.345  10.424 -0.4621  0.1320 -0.2448
  146SAPE   O2216026   1.459   2.455  10.451 -0.6253 -0.6875  0.1425
  146SAPE   C2216027   1.350   2.309  10.290  0.1943 -0.1415  0.1643
  146SAPE   H2R16028   1.244   2.282  10.309 -0.3588  1.7450 -0.0290
  146SAPE   H2S16029   1.348   2.403  10.231  1.3925 -0.7255 -0.8328
  146SAPE    C316030   1.551   2.134  10.683  0.4017 -0.0546 -0.1328
  146SAPE    HX16031   1.467   2.064  10.699  0.9231 -1.0965 -1.7808
  146SAPE    HY16032   1.593   2.159  10.783  2.7323 -0.4757 -0.9562
  146SAPE   O3116033   1.662   2.078  10.602  0.4871 -0.1264  0.0152
  146SAPE   C3116034   1.614   2.000  10.510 -0.3741 -0.4011  0.0543
  146SAPE   O3216035   1.497   1.980  10.487  0.7352 -0.5261  0.8781
  146SAPE   C3216036   1.725   1.933  10.427  0.7461 -0.1561  0.4846
  146SAPE   H2X16037   1.797   1.883  10.496 -1.3725 -0.3296  2.6928
  146SAPE   H2Y16038   1.786   2.009  10.374 -0.3246  0.3868 -0.0071
  146SAPE   C2316039   1.422   2.184  10.228  0.2320  0.4031 -0.4508
  146SAPE   H3R16040   1.357   2.152  10.144 -0.4868 -0.1847  0.3053
  146SAPE   H3S16041   1.422   2.092  10.290 -0.0432  0.1828 -0.7776
  146SAPE   C2416042   1.560   2.197  10.160  0.1370 -0.7744  0.6309
  146SAPE   H4R16043   1.580   2.097  10.114 -0.7187 -0.9405  0.6109
  146SAPE   H4S16044   1.631   2.210  10.245 -0.7087  0.9687  1.1065
  146SAPE   C2516045   1.579   2.317  10.067  0.2262  1.2584 -0.8615
  146SAPE   H5R16046   1.616   2.411  10.111 -1.7857  1.7715 -0.1367
  146SAPE   C2616047   1.519   2.325   9.950 -0.0384 -0.0039 -0.5667
  146SAPE   H6R16048   1.526   2.419   9.893 -1.6143  0.9904  0.8047
  146SAPE   C2716049   1.439   2.225   9.875 -0.1634  0.2135 -1.3695
  146SAPE   H7R16050   1.378   2.272   9.795 -2.1827  1.0131  0.5179
  146SAPE   H7S16051   1.360   2.179   9.939 -0.2407  0.6149 -1.1747
  146SAPE   C2816052   1.516   2.103   9.826  0.4305 -0.4121 -0.1481
  146SAPE   H8R16053   1.492   2.010   9.880  0.0648  0.6733  1.6585
  146SAPE   C2916054   1.592   2.106   9.718 -0.3354  0.1263 -0.2357
  146SAPE   H9R16055   1.637   2.015   9.675  2.5072  1.8180 -1.1205
  146SAPE  C21016056   1.610   2.225   9.630  0.0094  0.5531 -1.0590
  146SAPE  H10R16057   1.703   2.223   9.570  0.4026 -3.1067 -0.6049
  146SAPE  H10S16058   1.613   2.311   9.699  0.1581 -1.4618  1.5983
  146SAPE  C21116059   1.497   2.255   9.534  0.3855  0.1794 -0.2083
  146SAPE  H11R16060   1.405   2.235   9.591 -0.0283  2.6531  0.1092
  146SAPE  C21216061   1.498   2.300   9.411 -0.5130 -0.3191 -0.3921
  146SAPE  H12R16062   1.407   2.312   9.351 -1.1574  3.1174  1.0441
  146SAPE  C21316063   1.621   2.320   9.326 -0.0269  0.2507  0.1156
  146SAPE  H13R16064   1.694   2.239   9.343 -1.5177 -0.8532  1.6669
  146SAPE  H13S16065   1.669   2.414   9.361 -3.7068  1.9980  1.0056
  146SAPE  C21416066   1.575   2.348   9.187 -0.9153  0.2186  0.0525
  146SAPE  H14R16067   1.507   2.434   9.173 -0.2107  0.8567  0.4994
  146SAPE  C21516068   1.603   2.269   9.077  0.0324 -0.3343  0.5662
  146SAPE  H15R16069   1.578   2.309   8.977 -1.0023  0.4101  1.1024
  146SAPE  C21616070   1.689   2.141   9.084  0.3670 -0.4389 -0.7940
  146SAPE  H16R16071   1.615   2.059   9.099 -3.1167  2.0654 -2.7671
  146SAPE  H16S16072   1.765   2.150   9.164  0.4221  0.5903 -0.9482
  146SAPE  C21716073   1.752   2.129   8.947 -0.0253  0.6056 -0.0362
  146SAPE  H17R16074   1.831   2.203   8.921  0.3194 -0.7513 -3.3603
  146SAPE  H17S16075   1.678   2.137   8.865  2.7500  0.0163 -2.7999
  146SAPE  C21816076   1.836   2.003   8.918  0.1635 -0.1513  0.0415
  146SAPE  H18R16077   1.906   1.999   9.003 -0.3026  2.3901  0.6317
  146SAPE  H18S16078   1.888   2.008   8.820  0.8437 -1.1929  0.3326
  146SAPE  C21916079   1.747   1.876   8.925  0.9246  0.2464  0.3721
  146SAPE  H19R16080   1.682   1.878   9.015  0.0428  2.2337 -0.2606
  146SAPE  H19S16081   1.812   1.785   8.925 -0.3205 -0.6733  0.9900
  146SAPE  C22016082   1.659   1.868   8.793 -0.0382 -0.2522 -0.0956
  146SAPE  H20R16083   1.733   1.902   8.717  1.0853  0.4060  1.2401
  146SAPE  H20S16084   1.577   1.942   8.795  0.3100  0.1265  0.2477
  146SAPE  H20T16085   1.615   1.770   8.764  0.2183 -0.5002  0.3476
  146SAPE   C3316086   1.662   1.830  10.322 -0.2637 -0.1606 -0.5912
  146SAPE   H3X16087   1.574   1.870  10.267  0.1589  1.5106 -0.0999
  146SAPE   H3Y16088   1.631   1.738  10.376 -4.4947  0.5777 -1.4453
  146SAPE   C3416089   1.761   1.779  10.218  0.1182 -0.7771 -0.3001
  146SAPE   H4X16090   1.808   1.866  10.168  1.1316 -1.1538 -0.0392
  146SAPE   H4Y16091   1.706   1.716  10.145 -0.3762 -1.6703  0.8082
  146SAPE   C3516092   1.872   1.691  10.271  0.0108 -0.1446 -0.7673
  146SAPE   H5X16093   1.836   1.597  10.318  1.4312  0.7552  2.3591
  146SAPE   H5Y16094   1.918   1.744  10.357 -1.4691 -0.0850  0.0257
  146SAPE   C3616095   1.986   1.647  10.173  1.0035  0.1328  0.4500
  146SAPE   H6X16096   2.048   1.735  10.146  1.3608 -0.3347 -0.2908
  146SAPE   H6Y16097   1.950   1.601  10.079  1.1231  1.7752 -0.4438
  146SAPE   C3716098   2.080   1.553  10.248 -0.7027 -0.1341 -0.6184
  146SAPE   H7X16099   2.038   1.474  10.314 -0.2465 -0.8162 -1.1255
  146SAPE   H7Y16100   2.126   1.617  10.326  0.2485 -0.4352 -0.9182
  146SAPE   C3816101   2.181   1.480  10.154  0.5819  0.2754 -0.4121
  146SAPE   H8X16102   2.208   1.551  10.073  1.2195  1.4388  0.7723
  146SAPE   H8Y16103   2.119   1.397  10.115 -0.0766  1.2948 -1.5958
  146SAPE   C3916104   2.296   1.431  10.231  0.3082 -0.5118 -0.3600
  146SAPE   H9X16105   2.278   1.406  10.338 -0.8686  2.1142  0.1226
  146SAPE   H9Y16106   2.358   1.523  10.234  0.1542 -0.4286  2.3304
  146SAPE  C31016107   2.363   1.304  10.169 -0.1875 -0.6564 -0.0218
  146SAPE  H10X16108   2.290   1.220  10.169  0.1870 -1.0314  2.0846
  146SAPE  H10Y16109   2.444   1.260  10.230  0.9826 -0.4929 -1.4092
  146SAPE  C31116110   2.427   1.321  10.031  0.1515 -0.2870 -0.6691
  146SAPE  H11X16111   2.504   1.399  10.045 -1.0146  0.5382  1.5340
  146SAPE  H11Y16112   2.350   1.347   9.955  0.7598 -0.1521 -1.2451
  146SAPE  C31216113   2.501   1.201   9.989 -0.1131 -0.1199  0.3946
  146SAPE  H12X16114   2.445   1.106   9.996 -0.0111 -0.4770 -2.5173
  146SAPE  H12Y16115   2.588   1.184  10.056  0.7886  1.3646 -0.3232
  146SAPE  C31316116   2.558   1.204   9.851 -0.4413 -0.4249  0.3473
  146SAPE  H13X16117   2.625   1.291   9.837 -2.2761  0.7149 -2.1074
  146SAPE  H13Y16118   2.476   1.220   9.778  2.5236  1.3959 -2.8997
  146SAPE  C31416119   2.614   1.066   9.807  0.1772  0.3468 -0.2210
  146SAPE  H14X16120   2.543   0.982   9.822  0.0542  0.6947  1.2780
  146SAPE  H14Y16121   2.709   1.052   9.862 -0.2862 -0.5631  0.3822
  146SAPE  C31516122   2.635   1.070   9.655 -0.0252 -0.3481  0.4211
  146SAPE  H15X16123   2.718   1.140   9.631 -0.2765 -0.1323  0.1773
  146SAPE  H15Y16124   2.547   1.114   9.603  0.7941 -2.1167 -2.7113
  146SAPE  C31616125   2.658   0.937   9.583 -0.0448  0.1827  0.6220
  146SAPE  H16X16126   2.566   0.875   9.591  0.6597 -1.6149 -3.0246
  146SAPE  H16Y16127   2.739   0.886   9.639 -0.3044 -0.6632  0.2414
  146SAPE  C31716128   2.690   0.943   9.441 -0.5084 -0.1215  0.6872
  146SAPE  H17X16129   2.759   0.865   9.402  0.8598  1.8109 -1.0147
  146SAPE  H17Y16130   2.747   1.035   9.415 -1.4077  0.4263  0.6046
  146SAPE  C31816131   2.556   0.963   9.361  0.0375 -0.1419  0.4440
  146SAPE  H18X16132   2.554   0.951   9.251 -3.2553  1.7167  0.1799
  146SAPE  H18Y16133   2.532   1.067   9.393  2.2734  0.0133  1.8627
  146SAPE  H18Z16134   2.490   0.878   9.389 -0.6791  0.1713 -0.2570
  147SAPE     N16135   0.194   4.248   6.322  0.1019 -0.0725  0.2017
  147SAPE   HN116136   0.092   4.227   6.311 -0.9257  3.0236  2.6115
  147SAPE   HN216137   0.236   4.173   6.263 -0.2247 -0.3389  0.3012
  147SAPE   HN316138   0.223   4.246   6.421 -0.4724 -1.1875  0.3734
  147SAPE   C1216139   0.217   4.382   6.252 -0.2024  0.0851  0.7561
  147SAPE  H12A16140   0.312   4.385   6.195 -0.3603  0.6354  0.5181
  147SAPE  H12B16141   0.223   4.466   6.325  0.9567 -0.2303  1.0368
  147SAPE   C1116142   0.095   4.421   6.161  0.3132 -0.1124 -0.0270
  147SAPE  H11A16143   0.067   4.350   6.080 -0.5305 -1.5486  1.4542
  147SAPE  H11B16144   0.118   4.514   6.106 -2.7684 -0.1950 -1.6327
  147SAPE     P16145  -0.080   4.572   6.286 -0.5572 -0.1439 -0.3689
  147SAPE   O1316146  -0.032   4.686   6.209  0.1379  0.5927 -0.1887
  147SAPE   O1416147  -0.226   4.562   6.304  0.3946  0.1655  0.1140
  147SAPE   O1216148  -0.022   4.435   6.246  0.8056  0.2159 -0.2092
  147SAPE   O1116149  -0.017   4.590   6.433  0.3045 -0.1201 -0.5863
  147SAPE    C116150  -0.025   4.488   6.540  0.0227  0.4081  0.1584
  147SAPE    HA16151  -0.114   4.421   6.533 -1.2048  2.0489 -0.6367
  147SAPE    HB16152   0.075   4.441   6.545  1.9178  3.6663 -2.6212
  147SAPE    C216153  -0.057   4.564   6.673  0.1433  0.1927 -0.0290
  147SAPE    HS16154  -0.143   4.633   6.656 -0.4224 -0.2595  0.8859
  147SAPE   O2116155   0.052   4.631   6.714 -0.4076 -0.4338 -0.2472
  147SAPE   C2116156   0.029   4.745   6.787  0.5193  0.2550  0.5567
  147SAPE   O2216157  -0.082   4.784   6.822  0.2502 -0.9516  0.6062
  147SAPE   C2216158   0.156   4.813   6.825  0.0741  0.1503 -0.1098
  147SAPE   H2R16159   0.206   4.752   6.903 -0.2401  2.1817  1.7780
  147SAPE   H2S16160   0.222   4.830   6.737  1.0821  0.5990  0.7095
  147SAPE    C316161  -0.103   4.451   6.774  0.1330 -1.2757 -0.6232
  147SAPE    HX16162  -0.020   4.377   6.773  1.7081  0.4179 -0.5833
  147SAPE    HY16163  -0.201   4.404   6.749 -0.5450 -1.5687  2.2250
  147SAPE   O3116164  -0.098   4.508   6.910  0.3241  0.4385 -0.2853
  147SAPE   C3116165  -0.211   4.569   6.940 -0.2979 -0.2649  0.1789
  147SAPE   O3216166  -0.307   4.572   6.869 -0.0106 -0.4806  0.2985
  147SAPE   C3216167  -0.194   4.647   7.071 -0.1564  0.3187  0.0637
  147SAPE   H2X16168  -0.283   4.714   7.079 -0.8916 -0.6867  0.6332
  147SAPE   H2Y16169  -0.101   4.707   7.062 -0.8228  1.2851 -0.5354
  147SAPE   C2316170   0.143   4.958   6.888 -0.2371 -0.0337  0.5948
  147SAPE   H3R16171   0.069   5.016   6.828 -0.3469  0.9207  1.6170
  147SAPE   H3S16172   0.241   5.008   6.876 -0.5475  0.3814 -0.3879
  147SAPE   C2416173   0.102   4.963   7.038 -0.2065  0.2402  0.1452
  147SAPE   H4R16174   0.010   4.901   7.037  0.1281 -0.2601  0.3099
  147SAPE   H4S16175   0.082   5.066   7.073 -0.6055 -0.1351  1.0509
  147SAPE   C2516176   0.198   4.895   7.131 -0.2365 -0.0494 -0.3982
  147SAPE   H5R16177   0.282   4.837   7.088  0.9913  1.8373 -0.6829
  147SAPE   C2616178   0.180   4.904   7.264 -0.6008 -0.9466  0.6788
  147SAPE   H6R16179   0.247   4.858   7.338 -0.5739 -2.4869 -0.2633
  147SAPE   C2716180   0.062   4.961   7.342 -0.3802 -0.5823  0.1589
  147SAPE   H7R16181   0.006   4.878   7.389 -3.6415 -0.2796 -2.7604
  147SAPE   H7S16182  -0.011   4.999   7.266 -0.9179 -0.0811  0.9110
  147SAPE   C2816183   0.098   5.076   7.433 -0.6204  0.0633  0.3474
  147SAPE   H8R16184   0.100   5.176   7.387  2.1905  0.0756  0.3471
  147SAPE   C2916185   0.122   5.062   7.564  0.3278  0.1647 -0.3049
  147SAPE   H9R16186   0.134   5.155   7.622  2.4122  0.1536 -0.6476
  147SAPE  C21016187   0.107   4.934   7.645  0.2025  0.3137  0.0640
  147SAPE  H10R16188   0.165   4.853   7.596 -1.6141 -1.7607  1.1946
  147SAPE  H10S16189  -0.002   4.915   7.645  0.1809  0.4321  0.2091
  147SAPE  C21116190   0.160   4.966   7.781 -1.0399 -0.8778 -0.4871
  147SAPE  H11R16191   0.269   4.982   7.776 -1.0700 -1.0950 -3.1042
  147SAPE  C21216192   0.093   4.979   7.902 -0.6561 -0.1900  0.5694
  147SAPE  H12R16193   0.156   5.008   7.987  0.2747  4.0010 -1.2761
  147SAPE  C21316194  -0.061   4.977   7.916 -0.2275 -0.1179  0.0706
  147SAPE  H13R16195  -0.114   4.944   7.824 -1.5578 -1.0268  1.1377
  147SAPE  H13S16196  -0.094   5.083   7.925 -1.8089 -0.7792  3.8413
  147SAPE  C21416197  -0.106   4.892   8.030  0.2079 -0.1856  0.0502
  147SAPE  H14R16198  -0.076   4.787   8.023  0.3371 -0.1911  0.5944
  147SAPE  C21516199  -0.173   4.933   8.150  0.0816 -0.2956  0.5746
  147SAPE  H15R16200  -0.203   4.853   8.219 -0.5551 -0.8824 -0.3462
  147SAPE  C21616201  -0.220   5.074   8.175 -0.1823 -0.3020  0.7657
  147SAPE  H16R16202  -0.320   5.069   8.223 -0.1565  0.3398  0.8984
  147SAPE  H16S16203  -0.240   5.125   8.079  0.4539 -1.0339  0.2324
  147SAPE  C21716204  -0.135   5.171   8.252 -0.4801 -0.0978  0.2312
  147SAPE  H17R16205  -0.133   5.274   8.209  4.0584  0.1939  0.6622
  147SAPE  H17S16206  -0.029   5.140   8.254 -1.1456 -2.5735  0.4475
  147SAPE  C21816207  -0.182   5.176   8.403  0.8861 -0.0314  0.6195
  147SAPE  H18R16208  -0.168   5.076   8.449  1.7463 -0.7582 -1.1175
  147SAPE  H18S16209  -0.289   5.207   8.403  1.3217  1.5781 -0.0360
  147SAPE  C21916210  -0.099   5.279   8.492  0.4002 -0.3001 -0.0614
  147SAPE  H19R16211   0.009   5.257   8.479 -0.1648 -2.4238 -1.5747
  147SAPE  H19S16212  -0.122   5.271   8.600  0.5769  0.9867  0.0964
  147SAPE  C22016213  -0.128   5.429   8.452  0.1822 -0.0398  0.2067
  147SAPE  H20R16214  -0.113   5.438   8.343 -1.4122  2.8258  0.1236
  147SAPE  H20S16215  -0.054   5.500   8.495  2.6502 -2.3633  0.0472
  147SAPE  H20T16216  -0.232   5.461   8.476 -0.2477 -1.2100 -0.0057
  147SAPE   C3316217  -0.182   4.550   7.189  0.9361  0.9175 -1.2192
  147SAPE   H3X16218  -0.128   4.456   7.164 -0.5019 -0.1656 -0.4790
  147SAPE   H3Y16219  -0.279   4.500   7.213  1.1020  0.4485 -1.5236
  147SAPE   C3416220  -0.116   4.605   7.316  0.0334  0.3387  0.2526
  147SAPE   H4X16221  -0.153   4.710   7.321 -2.4968 -0.5233  2.1647
  147SAPE   H4Y16222  -0.007   4.603   7.295  0.0942 -2.1523  0.4537
  147SAPE   C3516223  -0.142   4.530   7.440 -0.1040  0.4722 -0.3356
  147SAPE   H5X16224  -0.107   4.425   7.435  0.0774  0.4973  0.3477
  147SAPE   H5Y16225  -0.252   4.526   7.433  0.0374 -1.4022 -3.7763
  147SAPE   C3616226  -0.103   4.595   7.580 -0.6938 -0.5084  0.2545
  147SAPE   H6X16227  -0.133   4.701   7.578 -1.3875 -0.7116 -1.1304
  147SAPE   H6Y16228   0.007   4.590   7.594 -0.8436  0.7608  2.3537
  147SAPE   C3716229  -0.178   4.539   7.702 -0.2118 -0.6354 -0.1274
  147SAPE   H7X16230  -0.210   4.435   7.678 -1.3068 -0.6364  1.2486
  147SAPE   H7Y16231  -0.272   4.598   7.709  0.4494  0.7077 -1.8897
  147SAPE   C3816232  -0.088   4.531   7.828  0.1749  0.2498 -0.1677
  147SAPE   H8X16233  -0.089   4.631   7.876  2.8031 -0.5351  1.8403
  147SAPE   H8Y16234   0.014   4.506   7.792  1.1858  2.8845  0.6732
  147SAPE   C3916235  -0.149   4.429   7.930 -0.0792  0.0379 -0.0422
  147SAPE   H9X16236  -0.069   4.406   8.004 -0.5306  1.9268  1.1108
  147SAPE   H9Y16237  -0.190   4.334   7.890 -0.1938  0.0567  0.0279
  147SAPE  C31016238  -0.261   4.501   7.996  0.5205 -0.1177  0.1154
  147SAPE  H10X16239  -0.306   4.571   7.923  1.9349 -0.1169 -0.8056
  147SAPE  H10Y16240  -0.210   4.573   8.063  1.3150 -0.9851  0.4730
  147SAPE  C31116241  -0.353   4.420   8.086 -0.0070 -0.5142 -0.4639
  147SAPE  H11X16242  -0.307   4.327   8.127 -0.1276 -0.0661  0.7201
  147SAPE  H11Y16243  -0.425   4.375   8.015 -0.4174 -0.6651  0.0380
  147SAPE  C31216244  -0.445   4.491   8.185 -0.3941 -0.2467 -0.8678
  147SAPE  H12X16245  -0.514   4.410   8.218  0.5773 -0.7818 -0.0852
  147SAPE  H12Y16246  -0.512   4.573   8.152 -1.2626 -0.1991  0.8917
  147SAPE  C31316247  -0.356   4.548   8.306 -0.1795  0.7942 -0.0405
  147SAPE  H13X16248  -0.269   4.610   8.274  2.0329 -2.7801 -1.5652
  147SAPE  H13Y16249  -0.303   4.459   8.348 -0.7015  1.3847  1.9726
  147SAPE  C31416250  -0.442   4.613   8.411  0.8790  0.0976  0.5324
  147SAPE  H14X16251  -0.530   4.550   8.436 -0.8170  3.2863  3.4240
  147SAPE  H14Y16252  -0.481   4.709   8.372  0.9214  0.4085  1.2279
  147SAPE  C31516253  -0.382   4.651   8.551 -0.9140 -0.6628 -0.4071
  147SAPE  H15X16254  -0.361   4.558   8.608 -0.6739 -0.1018  0.4204
  147SAPE  H15Y16255  -0.451   4.698   8.624  0.5076  1.0470 -0.1023
  147SAPE  C31616256  -0.276   4.753   8.531  0.4490 -0.9337  0.0891
  147SAPE  H16X16257  -0.321   4.836   8.473 -0.1625 -0.4630  1.1922
  147SAPE  H16Y16258  -0.191   4.722   8.467 -0.0921 -0.3659 -0.9255
  147SAPE  C31716259  -0.233   4.815   8.662 -0.1659 -0.1755  0.3378
  147SAPE  H17X16260  -0.327   4.849   8.711  0.7279 -0.6394  2.4697
  147SAPE  H17Y16261  -0.171   4.905   8.643 -1.4524  0.7266  0.2656
  147SAPE  C31816262  -0.166   4.719   8.762  0.4990  0.3488 -0.3118
  147SAPE  H18X16263  -0.107   4.774   8.839 -0.3921  2.1366 -0.8488
  147SAPE  H18Y16264  -0.085   4.663   8.710  0.5829  0.3922 -0.2284
  147SAPE  H18Z16265  -0.229   4.641   8.811 -0.2585 -0.7513 -2.8966
  148SAPE     N16266   6.259   4.434   6.469 -0.2433 -0.1701 -0.3705
  148SAPE   HN116267   6.283   4.533   6.451  0.2441 -0.0125  1.0033
  148SAPE   HN216268   6.213   4.389   6.387  2.0223 -1.6819 -0.9272
  148SAPE   HN316269   6.194   4.434   6.551 -0.0906 -2.0338 -0.1845
  148SAPE   C1216270   6.370   4.343   6.512 -0.4136 -0.6893  0.2787
  148SAPE  H12A16271   6.469   4.394   6.511  0.7798 -2.8752  0.6695
  148SAPE  H12B16272   6.375   4.253   6.446 -1.1053  1.1021 -2.4029
  148SAPE   C1116273   6.354   4.295   6.664 -0.3831 -0.6047 -0.4715
  148SAPE  H11A16274   6.321   4.378   6.729  1.4480  1.8692 -2.5161
  148SAPE  H11B16275   6.455   4.269   6.703 -0.6984 -0.9194  0.1504
  148SAPE     P16276   6.291   4.040   6.642  0.1438  0.0617  0.7332
  148SAPE   O1316277   6.161   3.971   6.633 -0.4352 -0.2490  0.0473
  148SAPE   O1416278   6.378   4.026   6.523  0.1681  0.3273 -0.2898
  148SAPE   O1216279   6.263   4.192   6.667  0.3631 -0.1551  0.1609
  148SAPE   O1116280   6.378   3.996   6.768  0.0647 -0.1675  0.5897
  148SAPE    C116281   6.340   4.042   6.900  0.0985 -0.2549 -0.4770
  148SAPE    HA16282   6.427   4.103   6.933 -0.0666  0.2528 -0.9637
  148SAPE    HB16283   6.244   4.096   6.902 -1.5763 -2.9527 -1.7590
  148SAPE    C216284   6.320   3.916   7.001  0.0267  0.8470 -0.0602
  148SAPE    HS16285   6.415   3.860   7.008 -0.2756  0.1931 -0.9767
  148SAPE   O2116286   6.203   3.829   6.965  0.7069  0.2800 -0.3223
  148SAPE   C2116287   6.233   3.715   6.903 -0.3827  0.1419 -0.3193
  148SAPE   O2216288   6.348   3.683   6.874 -0.0789 -0.1799 -0.1265
  148SAPE   C2216289   6.113   3.612   6.880  0.4365 -0.3904 -0.3582
  148SAPE   H2R16290   6.025   3.677   6.864  2.1986  2.0800 -0.5333
  148SAPE   H2S16291   6.139   3.565   6.782 -0.6495  0.3638 -1.0354
  148SAPE    C316292   6.292   3.980   7.136  0.1415 -0.4000 -0.4575
  148SAPE    HX16293   6.185   4.004   7.151  0.3055  0.2350 -0.2866
  148SAPE    HY16294   6.345   4.078   7.142 -0.0227 -0.3709  0.6383
  148SAPE   O3116295   6.339   3.900   7.243 -0.4091  0.2278  0.4171
  148SAPE   C3116296   6.255   3.826   7.309  0.1292  0.8818  1.2427
  148SAPE   O3216297   6.133   3.829   7.293 -0.9275 -0.3202  0.0825
  148SAPE   C3216298   6.331   3.728   7.395 -0.2817  0.1883 -0.8220
  148SAPE   H2X16299   6.399   3.796   7.451 -1.6872  1.8475 -1.0571
  148SAPE   H2Y16300   6.384   3.662   7.322  1.8499  0.8981 -0.0080
  148SAPE   C2316301   6.086   3.507   6.989  0.1778 -0.2628  0.1106
  148SAPE   H3R16302   6.178   3.448   7.010  0.0739 -0.0365  1.2766
  148SAPE   H3S16303   6.012   3.434   6.949 -1.0683  1.2878 -0.5381
  148SAPE   C2416304   6.038   3.568   7.118 -0.3792  0.0353  0.0196
  148SAPE   H4R16305   6.104   3.653   7.143 -0.0493  0.0236 -0.7627
  148SAPE   H4S16306   6.061   3.498   7.201 -2.9372 -0.7654  0.1410
  148SAPE   C2516307   5.894   3.615   7.117  0.4542 -0.3981 -0.3640
  148SAPE   H5R16308   5.872   3.678   7.029 -0.6213 -0.6454 -0.2787
  148SAPE   C2616309   5.788   3.605   7.205  0.1774  0.5880 -0.1834
  148SAPE   H6R16310   5.694   3.655   7.175  0.0096 -0.4098 -1.4041
  148SAPE   C2716311   5.786   3.539   7.334  1.0245  0.9418 -0.0080
  148SAPE   H7R16312   5.886   3.550   7.380  0.9524 -0.7033  0.5979
  148SAPE   H7S16313   5.765   3.431   7.317 -0.3276  1.6055 -3.4567
  148SAPE   C2816314   5.679   3.590   7.429  0.8760 -0.0849 -0.4581
  148SAPE   H8R16315   5.577   3.586   7.389  0.3668  3.1550  0.2221
  148SAPE   C2916316   5.696   3.642   7.555 -0.0304 -0.2379  0.8492
  148SAPE   H9R16317   5.613   3.686   7.612 -1.1710 -0.1909 -0.7891
  148SAPE  C21016318   5.826   3.663   7.625 -1.0072 -0.5694  0.2133
  148SAPE  H10R16319   5.820   3.757   7.683 -2.1137 -0.4528 -0.0711
  148SAPE  H10S16320   5.913   3.683   7.560 -1.4068  1.7086  0.3054
  148SAPE  C21116321   5.870   3.558   7.727  0.0554  0.1000  0.4101
  148SAPE  H11R16322   5.944   3.485   7.690  1.7411  1.6580  0.5607
  148SAPE  C21216323   5.829   3.543   7.857  0.2344 -0.2910  0.3472
  148SAPE  H12R16324   5.870   3.465   7.923 -0.5145  0.4883  1.7843
  148SAPE  C21316325   5.732   3.645   7.917 -0.9818 -0.1769 -0.0164
  148SAPE  H13R16326   5.687   3.694   7.828  0.7169 -0.9928 -1.4039
  148SAPE  H13S16327   5.787   3.729   7.963  1.0767 -1.7245  0.5001
  148SAPE  C21416328   5.628   3.599   8.014  0.6053 -0.0006 -0.0754
  148SAPE  H14R16329   5.674   3.564   8.107  0.8602 -0.5580 -0.4058
  148SAPE  C21516330   5.496   3.599   7.994 -0.8799  0.2182  0.5763
  148SAPE  H15R16331   5.448   3.551   8.080 -0.8663 -1.7180 -0.4471
  148SAPE  C21616332   5.421   3.636   7.872 -0.1082 -0.0407  0.2298
  148SAPE  H16R16333   5.469   3.731   7.840  0.7179 -0.9077 -1.2090
  148SAPE  H16S16334   5.313   3.656   7.886 -1.0953 -2.2751 -2.9215
  148SAPE  C21716335   5.431   3.525   7.769 -0.0484 -0.7369 -0.4667
  148SAPE  H17R16336   5.383   3.431   7.805 -2.3308  0.1401 -1.0626
  148SAPE  H17S16337   5.533   3.505   7.729  0.2918 -2.0915  0.9619
  148SAPE  C21816338   5.340   3.558   7.650  0.0156 -0.2050 -0.0603
  148SAPE  H18R16339   5.373   3.662   7.625 -0.1280 -0.0030  0.5618
  148SAPE  H18S16340   5.234   3.571   7.682 -0.3861 -0.6140 -1.1912
  148SAPE  C21916341   5.339   3.457   7.535 -0.2729 -0.0940 -0.1573
  148SAPE  H19R16342   5.291   3.366   7.578 -0.7615  0.4618  0.4982
  148SAPE  H19S16343   5.445   3.440   7.507  0.3010 -0.0059  1.8394
  148SAPE  C22016344   5.261   3.493   7.410 -0.4900 -0.1667  0.2431
  148SAPE  H20R16345   5.254   3.402   7.346 -1.6752  1.0121 -1.3768
  148SAPE  H20S16346   5.307   3.574   7.350  0.7261 -2.9357 -2.8779
  148SAPE  H20T16347   5.156   3.528   7.422 -0.4306  0.6295 -1.3863
  148SAPE   C3316348   6.234   3.646   7.485 -0.6881  0.4439 -0.4360
  148SAPE   H3X16349   6.199   3.563   7.420  0.7098  0.2086 -0.9304
  148SAPE   H3Y16350   6.152   3.713   7.520  0.6194  1.5898  0.5698
  148SAPE   C3416351   6.304   3.572   7.602 -0.1036  0.1611  0.4065
  148SAPE   H4X16352   6.404   3.542   7.564  0.0843  1.8772 -0.5594
  148SAPE   H4Y16353   6.237   3.486   7.623 -0.2173 -0.2014 -1.2823
  148SAPE   C3516354   6.306   3.656   7.733  0.0693  0.6723  0.2998
  148SAPE   H5X16355   6.209   3.709   7.745  1.0256  2.1769  1.8162
  148SAPE   H5Y16356   6.367   3.749   7.722 -0.7883  1.4889  2.0984
  148SAPE   C3616357   6.332   3.582   7.868  0.3856  0.2786 -0.9582
  148SAPE   H6X16358   6.412   3.643   7.915  0.8884  0.2708 -1.7892
  148SAPE   H6Y16359   6.372   3.478   7.869 -0.6669 -0.1443  0.0596
  148SAPE   C3716360   6.209   3.592   7.970 -0.6919 -0.4036 -0.0349
  148SAPE   H7X16361   6.118   3.536   7.940 -0.9590 -1.6366  2.7722
  148SAPE   H7Y16362   6.174   3.697   7.964 -0.3573 -0.3502 -1.4459
  148SAPE   C3816363   6.253   3.558   8.116  0.3969 -0.4919  0.0519
  148SAPE   H8X16364   6.333   3.634   8.131 -1.1197  1.5024 -1.3638
  148SAPE   H8Y16365   6.304   3.459   8.117  0.4772 -0.5106 -1.6871
  148SAPE   C3916366   6.130   3.567   8.211  0.0389 -0.5168 -0.4809
  148SAPE   H9X16367   6.155   3.525   8.311 -2.5147 -1.5665 -0.2251
  148SAPE   H9Y16368   6.042   3.512   8.171 -0.5453  0.6555 -0.8808
  148SAPE  C31016369   6.069   3.704   8.240  0.3460 -0.0378 -0.9277
  148SAPE  H10X16370   6.025   3.751   8.149 -2.0462 -0.6385 -0.1483
  148SAPE  H10Y16371   6.149   3.778   8.264  0.2643 -0.2414  0.0148
  148SAPE  C31116372   5.960   3.697   8.346 -0.1442  0.2012  0.6164
  148SAPE  H11X16373   5.990   3.656   8.445  1.3951 -1.1202 -0.3541
  148SAPE  H11Y16374   5.875   3.628   8.323 -1.6188  1.6293  1.5737
  148SAPE  C31216375   5.898   3.832   8.369  0.6077  0.0192 -0.6002
  148SAPE  H12X16376   5.801   3.814   8.421  0.7650  0.6738 -0.0604
  148SAPE  H12Y16377   5.885   3.891   8.276 -1.8884 -1.0512 -1.0217
  148SAPE  C31316378   5.986   3.921   8.464  0.3004 -0.2886  1.4144
  148SAPE  H13X16379   6.088   3.922   8.419  0.5287 -3.2164  1.7204
  148SAPE  H13Y16380   6.017   3.870   8.558  0.5966 -0.6430  1.1280
  148SAPE  C31416381   5.932   4.061   8.482  0.1285  0.0385 -0.3794
  148SAPE  H14X16382   5.919   4.111   8.384  0.1963  1.7825  0.4623
  148SAPE  H14Y16383   6.004   4.113   8.549 -0.2168 -0.1066  0.1079
  148SAPE  C31516384   5.795   4.064   8.555 -0.6371  0.4321  0.0351
  148SAPE  H15X16385   5.798   4.008   8.651  2.0503 -0.0484 -0.2473
  148SAPE  H15Y16386   5.719   4.003   8.502 -0.5676 -0.1104  0.5498
  148SAPE  C31616387   5.725   4.200   8.577 -0.3395  0.4849  0.4862
  148SAPE  H16X16388   5.624   4.179   8.618  0.3733 -1.7349  1.2120
  148SAPE  H16Y16389   5.709   4.254   8.481 -1.7886  0.1860  0.5280
  148SAPE  C31716390   5.807   4.298   8.666  0.7667  0.0012  0.0390
  148SAPE  H17X16391   5.889   4.351   8.612  3.1884 -1.8564  1.7096
  148SAPE  H17Y16392   5.837   4.235   8.752 -2.0475 -0.5927  0.6626
  148SAPE  C31816393   5.723   4.408   8.738 -0.2539  0.5963 -0.1951
  148SAPE  H18X16394   5.678   4.485   8.673  1.8792  0.2302 -2.2659
  148SAPE  H18Y16395   5.794   4.469   8.799 -0.3055  1.2292 -0.7641
  148SAPE  H18Z16396   5.646   4.364   8.805  1.7488  0.3707  2.1193
  149SAPE     N16397   5.272   0.206   6.297 -0.2229  0.6014  0.6802
  149SAPE   HN116398   5.286   0.309   6.307 -0.7764  0.6648  0.8183
  149SAPE   HN216399   5.289   0.168   6.202  1.0035 -1.7306  1.7329
  149SAPE   HN316400   5.170   0.198   6.313 -0.1624  0.8845  1.2317
  149SAPE   C1216401   5.362   0.142   6.396  0.0328  1.3374  0.1793
  149SAPE  H12A16402   5.334   0.035   6.401 -2.1844  1.9338  3.5887
  149SAPE  H12B16403   5.333   0.180   6.496  3.3233  2.1937  0.9388
  149SAPE   C1116404   5.510   0.171   6.366 -0.0959  0.3417 -0.4267
  149SAPE  H11A16405   5.536   0.277   6.384 -1.2153  0.3741  1.1623
  149SAPE  H11B16406   5.549   0.154   6.264 -1.2229  0.2693 -0.8617
  149SAPE     P16407   5.633  -0.042   6.454 -0.1899  0.4993 -0.0813
  149SAPE   O1316408   5.544  -0.126   6.373 -0.7216  0.1128 -0.3836
  149SAPE   O1416409   5.777  -0.038   6.411  0.3042 -0.3824  0.8689
  149SAPE   O1216410   5.582   0.103   6.469 -0.2599  0.4821 -0.1438
  149SAPE   O1116411   5.625  -0.099   6.594  0.0037 -0.1320  0.7532
  149SAPE    C116412   5.665  -0.020   6.706  0.1606 -0.1639 -0.5392
  149SAPE    HA16413   5.716   0.073   6.675 -0.4627  0.5477  0.4707
  149SAPE    HB16414   5.576   0.001   6.769  0.4551 -1.6263  0.4314
  149SAPE    C216415   5.755  -0.108   6.795 -0.5315  0.6009 -0.0580
  149SAPE    HS16416   5.844  -0.124   6.731  0.0139  2.3632  0.2202
  149SAPE   O2116417   5.673  -0.220   6.831  0.0474 -0.1390  0.5223
  149SAPE   C2116418   5.708  -0.339   6.789  0.0151  1.0581  0.0818
  149SAPE   O2216419   5.816  -0.365   6.740  0.1161 -0.1693 -0.1699
  149SAPE   C2216420   5.595  -0.441   6.798 -0.1797  0.4476 -0.0271
  149SAPE   H2R16421   5.526  -0.417   6.882  2.9605  1.1225  2.5621
  149SAPE   H2S16422   5.539  -0.425   6.704  1.4394  0.8853 -0.9651
  149SAPE    C316423   5.799  -0.029   6.924 -0.3424 -0.1811  0.2142
  149SAPE    HX16424   5.880  -0.089   6.970 -0.3517  1.2405  2.2430
  149SAPE    HY16425   5.717  -0.030   7.000 -0.8569  0.7977 -0.3049
  149SAPE   O3116426   5.839   0.106   6.895 -0.0028 -0.6924 -0.5274
  149SAPE   C3116427   5.950   0.121   6.822  0.2105  0.4330 -0.5367
  149SAPE   O3216428   6.021   0.039   6.771  0.2354  0.7299  0.2301
  149SAPE   C3216429   5.994   0.270   6.827 -0.5843  0.6705 -0.0622
  149SAPE   H2X16430   5.906   0.329   6.863 -1.5831 -0.1828 -1.0182
  149SAPE   H2Y16431   6.027   0.296   6.724 -1.0691  2.3893  0.1785
  149SAPE   C2316432   5.643  -0.589   6.821 -0.0031 -0.0896 -0.3593
  149SAPE   H3R16433   5.739  -0.621   6.776  0.2690 -1.8239  1.3183
  149SAPE   H3S16434   5.562  -0.649   6.774  1.3069  0.0940 -3.0190
  149SAPE   C2416435   5.650  -0.614   6.968 -0.1651  0.5624  0.2493
  149SAPE   H4R16436   5.671  -0.722   6.985 -2.3970  0.2272  1.1751
  149SAPE   H4S16437   5.549  -0.603   7.012 -0.9981 -0.5860 -1.3149
  149SAPE   C2516438   5.747  -0.524   7.045 -0.2708 -0.0063 -0.4179
  149SAPE   H5R16439   5.853  -0.535   7.020 -0.4289 -0.1132 -1.0748
  149SAPE   C2616440   5.721  -0.435   7.139  0.1998  0.6979 -0.1711
  149SAPE   H6R16441   5.802  -0.371   7.177 -0.7302  1.3418  0.7931
  149SAPE   C2716442   5.589  -0.401   7.201  0.0785  0.4386 -0.2037
  149SAPE   H7R16443   5.523  -0.371   7.117  0.4676 -0.1722 -0.7319
  149SAPE   H7S16444   5.614  -0.318   7.271 -1.8793 -0.7317  2.0259
  149SAPE   C2816445   5.529  -0.506   7.293  0.0727 -0.4878 -0.5772
  149SAPE   H8R16446   5.589  -0.595   7.317  2.0753  1.0686  0.5917
  149SAPE   C2916447   5.405  -0.504   7.355  0.4961 -0.3207 -0.1425
  149SAPE   H9R16448   5.363  -0.594   7.401 -0.8703  0.5945  0.5040
  149SAPE  C21016449   5.298  -0.391   7.346 -0.5450 -0.8446 -0.0727
  149SAPE  H10R16450   5.195  -0.432   7.340 -1.7408  1.5033  2.2865
  149SAPE  H10S16451   5.316  -0.338   7.251  0.6367 -1.3065 -0.1164
  149SAPE  C21116452   5.309  -0.307   7.467 -0.3732  0.1806  0.0727
  149SAPE  H11R16453   5.387  -0.229   7.467 -0.5684  0.4362 -2.0285
  149SAPE  C21216454   5.229  -0.302   7.573  0.5735  0.0209  0.2083
  149SAPE  H12R16455   5.253  -0.234   7.656 -1.3037 -0.1449  0.9391
  149SAPE  C21316456   5.110  -0.393   7.605  0.2063  0.0914  0.1202
  149SAPE  H13R16457   5.117  -0.444   7.703 -0.1529  2.3020  1.3729
  149SAPE  H13S16458   5.089  -0.468   7.526 -0.0176  2.1035 -1.8258
  149SAPE  C21416459   4.989  -0.303   7.614  0.2799 -0.2417  0.2771
  149SAPE  H14R16460   4.920  -0.314   7.530 -0.6886  3.1042  0.5104
  149SAPE  C21516461   4.952  -0.224   7.718  0.2146 -0.7658 -0.0694
  149SAPE  H15R16462   4.858  -0.167   7.713  0.8821  0.2549 -3.4111
  149SAPE  C21616463   5.033  -0.211   7.846  0.1282  0.1553  0.0126
  149SAPE  H16R16464   5.046  -0.103   7.867 -2.4739  0.8738 -1.5754
  149SAPE  H16S16465   5.135  -0.254   7.841  0.2415  0.2924  0.9942
  149SAPE  C21716466   4.965  -0.269   7.972  0.0435  0.2696 -0.3390
  149SAPE  H17R16467   4.863  -0.224   7.980 -0.2330 -0.5041  0.6410
  149SAPE  H17S16468   5.017  -0.238   8.065 -2.0376  1.0910  0.6157
  149SAPE  C21816469   4.958  -0.423   7.969  0.0825  0.3668  0.4063
  149SAPE  H18R16470   5.057  -0.470   7.949 -0.2314 -0.8891  1.6359
  149SAPE  H18S16471   4.899  -0.463   7.884  0.6392 -0.5651  0.4408
  149SAPE  C21916472   4.901  -0.469   8.102 -0.3714 -0.5139  0.0167
  149SAPE  H19R16473   4.793  -0.486   8.084 -0.5178 -1.8677  1.8314
  149SAPE  H19S16474   4.906  -0.385   8.174 -1.6615  0.3589 -0.8601
  149SAPE  C22016475   4.974  -0.595   8.147 -0.1398  0.7891  0.2848
  149SAPE  H20R16476   5.062  -0.560   8.206  0.7712 -0.2307 -0.4323
  149SAPE  H20S16477   5.009  -0.652   8.059  0.1863  1.6624 -0.1577
  149SAPE  H20T16478   4.907  -0.668   8.197 -0.2147  1.0188  0.5270
  149SAPE   C3316479   6.125   0.278   6.906  0.5098  0.1221 -0.4938
  149SAPE   H3X16480   6.169   0.379   6.898  1.7303 -0.3478  0.0519
  149SAPE   H3Y16481   6.196   0.209   6.855 -1.2817 -0.5750 -2.1933
  149SAPE   C3416482   6.101   0.241   7.056  0.5196 -0.5426  0.6090
  149SAPE   H4X16483   6.052   0.141   7.061 -1.3153  0.3511  1.8075
  149SAPE   H4Y16484   6.032   0.320   7.093  0.1050 -0.5527 -0.1099
  149SAPE   C3516485   6.230   0.244   7.130 -0.1144  0.7955 -0.3378
  149SAPE   H5X16486   6.279   0.344   7.134  1.1155  0.2963 -2.0050
  149SAPE   H5Y16487   6.313   0.178   7.097  0.2992  1.0416  0.1809
  149SAPE   C3616488   6.207   0.223   7.287  0.0478 -0.7426 -0.8803
  149SAPE   H6X16489   6.145   0.132   7.302 -1.2546 -0.1143 -2.2519
  149SAPE   H6Y16490   6.141   0.304   7.323 -0.5430 -0.9357 -1.5004
  149SAPE   C3716491   6.338   0.211   7.368  0.0024  0.1911  0.8069
  149SAPE   H7X16492   6.388   0.310   7.373 -2.3051  1.5057 -0.5824
  149SAPE   H7Y16493   6.408   0.145   7.313 -1.4550  0.0652 -0.9923
  149SAPE   C3816494   6.320   0.154   7.511 -0.0814  0.3365 -0.3535
  149SAPE   H8X16495   6.326   0.044   7.496 -1.1584  0.1357  0.6032
  149SAPE   H8Y16496   6.221   0.178   7.555 -0.1376  0.3604 -0.4887
  149SAPE   C3916497   6.427   0.194   7.610  0.2555  0.1380  0.0218
  149SAPE   H9X16498   6.442   0.304   7.600  0.1579  0.2110  0.6445
  149SAPE   H9Y16499   6.523   0.144   7.585  0.2310 -2.0611  3.6339
  149SAPE  C31016500   6.382   0.150   7.751  0.6100 -0.0931 -0.6077
  149SAPE  H10X16501   6.385   0.039   7.746 -0.4384 -0.4074  3.0127
  149SAPE  H10Y16502   6.276   0.180   7.769  0.6208  0.5231 -1.5510
  149SAPE  C31116503   6.471   0.208   7.858  0.2160  0.1358  0.3750
  149SAPE  H11X16504   6.468   0.316   7.831  2.6500 -0.1968 -1.5193
  149SAPE  H11Y16505   6.573   0.169   7.841  0.5778  0.4678  1.6445
  149SAPE  C31216506   6.430   0.174   8.007  0.0003  0.0810  0.8155
  149SAPE  H12X16507   6.425   0.065   8.024  1.8974  0.0515  1.4485
  149SAPE  H12Y16508   6.324   0.205   8.020 -0.0916 -0.1863  0.7032
  149SAPE  C31316509   6.518   0.237   8.109 -0.2378 -0.0731 -0.2380
  149SAPE  H13X16510   6.459   0.281   8.191 -0.6274 -0.4311 -0.3226
  149SAPE  H13Y16511   6.584   0.311   8.058  0.0906 -1.6368 -2.2198
  149SAPE  C31416512   6.617   0.128   8.172 -0.6286 -0.4963  0.6765
  149SAPE  H14X16513   6.668   0.060   8.100 -0.6671 -0.9932  1.1164
  149SAPE  H14Y16514   6.556   0.059   8.234  0.1388 -1.7013  0.1400
  149SAPE  C31516515   6.726   0.194   8.256  0.3100 -0.3639 -0.5736
  149SAPE  H15X16516   6.793   0.119   8.305 -0.2979 -0.3616  0.2948
  149SAPE  H15Y16517   6.674   0.249   8.337  0.5131 -0.8514 -0.1037
  149SAPE  C31616518   6.821   0.294   8.180  0.2988 -0.3312 -0.2042
  149SAPE  H16X16519   6.770   0.392   8.179  3.1772  1.2832 -1.7811
  149SAPE  H16Y16520   6.829   0.264   8.073  1.0377 -1.2162  0.0804
  149SAPE  C31716521   6.955   0.303   8.249  0.6004 -0.2096 -0.1972
  149SAPE  H17X16522   6.991   0.199   8.264  2.3979  0.1304 -1.7815
  149SAPE  H17Y16523   6.935   0.341   8.351  1.2551  1.8846 -0.8004
  149SAPE  C31816524   7.068   0.389   8.187 -0.2491 -0.5260  0.0249
  149SAPE  H18X16525   7.044   0.498   8.192 -2.1550 -0.9255  0.3802
  149SAPE  H18Y16526   7.099   0.377   8.081  1.8121  0.8646  0.4142
  149SAPE  H18Z16527   7.160   0.366   8.244  1.2732 -0.5273 -2.2986
  150SAPE     N16528   2.445   6.512   6.327 -0.4864  0.5820 -0.1367
  150SAPE   HN116529   2.455   6.614   6.307  0.9776  0.3175 -0.8927
  150SAPE   HN216530   2.390   6.517   6.415 -1.2529  0.0153 -0.5691
  150SAPE   HN316531   2.536   6.465   6.345 -0.6926  0.1751 -0.1455
  150SAPE   C1216532   2.360   6.434   6.232 -0.5708 -0.1740  0.1792
  150SAPE  H12A16533   2.388   6.471   6.131  2.8411 -3.4913 -0.3302
  150SAPE  H12B16534   2.253   6.463   6.240 -1.3303 -2.1235 -1.8976
  150SAPE   C1116535   2.374   6.283   6.256  0.2105  0.4532  0.4140
  150SAPE  H11A16536   2.299   6.238   6.187  0.5190  0.1749  0.2593
  150SAPE  H11B16537   2.343   6.258   6.359  0.3735 -3.6880 -0.3524
  150SAPE     P16538   2.619   6.209   6.331  0.3098  0.1053 -0.0601
  150SAPE   O1316539   2.572   6.136   6.450  0.2037  0.1084 -0.1800
  150SAPE   O1416540   2.738   6.157   6.260  0.0453  0.1179  0.1312
  150SAPE   O1216541   2.507   6.232   6.225 -0.2065 -0.2558  0.2635
  150SAPE   O1116542   2.652   6.356   6.376  0.6467 -0.2637 -0.7411
  150SAPE    C116543   2.761   6.379   6.467  1.3700  0.6243  0.2079
  150SAPE    HA16544   2.792   6.284   6.514 -0.6218 -0.1858  0.0006
  150SAPE    HB16545   2.846   6.421   6.409  1.0840  1.2527  0.2271
  150SAPE    C216546   2.720   6.467   6.595  1.2628 -0.0900 -0.1478
  150SAPE    HS16547   2.798   6.448   6.672  0.3074  0.8349  1.1015
  150SAPE   O2116548   2.584   6.441   6.647 -0.0510 -0.1316 -0.1077
  150SAPE   C2116549   2.571   6.330   6.717  0.1710 -0.4192 -0.2788
  150SAPE   O2216550   2.665   6.270   6.768  0.0402  0.0922  0.0959
  150SAPE   C2216551   2.424   6.297   6.732 -0.6139 -0.2738  0.0673
  150SAPE   H2R16552   2.351   6.375   6.702 -2.8290 -1.5991  1.7136
  150SAPE   H2S16553   2.423   6.198   6.681  2.4050 -1.2062  1.5809
  150SAPE    C316554   2.728   6.622   6.554  0.2918  0.5972  0.2242
  150SAPE    HX16555   2.678   6.628   6.455  3.6183 -3.2225 -1.9375
  150SAPE    HY16556   2.832   6.643   6.522  0.0269 -1.2253 -2.1101
  150SAPE   O3116557   2.686   6.708   6.659  0.0262  0.0957  0.5285
  150SAPE   C3116558   2.573   6.771   6.637  0.1684  0.1701 -0.6126
  150SAPE   O3216559   2.500   6.760   6.543  0.4398 -0.3727  0.3321
  150SAPE   C3216560   2.566   6.880   6.738  0.4332 -0.4848 -0.6624
  150SAPE   H2X16561   2.523   6.973   6.693  0.7140  0.4413  0.8918
  150SAPE   H2Y16562   2.665   6.913   6.777 -0.9124  0.0738  2.5168
  150SAPE   C2316563   2.369   6.261   6.869 -0.5308 -0.3772 -0.2789
  150SAPE   H3R16564   2.456   6.230   6.930  2.1266  2.5960 -2.2614
  150SAPE   H3S16565   2.294   6.179   6.856 -1.1589  0.3480 -1.3797
  150SAPE   C2416566   2.300   6.376   6.940  0.0838 -0.4183 -0.5212
  150SAPE   H4R16567   2.276   6.333   7.039 -1.7150 -0.6591 -1.0388
  150SAPE   H4S16568   2.206   6.412   6.893 -0.3461  1.5228  1.6318
  150SAPE   C2516569   2.384   6.505   6.953  0.6938 -0.0700  0.5284
  150SAPE   H5R16570   2.382   6.561   6.858 -3.6881  1.4512  1.2660
  150SAPE   C2616571   2.469   6.535   7.053 -1.3528  0.3821  0.4612
  150SAPE   H6R16572   2.539   6.620   7.052 -2.4222  1.2811 -0.2169
  150SAPE   C2716573   2.482   6.441   7.173 -0.0091  0.2393  0.3526
  150SAPE   H7R16574   2.583   6.449   7.220 -0.8615  1.1032  2.1327
  150SAPE   H7S16575   2.485   6.339   7.129 -0.0679  1.8314 -3.7968
  150SAPE   C2816576   2.387   6.458   7.281 -0.1191  0.7428 -0.2258
  150SAPE   H8R16577   2.369   6.560   7.318 -0.9625  0.0136  1.5302
  150SAPE   C2916578   2.317   6.363   7.344 -0.4065 -0.3899 -1.2531
  150SAPE   H9R16579   2.251   6.389   7.428  0.3338 -3.2482  0.3722
  150SAPE  C21016580   2.314   6.215   7.338 -0.4972  0.8408 -0.1429
  150SAPE  H10R16581   2.264   6.185   7.243 -0.4480 -0.5166  0.2393
  150SAPE  H10S16582   2.253   6.176   7.422  0.0555  1.0975  0.3808
  150SAPE  C21116583   2.445   6.145   7.351  0.0724  0.5401 -0.7553
  150SAPE  H11R16584   2.514   6.178   7.272  1.1369  0.4144  0.1152
  150SAPE  C21216585   2.485   6.036   7.434  0.0774 -0.2261 -0.1973
  150SAPE  H12R16586   2.581   5.991   7.406  1.2208  2.1888 -0.3905
  150SAPE  C21316587   2.407   5.969   7.541 -0.5127  0.1372 -0.9734
  150SAPE  H13R16588   2.301   5.984   7.511 -0.5701 -0.2120 -0.9487
  150SAPE  H13S16589   2.419   6.018   7.640 -0.8069  0.5527 -1.1430
  150SAPE  C21416590   2.444   5.818   7.536  0.4428  0.6966  0.2156
  150SAPE  H14R16591   2.449   5.774   7.436 -2.2015 -0.8932  0.6977
  150SAPE  C21516592   2.455   5.733   7.639 -0.5058 -0.0680 -0.8296
  150SAPE  H15R16593   2.472   5.626   7.620 -2.2648 -0.8238  1.4464
  150SAPE  C21616594   2.436   5.782   7.784 -0.1229  0.3434 -0.4133
  150SAPE  H16R16595   2.390   5.704   7.849 -0.7569  2.0641  1.2728
  150SAPE  H16S16596   2.361   5.864   7.778 -0.0310  0.4835  0.3329
  150SAPE  C21716597   2.565   5.819   7.863  0.3192  0.2504  0.5914
  150SAPE  H17R16598   2.628   5.892   7.808 -1.0907  1.7091  0.8423
  150SAPE  H17S16599   2.622   5.729   7.893 -2.3462 -1.9005 -0.3074
  150SAPE  C21816600   2.529   5.887   8.000 -0.2485 -0.4101  0.0078
  150SAPE  H18R16601   2.487   5.812   8.071  0.3850 -0.9718 -0.1995
  150SAPE  H18S16602   2.456   5.964   7.970 -0.9747 -0.6866  0.9960
  150SAPE  C21916603   2.642   5.953   8.064 -0.0807 -0.0424  0.4062
  150SAPE  H19R16604   2.680   6.035   7.999  2.1337 -1.2210  0.1125
  150SAPE  H19S16605   2.727   5.882   8.071 -0.7424 -1.3142 -2.6154
  150SAPE  C22016606   2.603   6.010   8.206 -0.4627 -0.5205  0.5094
  150SAPE  H20R16607   2.687   6.072   8.244 -0.2029  1.0384 -2.2941
  150SAPE  H20S16608   2.576   5.929   8.276 -1.1243 -0.0159  0.8476
  150SAPE  H20T16609   2.520   6.083   8.200  0.0687  0.0727  0.2048
  150SAPE   C3316610   2.481   6.844   6.867  0.4267  0.2961  0.0779
  150SAPE   H3X16611   2.542   6.782   6.936  1.0761 -0.2953 -0.9911
  150SAPE   H3Y16612   2.398   6.780   6.830 -1.9036  3.8235 -1.3308
  150SAPE   C3416613   2.414   6.961   6.939  0.0338 -0.5651 -0.2429
  150SAPE   H4X16614   2.332   6.993   6.871  0.9060  0.5017 -0.8269
  150SAPE   H4Y16615   2.482   7.048   6.955 -2.3541  1.3121  0.3711
  150SAPE   C3516616   2.337   6.919   7.063 -0.3797 -0.0884 -0.2459
  150SAPE   H5X16617   2.293   6.818   7.049 -1.1229 -0.1657  2.2497
  150SAPE   H5Y16618   2.252   6.988   7.078 -1.4799 -1.3483 -0.4696
  150SAPE   C3616619   2.419   6.923   7.191  0.5204  0.3940 -1.0274
  150SAPE   H6X16620   2.451   7.026   7.216  0.5864  0.1326 -0.0092
  150SAPE   H6Y16621   2.500   6.849   7.174  1.0145  0.6481  0.1478
  150SAPE   C3716622   2.328   6.875   7.308 -0.3268 -0.1739  0.4949
  150SAPE   H7X16623   2.303   6.767   7.305 -1.5486  0.1004  0.3544
  150SAPE   H7Y16624   2.234   6.934   7.312  0.2558  0.8048  0.0852
  150SAPE   C3816625   2.391   6.886   7.443 -0.0247  0.3038 -0.2691
  150SAPE   H8X16626   2.412   6.993   7.466 -0.8159  0.5742 -0.7275
  150SAPE   H8Y16627   2.486   6.829   7.433 -1.2324 -2.1139  1.3042
  150SAPE   C3916628   2.317   6.810   7.547 -0.4251  0.1990 -0.2873
  150SAPE   H9X16629   2.298   6.707   7.510  0.0559  0.1122 -0.3035
  150SAPE   H9Y16630   2.216   6.855   7.551 -0.3858  0.4590 -1.6991
  150SAPE  C31016631   2.391   6.814   7.684 -0.1364 -0.0635 -0.2328
  150SAPE  H10X16632   2.399   6.922   7.706 -1.1133  0.7588 -3.4300
  150SAPE  H10Y16633   2.493   6.774   7.664  0.4766  2.0177 -1.6674
  150SAPE  C31116634   2.342   6.728   7.806 -0.0574  0.4014 -0.4082
  150SAPE  H11X16635   2.377   6.624   7.792 -0.9358 -0.2254  1.6787
  150SAPE  H11Y16636   2.231   6.719   7.804 -0.0696 -1.9526  3.0092
  150SAPE  C31216637   2.387   6.773   7.945  0.1469  0.0141  0.1356
  150SAPE  H12X16638   2.347   6.872   7.975 -1.0072 -0.2762 -0.3660
  150SAPE  H12Y16639   2.497   6.787   7.950  0.2653 -1.2123  2.5656
  150SAPE  C31316640   2.353   6.671   8.062 -0.3398  0.1633  0.0001
  150SAPE  H13X16641   2.433   6.594   8.063 -0.3143  0.1831  2.1094
  150SAPE  H13Y16642   2.259   6.615   8.042  0.3221 -1.5198  1.3492
  150SAPE  C31416643   2.335   6.740   8.192 -0.5902  0.0227  0.1487
  150SAPE  H14X16644   2.255   6.816   8.182 -0.1099  0.4882 -0.2351
  150SAPE  H14Y16645   2.426   6.801   8.213 -0.6026  0.5222 -1.1443
  150SAPE  C31516646   2.327   6.639   8.307  1.0136 -0.5348 -0.8504
  150SAPE  H15X16647   2.421   6.585   8.331  1.4315 -0.6954 -2.7002
  150SAPE  H15Y16648   2.252   6.558   8.296  0.8552 -0.9602  2.3924
  150SAPE  C31616649   2.289   6.721   8.431 -0.2546  0.1648 -0.0194
  150SAPE  H16X16650   2.189   6.683   8.462  0.3007 -1.6651 -0.4031
  150SAPE  H16Y16651   2.281   6.828   8.400  1.2640  0.2598 -0.1527
  150SAPE  C31716652   2.396   6.700   8.543 -0.0156  0.0874  0.3090
  150SAPE  H17X16653   2.416   6.594   8.567 -0.0588  0.3308  1.5227
  150SAPE  H17Y16654   2.337   6.732   8.632 -1.4231  1.2583 -0.9816
  150SAPE  C31816655   2.521   6.783   8.533  0.0138  0.2012  0.8958
  150SAPE  H18X16656   2.496   6.888   8.506 -2.1968 -0.8034 -1.2870
  150SAPE  H18Y16657   2.591   6.728   8.467 -2.1576  0.3372 -1.7150
  150SAPE  H18Z16658   2.585   6.789   8.623  3.3164 -1.4085 -1.1484
  151SAPE     N16659   2.391   5.933   6.428 -0.5492 -0.0317  0.0244
  151SAPE   HN116660   2.450   5.861   6.475  0.2668  0.5040 -0.1543
  151SAPE   HN216661   2.434   6.026   6.447 -0.2288  0.3614 -2.3612
  151SAPE   HN316662   2.308   5.930   6.491 -1.1800  0.7203 -0.7472
  151SAPE   C1216663   2.364   5.883   6.287 -0.5002 -0.3272  0.2018
  151SAPE  H12A16664   2.399   5.962   6.217 -0.3940  1.3605  2.0665
  151SAPE  H12B16665   2.259   5.852   6.270  0.0565 -1.3082 -1.8521
  151SAPE   C1116666   2.438   5.758   6.251  0.6129  0.4001  0.8436
  151SAPE  H11A16667   2.424   5.733   6.144  1.2861  1.7290  0.4182
  151SAPE  H11B16668   2.389   5.675   6.307 -0.4297  0.5316  0.1600
  151SAPE     P16669   2.654   5.714   6.400  0.0455  0.2456  0.5299
  151SAPE   O1316670   2.667   5.570   6.373  0.2103  0.2113  0.8919
  151SAPE   O1416671   2.779   5.797   6.414  0.1950  0.0802  0.2901
  151SAPE   O1216672   2.575   5.783   6.277  0.2688  0.6478 -0.2624
  151SAPE   O1116673   2.541   5.741   6.515 -0.0733 -0.6845 -0.1273
  151SAPE    C116674   2.487   5.622   6.581 -0.6340 -0.2600  0.4124
  151SAPE    HA16675   2.427   5.564   6.507 -0.7149  0.0020  0.2688
  151SAPE    HB16676   2.576   5.574   6.627 -0.8322 -0.5038  0.5420
  151SAPE    C216677   2.401   5.650   6.708 -0.2676  0.2794 -0.6451
  151SAPE    HS16678   2.307   5.704   6.682 -0.1969  0.8706  0.2688
  151SAPE   O2116679   2.480   5.720   6.812 -0.3573 -0.5107  0.3698
  151SAPE   C2116680   2.511   5.847   6.789  0.3368 -0.3449 -0.1949
  151SAPE   O2216681   2.452   5.924   6.715 -0.3490 -0.2342 -0.0375
  151SAPE   C2216682   2.615   5.880   6.899 -0.4354  0.2787 -0.4483
  151SAPE   H2R16683   2.677   5.791   6.924 -3.4547 -1.9366 -0.1972
  151SAPE   H2S16684   2.679   5.954   6.848  0.2899 -0.2458 -0.3131
  151SAPE    C316685   2.355   5.516   6.770 -0.2508  1.0658 -0.3599
  151SAPE    HX16686   2.441   5.468   6.821 -0.2765  0.4944 -0.8361
  151SAPE    HY16687   2.338   5.448   6.683  1.6478 -2.2119  1.6098
  151SAPE   O3116688   2.250   5.521   6.868 -0.0553  0.0454 -0.3807
  151SAPE   C3116689   2.132   5.476   6.845 -0.5377 -0.2459 -0.4963
  151SAPE   O3216690   2.096   5.422   6.744 -0.2078  0.3021  0.0506
  151SAPE   C3216691   2.032   5.513   6.954 -0.5053 -0.3089  0.7207
  151SAPE   H2X16692   1.970   5.596   6.915  1.1270 -0.1313 -1.7364
  151SAPE   H2Y16693   2.091   5.559   7.037  1.0212  2.7604 -1.8451
  151SAPE   C2316694   2.553   5.939   7.028  0.0548 -0.8135 -0.2307
  151SAPE   H3R16695   2.458   5.988   6.997  0.1099 -0.7972 -0.3741
  151SAPE   H3S16696   2.622   6.011   7.077  1.8893 -2.5843 -0.0548
  151SAPE   C2416697   2.527   5.830   7.126  0.3982 -0.1946  0.2621
  151SAPE   H4R16698   2.483   5.752   7.061  2.3444 -1.7285  0.6709
  151SAPE   H4S16699   2.447   5.854   7.199  1.0532 -1.1647  1.3404
  151SAPE   C2516700   2.652   5.786   7.193 -0.0063 -0.2680 -0.0012
  151SAPE   H5R16701   2.722   5.868   7.215  2.4394 -2.0116 -0.7946
  151SAPE   C2616702   2.680   5.657   7.219 -0.2853 -0.5280 -0.0202
  151SAPE   H6R16703   2.768   5.638   7.281  1.2736  1.0189 -1.6248
  151SAPE   C2716704   2.590   5.540   7.184  0.0346 -0.5027 -0.2585
  151SAPE   H7R16705   2.502   5.568   7.122  0.0146  1.3744  0.5378
  151SAPE   H7S16706   2.542   5.505   7.278 -0.4338  1.0233  0.0997
  151SAPE   C2816707   2.673   5.436   7.109 -0.3411 -0.6032  0.0972
  151SAPE   H8R16708   2.663   5.436   6.999 -0.3205  1.7656  0.0337
  151SAPE   C2916709   2.735   5.333   7.172  0.6086 -0.3847 -0.0706
  151SAPE   H9R16710   2.806   5.274   7.112  1.3385 -0.1176  0.5161
  151SAPE  C21016711   2.741   5.327   7.323 -0.2539  0.6481 -0.3667
  151SAPE  H10R16712   2.752   5.429   7.365  0.6090  0.2215  0.4884
  151SAPE  H10S16713   2.842   5.288   7.345 -0.4677 -1.0903 -2.0960
  151SAPE  C21116714   2.633   5.242   7.389 -0.6833  0.0344  0.1158
  151SAPE  H11R16715   2.532   5.249   7.346 -1.0578 -1.1544  0.7771
  151SAPE  C21216716   2.663   5.149   7.486  0.2027 -0.3476  0.4997
  151SAPE  H12R16717   2.585   5.088   7.533  0.7339 -1.4889 -0.0783
  151SAPE  C21316718   2.805   5.105   7.530  0.3795 -0.4063 -0.3247
  151SAPE  H13R16719   2.853   5.167   7.609  1.7694 -1.6793 -0.1398
  151SAPE  H13S16720   2.871   5.100   7.441 -0.6240 -1.9128 -1.0114
  151SAPE  C21416721   2.787   4.961   7.583  0.4515  0.5207 -0.1574
  151SAPE  H14R16722   2.752   4.879   7.518  1.3573  0.7655 -0.9772
  151SAPE  C21516723   2.795   4.929   7.718  0.8222 -0.1556 -0.1579
  151SAPE  H15R16724   2.788   4.823   7.747 -1.4818 -0.2422 -0.8403
  151SAPE  C21616725   2.821   5.012   7.841  0.8888  0.2149  0.1995
  151SAPE  H16R16726   2.861   5.107   7.802  0.1566  0.0399 -1.0336
  151SAPE  H16S16727   2.892   4.963   7.911  1.4103 -2.4084 -2.0120
  151SAPE  C21716728   2.700   5.058   7.920 -0.1888  0.0608  0.2454
  151SAPE  H17R16729   2.614   5.100   7.863 -1.5959  3.2152  4.2313
  151SAPE  H17S16730   2.741   5.136   7.987 -1.4817  1.2666 -0.3077
  151SAPE  C21816731   2.634   4.944   8.000 -0.8006 -0.2355  0.1974
  151SAPE  H18R16732   2.718   4.881   8.036 -0.2848 -0.0009 -0.5711
  151SAPE  H18S16733   2.586   4.871   7.933  0.2679 -2.2144  1.4947
  151SAPE  C21916734   2.532   4.985   8.113 -0.3128 -0.0912 -0.3613
  151SAPE  H19R16735   2.426   4.980   8.079 -1.0827 -0.1014  1.8902
  151SAPE  H19S16736   2.555   5.086   8.151 -0.0071 -0.1244 -0.4565
  151SAPE  C22016737   2.542   4.893   8.233  0.2290  0.2743 -1.0105
  151SAPE  H20R16738   2.513   4.787   8.218 -1.9757  0.6131  0.3640
  151SAPE  H20S16739   2.647   4.893   8.271 -0.0956  1.1023 -0.0574
  151SAPE  H20T16740   2.495   4.929   8.327  0.9452 -0.0174 -0.5315
  151SAPE   C3316741   1.953   5.394   7.008  0.3379  0.7447  0.5748
  151SAPE   H3X16742   2.019   5.308   7.026 -0.7784 -1.1846 -3.3326
  151SAPE   H3Y16743   1.879   5.355   6.935 -0.4737 -0.5090  2.0092
  151SAPE   C3416744   1.889   5.427   7.141 -1.0422  0.4898  0.4349
  151SAPE   H4X16745   1.803   5.495   7.126 -0.6943  0.7491 -0.4366
  151SAPE   H4Y16746   1.961   5.468   7.215  0.8216 -0.5697 -0.7364
  151SAPE   C3516747   1.836   5.298   7.215 -0.4092  0.3502  0.2191
  151SAPE   H5X16748   1.925   5.244   7.252 -1.0000 -1.6171 -1.0303
  151SAPE   H5Y16749   1.796   5.227   7.139  1.8462 -0.8658  0.0975
  151SAPE   C3616750   1.740   5.324   7.332  0.1886 -0.2254 -0.4773
  151SAPE   H6X16751   1.674   5.235   7.330 -0.9543  0.6027 -0.5706
  151SAPE   H6Y16752   1.676   5.414   7.320 -1.0228 -1.0047 -0.0170
  151SAPE   C3716753   1.815   5.324   7.470 -0.1582  0.3774 -0.0783
  151SAPE   H7X16754   1.856   5.427   7.468 -3.2118  1.6842 -0.8279
  151SAPE   H7Y16755   1.905   5.258   7.466  0.0301  0.6989 -2.6203
  151SAPE   C3816756   1.736   5.295   7.592  0.0266  0.4598  0.0878
  151SAPE   H8X16757   1.701   5.190   7.587  2.2345 -0.2600 -1.6652
  151SAPE   H8Y16758   1.653   5.369   7.595 -0.8180 -0.5094  1.1056
  151SAPE   C3916759   1.832   5.308   7.712  0.2709 -0.4858 -0.1910
  151SAPE   H9X16760   1.856   5.414   7.733 -0.7936 -0.2918  0.1499
  151SAPE   H9Y16761   1.920   5.244   7.691 -0.3167 -1.2546 -0.3478
  151SAPE  C31016762   1.763   5.252   7.833 -0.1146 -0.0555 -0.9992
  151SAPE  H10X16763   1.671   5.313   7.849  0.7708  1.3152 -0.9852
  151SAPE  H10Y16764   1.825   5.277   7.922 -0.8337 -0.4975 -0.3645
  151SAPE  C31116765   1.722   5.103   7.826  0.0605  0.5476 -0.2746
  151SAPE  H11X16766   1.802   5.039   7.783  0.6002  0.2970  1.0635
  151SAPE  H11Y16767   1.635   5.092   7.758 -0.0364 -0.1239 -0.0474
  151SAPE  C31216768   1.668   5.046   7.960 -0.0664  0.1532 -0.0974
  151SAPE  H12X16769   1.747   5.036   8.037 -1.1872 -0.3376  1.0407
  151SAPE  H12Y16770   1.623   4.949   7.929 -0.7055  0.8231 -1.3439
  151SAPE  C31316771   1.547   5.123   8.013  0.6492  0.3601  0.3689
  151SAPE  H13X16772   1.496   5.154   7.919  0.0936 -0.3542  0.4173
  151SAPE  H13Y16773   1.590   5.208   8.070  0.7707 -0.7547  2.0321
  151SAPE  C31416774   1.449   5.031   8.089  0.7619 -0.2962 -0.0413
  151SAPE  H14X16775   1.493   5.000   8.186 -1.0108  0.7961  1.1989
  151SAPE  H14Y16776   1.426   4.951   8.016  1.6988  0.7797 -1.5618
  151SAPE  C31516777   1.315   5.109   8.112 -0.3832 -0.2901  0.5457
  151SAPE  H15X16778   1.272   5.153   8.019  2.1734 -1.6908 -1.4346
  151SAPE  H15Y16779   1.324   5.192   8.185 -1.6493 -1.8570  2.6128
  151SAPE  C31616780   1.211   5.014   8.175 -0.6341 -0.1789 -0.3874
  151SAPE  H16X16781   1.267   4.938   8.234  0.7290 -0.0614 -1.4766
  151SAPE  H16Y16782   1.151   4.955   8.102 -0.7647  1.3608 -1.5723
  151SAPE  C31716783   1.122   5.072   8.290 -0.5304 -0.4261  0.4513
  151SAPE  H17X16784   1.194   5.095   8.371  0.8456 -0.8718 -0.5991
  151SAPE  H17Y16785   1.048   5.001   8.334 -1.4258  1.2482  1.7939
  151SAPE  C31816786   1.043   5.198   8.260 -0.1030  0.1029  0.2664
  151SAPE  H18X16787   0.977   5.188   8.171 -0.4686 -1.0849  0.6535
  151SAPE  H18Y16788   1.114   5.276   8.224  0.2162  0.4360  1.5803
  151SAPE  H18Z16789   0.991   5.229   8.353  0.1438  0.8729  0.1519
  152SAPE     N16790   2.486   0.287   6.382 -0.5816 -0.2174 -0.7046
  152SAPE   HN116791   2.423   0.302   6.301 -0.6385  1.4374 -0.3837
  152SAPE   HN216792   2.571   0.243   6.341  1.0821  1.9345  0.2528
  152SAPE   HN316793   2.436   0.228   6.451  1.7995 -1.4521  0.0877
  152SAPE   C1216794   2.503   0.422   6.442 -0.1585  0.1484  0.6114
  152SAPE  H12A16795   2.548   0.481   6.360 -1.3202  0.5771  0.2708
  152SAPE  H12B16796   2.577   0.425   6.525 -1.4188  2.6516  1.7490
  152SAPE   C1116797   2.370   0.488   6.480 -0.3319 -0.2311 -0.0647
  152SAPE  H11A16798   2.387   0.590   6.519 -1.5227  0.5324 -1.4532
  152SAPE  H11B16799   2.312   0.424   6.550 -0.8317 -1.5614 -1.6259
  152SAPE     P16800   2.246   0.649   6.310  0.1525  0.0596  0.2893
  152SAPE   O1316801   2.353   0.748   6.309  0.5115 -0.5661 -0.0845
  152SAPE   O1416802   2.174   0.629   6.186 -0.2412 -0.6599 -0.1303
  152SAPE   O1216803   2.288   0.504   6.362  0.6038  0.2408  0.0179
  152SAPE   O1116804   2.143   0.705   6.416 -0.0699 -0.1455 -0.7021
  152SAPE    C116805   2.045   0.625   6.488  0.7705 -0.2625 -0.3740
  152SAPE    HA16806   1.961   0.612   6.417  0.2467 -0.2689  0.2329
  152SAPE    HB16807   2.081   0.524   6.518  0.2831  0.3033  2.4288
  152SAPE    C216808   2.006   0.708   6.614  0.3163 -0.5673  0.0441
  152SAPE    HS16809   1.987   0.812   6.581  0.2672 -0.8980 -1.0335
  152SAPE   O2116810   2.124   0.700   6.695 -0.4245 -0.2917  0.1244
  152SAPE   C2116811   2.180   0.813   6.728 -0.0503  0.0746  0.5396
  152SAPE   O2216812   2.143   0.922   6.688 -0.1127 -0.0891  0.3175
  152SAPE   C2216813   2.310   0.798   6.809 -0.2555  0.0593  0.4410
  152SAPE   H2R16814   2.389   0.788   6.732 -0.3211 -1.5681  0.5392
  152SAPE   H2S16815   2.329   0.890   6.867  2.3583 -0.8049  1.0600
  152SAPE    C316816   1.874   0.643   6.670  0.0459  0.0452  0.1479
  152SAPE    HX16817   1.894   0.536   6.689 -1.4411 -0.4378 -0.8333
  152SAPE    HY16818   1.793   0.652   6.595  0.3568 -1.4672 -0.4060
  152SAPE   O3116819   1.848   0.702   6.797  0.4754  0.1768  0.0460
  152SAPE   C3116820   1.747   0.648   6.860  0.0861 -0.0613 -0.2923
  152SAPE   O3216821   1.667   0.569   6.815  0.5029 -0.2688 -0.5715
  152SAPE   C3216822   1.756   0.701   7.004  0.5117  0.4373  0.9438
  152SAPE   H2X16823   1.743   0.811   6.992 -2.5881  0.1044  0.2158
  152SAPE   H2Y16824   1.853   0.677   7.052  1.0520  0.6989  0.0081
  152SAPE   C2316825   2.314   0.673   6.892  0.0187  0.0853 -0.6538
  152SAPE   H3R16826   2.418   0.658   6.926 -0.6093  0.9516  1.8977
  152SAPE   H3S16827   2.273   0.586   6.837  1.6251 -1.2212  0.1493
  152SAPE   C2416828   2.224   0.675   7.021  0.1785 -0.1977 -0.3257
  152SAPE   H4R16829   2.222   0.571   7.062 -1.8185 -0.5273 -1.1284
  152SAPE   H4S16830   2.119   0.699   6.994  0.7087  1.8017 -0.7593
  152SAPE   C2516831   2.266   0.766   7.131 -0.7876 -0.2111  0.3122
  152SAPE   H5R16832   2.300   0.864   7.095 -0.1401 -0.3617  0.4829
  152SAPE   C2616833   2.278   0.736   7.256  0.6171  0.1866 -0.2231
  152SAPE   H6R16834   2.294   0.812   7.334  0.9119 -1.1777  1.0921
  152SAPE   C2716835   2.256   0.605   7.321  0.6247 -0.3999 -0.5217
  152SAPE   H7R16836   2.308   0.605   7.419  1.4740 -0.8125 -0.9630
  152SAPE   H7S16837   2.309   0.523   7.269 -1.1183 -1.3569 -0.8767
  152SAPE   C2816838   2.108   0.570   7.331 -0.7744 -0.6493 -0.0480
  152SAPE   H8R16839   2.044   0.634   7.269 -1.1050 -0.0198  0.9162
  152SAPE   C2916840   2.046   0.485   7.416  0.2835 -0.4168 -0.0217
  152SAPE   H9R16841   1.938   0.466   7.417  0.1232  0.4648 -0.3249
  152SAPE  C21016842   2.129   0.401   7.511  0.2874  0.5841  0.1927
  152SAPE  H10R16843   2.183   0.468   7.581 -0.5322  2.1300 -0.6112
  152SAPE  H10S16844   2.199   0.332   7.458  1.0256  0.7878  0.9041
  152SAPE  C21116845   2.050   0.290   7.572 -0.6524  0.0310  0.4094
  152SAPE  H11R16846   1.965   0.259   7.510 -0.1278  0.7077 -0.6705
  152SAPE  C21216847   2.057   0.236   7.694 -0.0857  0.2326  0.2999
  152SAPE  H12R16848   1.989   0.150   7.703  0.2570 -0.2722 -1.4865
  152SAPE  C21316849   2.149   0.253   7.814  0.5895  0.1622 -0.2973
  152SAPE  H13R16850   2.191   0.355   7.806  0.2165  0.1615 -2.8914
  152SAPE  H13S16851   2.235   0.187   7.792 -0.2612 -0.4623 -1.8664
  152SAPE  C21416852   2.086   0.224   7.949 -0.4857  0.4527 -0.1878
  152SAPE  H14R16853   1.983   0.185   7.943 -0.3382  0.2489 -1.8938
  152SAPE  C21516854   2.145   0.253   8.072 -0.1127  0.8069 -0.1140
  152SAPE  H15R16855   2.099   0.225   8.168  1.5513  1.9594  1.0788
  152SAPE  C21616856   2.280   0.312   8.094  0.0529 -0.2438 -0.0382
  152SAPE  H16R16857   2.276   0.418   8.062  0.3702 -0.1931  0.0902
  152SAPE  H16S16858   2.350   0.272   8.017 -2.2045 -0.8131 -1.9449
  152SAPE  C21716859   2.345   0.295   8.231  0.4093 -0.4735  0.2094
  152SAPE  H17R16860   2.448   0.335   8.226 -0.3167  1.3160 -2.5791
  152SAPE  H17S16861   2.360   0.188   8.260  3.9219 -0.3364 -0.6881
  152SAPE  C21816862   2.275   0.369   8.342 -0.2115 -0.1528 -0.3150
  152SAPE  H18R16863   2.180   0.316   8.366 -0.9266  2.1555  2.5030
  152SAPE  H18S16864   2.230   0.461   8.298  4.6400  1.4733 -2.5042
  152SAPE  C21916865   2.359   0.382   8.469  0.8917  0.4344  0.5913
  152SAPE  H19R16866   2.374   0.279   8.507  0.7606  0.5442  0.9422
  152SAPE  H19S16867   2.300   0.430   8.550 -0.3639 -1.9674  1.2063
  152SAPE  C22016868   2.497   0.449   8.467  0.8079  0.5032  0.4022
  152SAPE  H20R16869   2.576   0.374   8.442  1.3945  1.6052 -1.3070
  152SAPE  H20S16870   2.519   0.509   8.558  1.4100 -1.1744  1.4018
  152SAPE  H20T16871   2.488   0.517   8.379 -0.6456 -1.4872 -1.0981
  152SAPE   C3316872   1.638   0.649   7.095  0.2485  0.5527 -0.7555
  152SAPE   H3X16873   1.649   0.544   7.129  0.9733  0.9548  0.3167
  152SAPE   H3Y16874   1.542   0.670   7.043 -0.6926 -0.0671  0.6613
  152SAPE   C3416875   1.643   0.724   7.234 -0.4098 -0.3663 -0.2490
  152SAPE   H4X16876   1.629   0.832   7.213  1.1944 -0.2182 -0.6284
  152SAPE   H4Y16877   1.741   0.713   7.284 -1.4161  1.4344  2.3426
  152SAPE   C3516878   1.536   0.674   7.330 -0.1009 -0.6923  0.3278
  152SAPE   H5X16879   1.453   0.639   7.265  1.8447 -0.5757 -2.3957
  152SAPE   H5Y16880   1.491   0.753   7.394 -0.2317 -0.1505 -0.4181
  152SAPE   C3616881   1.573   0.551   7.425 -0.0757 -0.4432 -0.0872
  152SAPE   H6X16882   1.654   0.488   7.381  0.9649  1.9011 -1.7609
  152SAPE   H6Y16883   1.486   0.485   7.444 -0.0892 -0.0208  1.4700
  152SAPE   C3716884   1.616   0.616   7.552 -0.6197 -0.2763 -0.3052
  152SAPE   H7X16885   1.544   0.683   7.602  1.1320  1.5107 -0.0202
  152SAPE   H7Y16886   1.712   0.669   7.530 -0.4546 -0.1721  0.6084
  152SAPE   C3816887   1.646   0.515   7.671 -0.1461 -0.3436  0.2630
  152SAPE   H8X16888   1.689   0.576   7.753  0.0115  2.0969 -1.5184
  152SAPE   H8Y16889   1.720   0.440   7.640  1.6070  1.5188 -0.2832
  152SAPE   C3916890   1.520   0.444   7.718  0.2142  0.0266 -0.4293
  152SAPE   H9X16891   1.484   0.369   7.645 -0.5002  1.8374 -2.0265
  152SAPE   H9Y16892   1.439   0.520   7.731  0.9159  0.5228  1.4196
  152SAPE  C31016893   1.532   0.381   7.856 -0.2263 -0.5402 -0.2590
  152SAPE  H10X16894   1.574   0.453   7.929 -2.3573 -1.3404  1.9252
  152SAPE  H10Y16895   1.609   0.301   7.848 -0.5041 -0.9864  1.1791
  152SAPE  C31116896   1.406   0.331   7.930 -0.6264 -0.4999  0.0551
  152SAPE  H11X16897   1.349   0.261   7.865 -1.0938  0.3501 -0.4683
  152SAPE  H11Y16898   1.331   0.412   7.941 -2.1623 -1.7559 -0.6953
  152SAPE  C31216899   1.437   0.263   8.065  0.3659  0.5405 -0.1280
  152SAPE  H12X16900   1.493   0.169   8.044 -1.2090 -0.7349  1.0764
  152SAPE  H12Y16901   1.344   0.212   8.097  0.9950 -0.8589 -0.4430
  152SAPE  C31316902   1.505   0.347   8.173 -0.5569 -0.2575  0.0443
  152SAPE  H13X16903   1.494   0.457   8.166 -0.8278 -0.2172  0.9683
  152SAPE  H13Y16904   1.613   0.334   8.150 -0.7060 -0.7992 -0.3876
  152SAPE  C31416905   1.493   0.310   8.324 -0.6256 -0.2637 -0.0051
  152SAPE  H14X16906   1.391   0.275   8.349 -0.4693 -1.6798 -1.2711
  152SAPE  H14Y16907   1.522   0.394   8.391 -0.5867 -0.4943  0.2664
  152SAPE  C31516908   1.589   0.202   8.363 -0.9302  0.6517  0.6198
  152SAPE  H15X16909   1.694   0.236   8.352 -0.6472 -0.2914  0.3300
  152SAPE  H15Y16910   1.570   0.107   8.309 -3.2440  0.9590  0.7798
  152SAPE  C31616911   1.585   0.175   8.513  0.2153  0.0289 -0.2832
  152SAPE  H16X16912   1.597   0.269   8.571 -3.0998 -0.2650  1.1274
  152SAPE  H16Y16913   1.672   0.112   8.541  1.0120  1.1454 -0.1866
  152SAPE  C31716914   1.460   0.091   8.548 -0.0916 -0.1698  1.0646
  152SAPE  H17X16915   1.473  -0.009   8.503  1.5436  0.2911  0.4759
  152SAPE  H17Y16916   1.366   0.141   8.515 -0.0392 -0.9859 -0.3487
  152SAPE  C31816917   1.445   0.079   8.705 -0.2245  0.1611  0.4805
  152SAPE  H18X16918   1.350   0.024   8.714  0.2022 -0.4921  1.0539
  152SAPE  H18Y16919   1.442   0.175   8.761  2.5521  0.6734 -0.1105
  152SAPE  H18Z16920   1.518   0.011   8.755  0.7465  0.0322 -1.0454
  153SAPE     N16921   0.731   5.550   6.189 -0.2834  0.2187  0.5085
  153SAPE   HN116922   0.673   5.495   6.123 -1.2572  1.9794 -0.1468
  153SAPE   HN216923   0.789   5.606   6.124  0.2212 -0.8881 -0.0129
  153SAPE   HN316924   0.789   5.485   6.246 -0.5622  1.2087  1.9719
  153SAPE   C1216925   0.652   5.625   6.286  0.6043 -0.0736 -0.2518
  153SAPE  H12A16926   0.580   5.693   6.237 -1.4755 -2.0053 -0.0276
  153SAPE  H12B16927   0.729   5.682   6.344  2.4955 -1.9561 -0.7665
  153SAPE   C1116928   0.560   5.540   6.375 -0.5707 -0.7651 -0.7870
  153SAPE  H11A16929   0.526   5.606   6.457 -2.8630 -2.9953  0.1953
  153SAPE  H11B16930   0.614   5.463   6.434 -0.0573  1.6246  2.1395
  153SAPE     P16931   0.440   5.363   6.225  0.8100 -0.0746  0.2371
  153SAPE   O1316932   0.305   5.348   6.175  0.7062  0.5750  0.0917
  153SAPE   O1416933   0.551   5.362   6.126 -0.0821 -0.6049  0.2725
  153SAPE   O1216934   0.448   5.497   6.311  0.2397  0.3400  0.4192
  153SAPE   O1116935   0.470   5.246   6.335 -0.0635 -0.1553  0.1547
  153SAPE    C116936   0.366   5.192   6.424  0.3701  0.1695 -0.1169
  153SAPE    HA16937   0.271   5.200   6.366  1.4177  0.6613 -1.8625
  153SAPE    HB16938   0.387   5.087   6.453 -0.9995  0.8360  3.8126
  153SAPE    C216939   0.355   5.269   6.551  0.2088 -0.5988 -0.7934
  153SAPE    HS16940   0.319   5.372   6.530 -0.8818 -0.6240  0.7516
  153SAPE   O2116941   0.483   5.260   6.610 -0.3420 -0.7369 -0.5373
  153SAPE   C2116942   0.514   5.353   6.698 -0.0817 -0.3206  0.4129
  153SAPE   O2216943   0.455   5.458   6.718  0.0753  0.1507 -0.4566
  153SAPE   C2216944   0.651   5.325   6.756  0.2130 -0.6545  0.1578
  153SAPE   H2R16945   0.720   5.301   6.672  1.1992 -2.0005  1.3110
  153SAPE   H2S16946   0.676   5.419   6.810 -0.3955  0.4912 -1.4777
  153SAPE    C316947   0.240   5.204   6.646 -0.0702  0.6357 -0.0096
  153SAPE    HX16948   0.279   5.105   6.677 -0.0143  0.7711  0.3687
  153SAPE    HY16949   0.147   5.182   6.590  0.9767 -4.1108 -0.2677
  153SAPE   O3116950   0.221   5.279   6.774 -0.3230  0.3420 -0.2470
  153SAPE   C3116951   0.151   5.385   6.755 -0.1925 -0.5063 -0.6483
  153SAPE   O3216952   0.127   5.432   6.644  0.6799 -0.6859 -0.3282
  153SAPE   C3216953   0.102   5.439   6.890 -0.4460 -0.6366 -0.1252
  153SAPE   H2X16954  -0.007   5.417   6.893 -0.5556 -0.0354  3.0528
  153SAPE   H2Y16955   0.110   5.550   6.887  0.8013 -0.7105 -2.8564
  153SAPE   C2316956   0.658   5.214   6.859  0.7076 -0.3363  0.2310
  153SAPE   H3R16957   0.767   5.208   6.880  1.0922  2.5965 -0.4758
  153SAPE   H3S16958   0.640   5.118   6.806 -0.3359  0.3042 -0.6323
  153SAPE   C2416959   0.562   5.221   6.977  0.0400  0.6577  0.0579
  153SAPE   H4R16960   0.583   5.136   7.045 -1.4090 -0.1116 -0.4039
  153SAPE   H4S16961   0.459   5.213   6.937 -0.5092 -0.5392  1.6301
  153SAPE   C2516962   0.563   5.351   7.047 -0.6339 -0.0908 -0.1391
  153SAPE   H5R16963   0.524   5.431   6.982  0.4048 -0.1847 -0.8996
  153SAPE   C2616964   0.606   5.369   7.178  0.1301  0.1758  0.0226
  153SAPE   H6R16965   0.599   5.464   7.233 -1.7082  1.1389 -1.7338
  153SAPE   C2716966   0.654   5.258   7.268  0.4473  0.1955  0.3016
  153SAPE   H7R16967   0.717   5.311   7.342  0.0962  3.1996 -1.3725
  153SAPE   H7S16968   0.720   5.190   7.210 -1.6137 -2.5287  0.9401
  153SAPE   C2816969   0.551   5.177   7.347 -0.1883 -0.1253 -0.4454
  153SAPE   H8R16970   0.486   5.125   7.275 -1.1091 -0.7130  0.7559
  153SAPE   C2916971   0.535   5.154   7.482  0.4363  0.2141  0.7974
  153SAPE   H9R16972   0.454   5.091   7.521  0.3225 -0.4080 -0.3892
  153SAPE  C21016973   0.628   5.200   7.585  0.1751 -0.3919  0.4161
  153SAPE  H10R16974   0.567   5.228   7.673 -0.5899 -1.0361  0.0951
  153SAPE  H10S16975   0.689   5.288   7.555 -0.4542  0.4040  1.3833
  153SAPE  C21116976   0.724   5.086   7.618 -0.2031 -0.0260  0.3970
  153SAPE  H11R16977   0.779   5.038   7.535 -0.2519  1.0007 -0.2471
  153SAPE  C21216978   0.774   5.068   7.745 -0.3233 -0.2843  0.2807
  153SAPE  H12R16979   0.855   4.995   7.763 -0.4180 -0.3173  0.5766
  153SAPE  C21316980   0.744   5.147   7.865  0.2430  0.1048  0.1457
  153SAPE  H13R16981   0.710   5.249   7.839  1.9554  0.1995 -2.0008
  153SAPE  H13S16982   0.834   5.165   7.929 -0.9050 -2.3521  2.6895
  153SAPE  C21416983   0.628   5.093   7.955 -0.4792 -0.6181 -0.4263
  153SAPE  H14R16984   0.525   5.130   7.942 -0.5274  0.0251  1.5348
  153SAPE  C21516985   0.646   4.991   8.046  0.3840  0.0645  0.1137
  153SAPE  H15R16986   0.560   4.960   8.108  1.5814 -1.8543  0.8880
  153SAPE  C21616987   0.773   4.915   8.070  0.4373  0.4401  0.2619
  153SAPE  H16R16988   0.790   4.931   8.178 -1.0371  0.6623  0.4761
  153SAPE  H16S16989   0.858   4.963   8.016  0.1210  0.5146 -0.1793
  153SAPE  C21716990   0.773   4.765   8.055  0.1422 -0.4216 -0.9735
  153SAPE  H17R16991   0.767   4.725   7.952 -2.3902 -0.2858 -0.9352
  153SAPE  H17S16992   0.691   4.716   8.112  0.7177  2.2375  2.4544
  153SAPE  C21816993   0.892   4.691   8.110 -0.5775  0.1038 -0.0955
  153SAPE  H18R16994   0.978   4.715   8.044 -0.5846 -0.7102 -0.4117
  153SAPE  H18S16995   0.864   4.584   8.099  0.7451 -0.1512 -1.2048
  153SAPE  C21916996   0.926   4.729   8.257 -0.6220  0.8618  0.6526
  153SAPE  H19R16997   0.826   4.748   8.302 -1.5288 -1.8244 -0.0352
  153SAPE  H19S16998   0.982   4.824   8.267  1.1594 -0.0859  0.1470
  153SAPE  C22016999   0.991   4.606   8.328  0.0565 -0.0558 -0.0711
  153SAPE  H20R17000   1.084   4.577   8.276 -0.2066  0.4091 -0.8228
  153SAPE  H20S17001   0.918   4.524   8.311 -1.5945  1.3268  0.0246
  153SAPE  H20T17002   1.012   4.632   8.434  2.0576 -0.5034 -0.3187
  153SAPE   C3317003   0.189   5.391   7.009 -0.1865 -0.3411  0.5394
  153SAPE   H3X17004   0.292   5.428   6.990  0.2245 -0.2848  2.6377
  153SAPE   H3Y17005   0.193   5.280   7.005 -0.0697 -0.3040 -1.5028
  153SAPE   C3417006   0.143   5.449   7.140  0.2833  0.2121 -0.1859
  153SAPE   H4X17007   0.041   5.417   7.171 -0.5069 -0.1617 -2.9392
  153SAPE   H4Y17008   0.130   5.556   7.115 -0.2041  0.5207  1.2735
  153SAPE   C3517009   0.246   5.434   7.250 -0.3105  0.4686 -0.0232
  153SAPE   H5X17010   0.336   5.493   7.222  0.5781  0.4180  2.4714
  153SAPE   H5Y17011   0.283   5.329   7.260  1.3244  1.0965  0.9687
  153SAPE   C3617012   0.185   5.475   7.383  0.8032  0.9968 -0.1965
  153SAPE   H6X17013   0.126   5.388   7.417  2.5805  0.4815  1.7555
  153SAPE   H6Y17014   0.123   5.568   7.380  0.6107  0.9241  0.9309
  153SAPE   C3717015   0.292   5.499   7.493 -0.2279  0.8796  0.0450
  153SAPE   H7X17016   0.341   5.593   7.459 -0.3671  1.0329  0.2602
  153SAPE   H7Y17017   0.362   5.414   7.485 -2.2120 -0.7156 -1.7808
  153SAPE   C3817018   0.238   5.529   7.634 -0.2252  1.0450  0.5147
  153SAPE   H8X17019   0.137   5.485   7.646  0.5922 -2.1217 -2.5115
  153SAPE   H8Y17020   0.238   5.639   7.647  1.6613  1.2498 -0.7485
  153SAPE   C3917021   0.333   5.467   7.735 -0.3234 -0.2674 -0.3198
  153SAPE   H9X17022   0.433   5.514   7.725 -0.4736 -0.4427 -3.4012
  153SAPE   H9Y17023   0.338   5.359   7.711  0.5078  0.0086 -1.4712
  153SAPE  C31017024   0.291   5.492   7.883  0.6143 -0.2459  0.4042
  153SAPE  H10X17025   0.180   5.502   7.885  0.5117 -1.2300  0.0574
  153SAPE  H10Y17026   0.329   5.590   7.920 -0.8171  0.0443  1.1932
  153SAPE  C31117027   0.329   5.383   7.981 -0.7385  0.1005 -0.2828
  153SAPE  H11X17028   0.440   5.387   7.974 -0.7142  1.3060  0.5999
  153SAPE  H11Y17029   0.291   5.286   7.942 -1.4752 -0.0026  0.6696
  153SAPE  C31217030   0.258   5.412   8.112  0.0064  0.1877 -0.5598
  153SAPE  H12X17031   0.150   5.403   8.089  0.0253  0.9669 -0.9751
  153SAPE  H12Y17032   0.279   5.515   8.148  1.0108  0.7722 -2.6712
  153SAPE  C31317033   0.289   5.312   8.229  0.3473  0.1987 -0.2088
  153SAPE  H13X17034   0.291   5.206   8.195  1.2050  0.2417 -0.3075
  153SAPE  H13Y17035   0.204   5.321   8.300 -1.6062  0.9485 -2.4670
  153SAPE  C31417036   0.418   5.333   8.290  0.4940  0.6349 -0.2152
  153SAPE  H14X17037   0.414   5.431   8.343 -1.6660  0.0876  0.7304
  153SAPE  H14Y17038   0.498   5.341   8.213 -0.4733 -0.1966 -1.3328
  153SAPE  C31517039   0.452   5.218   8.384 -0.8173 -0.2040 -1.1767
  153SAPE  H15X17040   0.464   5.121   8.331  0.4794 -1.5496  1.3904
  153SAPE  H15Y17041   0.378   5.196   8.464  1.1401  0.6297  0.9730
  153SAPE  C31617042   0.592   5.240   8.444 -0.3511  0.3543  0.1050
  153SAPE  H16X17043   0.600   5.340   8.491 -0.3204  0.3604  0.0873
  153SAPE  H16Y17044   0.672   5.222   8.368  0.1536  2.2260  0.1364
  153SAPE  C31717045   0.624   5.143   8.556 -0.5518  0.4482 -0.8277
  153SAPE  H17X17046   0.607   5.039   8.523 -0.4153  1.0638 -2.9373
  153SAPE  H17Y17047   0.548   5.177   8.630 -0.3933  0.4233 -0.6516
  153SAPE  C31817048   0.764   5.159   8.618 -0.5623  0.1146 -0.3938
  153SAPE  H18X17049   0.821   5.209   8.538  0.2917 -3.0010 -1.8962
  153SAPE  H18Y17050   0.805   5.059   8.646  1.2658  0.8286 -0.4006
  153SAPE  H18Z17051   0.761   5.223   8.709  0.2225 -0.4357  0.0264
  154SAPE     N17052   6.720   5.834   6.165 -0.2339  0.0155 -0.0475
  154SAPE   HN117053   6.643   5.903   6.174  0.6718  1.0806 -0.2494
  154SAPE   HN217054   6.805   5.889   6.140 -1.0213  0.2154 -2.5863
  154SAPE   HN317055   6.691   5.774   6.084 -2.1295  0.2382  0.4214
  154SAPE   C1217056   6.735   5.742   6.280  0.5601  0.1303  0.0843
  154SAPE  H12A17057   6.800   5.793   6.354 -1.2352  1.5093  0.7825
  154SAPE  H12B17058   6.792   5.653   6.244  1.0792  1.2064 -1.9566
  154SAPE   C1117059   6.593   5.718   6.342  0.4215 -0.3119  0.2667
  154SAPE  H11A17060   6.548   5.817   6.365 -0.1652 -0.3771 -0.5636
  154SAPE  H11B17061   6.607   5.659   6.435  0.9688 -1.4303 -0.4976
  154SAPE     P17062   6.364   5.702   6.217 -0.1298 -0.0550 -0.1227
  154SAPE   O1317063   6.377   5.834   6.155 -0.0838  0.2500  0.2771
  154SAPE   O1417064   6.301   5.591   6.135 -0.8028  0.0429  0.2130
  154SAPE   O1217065   6.502   5.641   6.257 -0.2186 -0.5053  0.9479
  154SAPE   O1117066   6.287   5.716   6.349  0.0287 -0.1098  0.7890
  154SAPE    C117067   6.318   5.650   6.471 -0.3191 -0.0360  0.7740
  154SAPE    HA17068   6.352   5.546   6.452  0.1431 -0.1301  2.0178
  154SAPE    HB17069   6.406   5.691   6.525  2.1943  1.2405 -3.7341
  154SAPE    C217070   6.199   5.611   6.556  1.3317 -0.5425  0.5593
  154SAPE    HS17071   6.150   5.700   6.601  0.6842 -0.9099  0.5978
  154SAPE   O2117072   6.236   5.523   6.661 -0.5363  0.4718 -0.2171
  154SAPE   C2117073   6.315   5.563   6.756 -0.2153 -0.8839  0.1052
  154SAPE   O2217074   6.331   5.684   6.783  0.7759  0.0450  0.1068
  154SAPE   C2217075   6.387   5.443   6.816  0.2974 -0.1098  0.8401
  154SAPE   H2R17076   6.325   5.388   6.890  0.7857  0.4160  1.6618
  154SAPE   H2S17077   6.410   5.371   6.734  4.0734 -1.0764  2.5293
  154SAPE    C317078   6.090   5.546   6.467  0.5685  0.0667  0.1402
  154SAPE    HX17079   6.126   5.445   6.438 -2.0380 -1.0056  0.3128
  154SAPE    HY17080   6.065   5.610   6.380 -1.5339 -0.8038  0.0330
  154SAPE   O3117081   5.965   5.509   6.542  0.0577 -0.1682 -0.0070
  154SAPE   C3117082   5.877   5.613   6.564  0.7630  0.5169  0.1332
  154SAPE   O3217083   5.890   5.727   6.526 -0.3106 -0.0088 -0.2709
  154SAPE   C3217084   5.754   5.558   6.634  0.1385 -0.3848 -0.1768
  154SAPE   H2X17085   5.728   5.451   6.618 -0.9493 -0.1310 -0.1386
  154SAPE   H2Y17086   5.663   5.615   6.606  0.1030  0.5003  1.6145
  154SAPE   C2317087   6.527   5.465   6.883  1.0466  0.1212 -0.5415
  154SAPE   H3R17088   6.604   5.499   6.811  0.0630  1.0974 -1.1548
  154SAPE   H3S17089   6.550   5.362   6.918  0.3933 -0.4847 -1.8163
  154SAPE   C2417090   6.526   5.564   7.004  0.0706 -0.6825 -0.3181
  154SAPE   H4R17091   6.492   5.664   6.968 -2.1315 -2.0224 -2.2291
  154SAPE   H4S17092   6.633   5.570   7.034 -0.0999 -0.2607  0.2266
  154SAPE   C2517093   6.441   5.509   7.122  0.5298  0.4453  0.5013
  154SAPE   H5R17094   6.339   5.495   7.084  1.1503  0.2971 -1.2019
  154SAPE   C2617095   6.479   5.474   7.251  1.0456 -0.7700  0.2631
  154SAPE   H6R17096   6.406   5.417   7.310 -0.4899 -0.6188 -1.4215
  154SAPE   C2717097   6.619   5.485   7.312  0.1258  0.0226 -0.2810
  154SAPE   H7R17098   6.622   5.566   7.388 -0.6897 -0.4936  0.3152
  154SAPE   H7S17099   6.688   5.510   7.228  0.9721  1.4919  0.8084
  154SAPE   C2817100   6.667   5.368   7.392 -0.0564 -0.5192 -0.1944
  154SAPE   H8R17101   6.729   5.298   7.335  2.8256  0.7645  1.1276
  154SAPE   C2917102   6.656   5.355   7.527 -0.1055  0.6232  0.7956
  154SAPE   H9R17103   6.697   5.259   7.562 -2.3034  0.0025  1.8676
  154SAPE  C21017104   6.585   5.446   7.626 -0.6932 -0.2426 -0.2458
  154SAPE  H10R17105   6.498   5.506   7.593  0.0837  0.0299 -1.9141
  154SAPE  H10S17106   6.649   5.531   7.656  1.4179 -2.7175  2.9195
  154SAPE  C21117107   6.569   5.371   7.750  0.1436  0.7940  0.4056
  154SAPE  H11R17108   6.524   5.272   7.738 -2.4906  2.1777 -2.4032
  154SAPE  C21217109   6.608   5.401   7.875 -0.5480 -0.3772 -0.8972
  154SAPE  H12R17110   6.592   5.332   7.960  0.7724  1.4689  0.9214
  154SAPE  C21317111   6.673   5.528   7.923  0.5328 -0.0384  0.2055
  154SAPE  H13R17112   6.636   5.615   7.864 -1.7080 -1.0915 -0.0666
  154SAPE  H13S17113   6.777   5.510   7.888 -0.7046 -2.8370 -2.5666
  154SAPE  C21417114   6.669   5.562   8.072  0.0258 -0.1095 -0.0993
  154SAPE  H14R17115   6.712   5.477   8.126 -2.4935 -1.5388 -0.1723
  154SAPE  C21517116   6.617   5.665   8.137  0.4818 -0.3941 -0.1369
  154SAPE  H15R17117   6.615   5.667   8.247 -0.9572  0.0428 -0.1568
  154SAPE  C21617118   6.539   5.779   8.071  0.7642 -0.2093  0.2010
  154SAPE  H16R17119   6.480   5.743   7.984 -0.2708 -1.6672  1.4487
  154SAPE  H16S17120   6.610   5.854   8.031  0.6478 -0.6221 -0.8208
  154SAPE  C21717121   6.437   5.843   8.167 -0.6638 -0.0936  0.4758
  154SAPE  H17R17122   6.485   5.907   8.244 -1.5425 -1.6426  2.3969
  154SAPE  H17S17123   6.374   5.762   8.210 -0.4141 -0.4393  0.1925
  154SAPE  C21817124   6.348   5.930   8.080  0.2307  0.2093 -0.1412
  154SAPE  H18R17125   6.304   5.870   7.998  1.5778 -1.6468  0.4326
  154SAPE  H18S17126   6.418   5.996   8.025  0.3183 -0.0749 -0.3675
  154SAPE  C21917127   6.243   6.009   8.155 -0.6284 -0.2806  0.3462
  154SAPE  H19R17128   6.205   5.948   8.240 -0.8216 -1.2648 -0.4280
  154SAPE  H19S17129   6.149   6.019   8.096 -1.6523 -0.0497  1.9527
  154SAPE  C22017130   6.290   6.139   8.218  0.8007 -0.0937 -0.1456
  154SAPE  H20R17131   6.205   6.202   8.251  0.9676  0.2542 -0.3702
  154SAPE  H20S17132   6.354   6.199   8.150 -0.5868  0.4545 -1.0099
  154SAPE  H20T17133   6.344   6.117   8.312 -0.1902  0.6133  0.6088
  154SAPE   C3317134   5.776   5.581   6.785  0.3207  0.3305  0.1307
  154SAPE   H3X17135   5.871   5.539   6.823  0.6001 -1.3400 -2.2032
  154SAPE   H3Y17136   5.704   5.517   6.841  2.2188 -0.8252  1.3367
  154SAPE   C3417137   5.757   5.720   6.826  0.3421  0.0795  0.4676
  154SAPE   H4X17138   5.649   5.739   6.846  0.8858  1.7181  2.0776
  154SAPE   H4Y17139   5.802   5.791   6.753 -0.2441  1.1732  1.1329
  154SAPE   C3517140   5.830   5.758   6.960 -0.3826 -0.2165  0.0196
  154SAPE   H5X17141   5.805   5.866   6.966 -1.2038 -0.1795 -2.6565
  154SAPE   H5Y17142   5.938   5.755   6.935 -0.6449 -0.9303 -1.1323
  154SAPE   C3617143   5.775   5.678   7.084  0.1292 -0.2747 -0.5021
  154SAPE   H6X17144   5.800   5.570   7.072 -0.4981 -0.4006 -0.7251
  154SAPE   H6Y17145   5.666   5.693   7.070  0.1069  1.1102  0.9057
  154SAPE   C3717146   5.795   5.728   7.222 -1.1640 -0.0409  0.0821
  154SAPE   H7X17147   5.903   5.724   7.246 -0.9159  1.0032 -0.7600
  154SAPE   H7Y17148   5.739   5.662   7.291  1.1173 -0.6422  1.4561
  154SAPE   C3817149   5.757   5.874   7.248  0.0089 -0.1261 -0.1664
  154SAPE   H8X17150   5.651   5.900   7.231  0.0292 -0.4410 -0.7957
  154SAPE   H8Y17151   5.813   5.939   7.176 -1.1264  0.2845 -0.7040
  154SAPE   C3917152   5.799   5.924   7.391  0.0547 -0.3623 -0.0334
  154SAPE   H9X17153   5.790   6.035   7.380 -2.2512 -0.4535  0.5302
  154SAPE   H9Y17154   5.900   5.889   7.421 -0.4066 -2.8512 -1.1984
  154SAPE  C31017155   5.705   5.880   7.499  0.8205  0.3427  0.5436
  154SAPE  H10X17156   5.690   5.774   7.468  0.9106  0.5685 -0.3111
  154SAPE  H10Y17157   5.609   5.935   7.491  0.2006 -0.8872 -0.9599
  154SAPE  C31117158   5.747   5.872   7.644  0.3007 -0.9571  0.1103
  154SAPE  H11X17159   5.744   5.978   7.680  1.1918 -0.6462 -0.6824
  154SAPE  H11Y17160   5.850   5.832   7.655  1.0635  0.6659 -0.7238
  154SAPE  C31217161   5.654   5.787   7.726  0.3435 -0.2456  0.2805
  154SAPE  H12X17162   5.646   5.685   7.682  0.1052 -0.2488  0.3286
  154SAPE  H12Y17163   5.552   5.829   7.717  0.4596 -0.2785 -1.5272
  154SAPE  C31317164   5.690   5.789   7.875  0.3300  0.1944 -0.8147
  154SAPE  H13X17165   5.599   5.781   7.939  2.1145 -1.5462  1.7287
  154SAPE  H13Y17166   5.742   5.884   7.898  0.8964 -0.3266  0.1745
  154SAPE  C31417167   5.769   5.669   7.922 -0.0995  0.2509  0.2117
  154SAPE  H14X17168   5.875   5.674   7.890  0.2791 -0.8010  1.2479
  154SAPE  H14Y17169   5.727   5.580   7.870 -0.1164  0.8648 -0.8609
  154SAPE  C31517170   5.772   5.638   8.071  0.0932  0.4347  0.8265
  154SAPE  H15X17171   5.831   5.545   8.086 -2.5774 -1.4299  0.4687
  154SAPE  H15Y17172   5.671   5.611   8.106 -0.1287 -0.5224 -0.4855
  154SAPE  C31617173   5.821   5.754   8.163 -0.0403 -0.3313 -0.1816
  154SAPE  H16X17174   5.738   5.828   8.162  0.0454 -0.0788  2.6689
  154SAPE  H16Y17175   5.916   5.795   8.123  0.2125 -0.2778  0.4615
  154SAPE  C31717176   5.841   5.719   8.310 -0.7370 -0.2238 -0.2280
  154SAPE  H17X17177   5.899   5.797   8.365  1.7764 -2.3942  0.4258
  154SAPE  H17Y17178   5.894   5.622   8.319 -1.1655 -0.4126  0.3306
  154SAPE  C31817179   5.712   5.711   8.387 -0.0237 -0.0678 -0.7502
  154SAPE  H18X17180   5.646   5.800   8.373  0.3229  0.6278  1.5941
  154SAPE  H18Y17181   5.728   5.712   8.497 -2.3462 -0.1410 -0.3557
  154SAPE  H18Z17182   5.660   5.624   8.341  0.6893 -0.9535  0.0889
  155SAPE     N17183   5.862   1.737   6.495 -0.2253  0.1326 -0.1870
  155SAPE   HN117184   5.857   1.840   6.512 -0.9348  0.2422 -0.9866
  155SAPE   HN217185   5.892   1.719   6.397  0.0820 -0.6822  0.0542
  155SAPE   HN317186   5.763   1.707   6.501 -1.0421  2.2040 -1.8470
  155SAPE   C1217187   5.946   1.682   6.613 -0.3357  0.1512  0.7638
  155SAPE  H12A17188   5.892   1.588   6.639 -0.7648 -0.5916 -2.3743
  155SAPE  H12B17189   5.945   1.759   6.693  1.0134 -0.5885  1.5471
  155SAPE   C1117190   6.082   1.649   6.549  0.1893 -0.0289 -0.3169
  155SAPE  H11A17191   6.145   1.599   6.626 -0.0399 -2.0937 -1.4016
  155SAPE  H11B17192   6.136   1.743   6.525 -1.6151  0.6390 -2.0068
  155SAPE     P17193   6.166   1.458   6.392  0.0616  0.0267  0.4513
  155SAPE   O1317194   6.109   1.332   6.446  0.4937  0.0403 -0.0947
  155SAPE   O1417195   6.176   1.463   6.243 -0.4911  0.4808  0.0863
  155SAPE   O1217196   6.075   1.575   6.432 -0.2762 -0.3298  0.2954
  155SAPE   O1117197   6.310   1.481   6.451 -0.6102 -0.0806  0.5023
  155SAPE    C117198   6.399   1.365   6.443  0.0862  0.0688 -0.5072
  155SAPE    HA17199   6.364   1.282   6.378 -0.1043 -0.2055 -0.0605
  155SAPE    HB17200   6.504   1.397   6.423  0.1771 -0.6701 -1.2837
  155SAPE    C217201   6.418   1.301   6.586  0.1175 -0.7662  0.8143
  155SAPE    HS17202   6.314   1.285   6.624  0.2683 -0.6780  1.2653
  155SAPE   O2117203   6.484   1.400   6.670  0.8140  0.3657 -0.0387
  155SAPE   C2117204   6.411   1.472   6.752 -0.1578 -0.6567  0.4453
  155SAPE   O2217205   6.292   1.446   6.785 -0.0968 -0.6340 -0.1253
  155SAPE   C2217206   6.496   1.581   6.816  0.0591 -0.0538 -0.0563
  155SAPE   H2R17207   6.521   1.645   6.729 -0.5918  1.4437  0.8162
  155SAPE   H2S17208   6.431   1.654   6.869 -2.5890 -0.8434 -2.0388
  155SAPE    C317209   6.496   1.165   6.588  0.0150  0.3725  0.1280
  155SAPE    HX17210   6.597   1.189   6.547 -0.4156  1.1161 -0.5547
  155SAPE    HY17211   6.447   1.094   6.518  1.5276  0.7546 -1.4012
  155SAPE   O3117212   6.501   1.119   6.721 -0.1497 -0.0321  0.1619
  155SAPE   C3117213   6.614   1.139   6.791 -0.0927 -0.2328 -0.8272
  155SAPE   O3217214   6.708   1.213   6.768 -0.4414 -0.2486  0.3158
  155SAPE   C3217215   6.604   1.062   6.927  0.2021  0.4314  0.4673
  155SAPE   H2X17216   6.536   0.974   6.928  0.6192  0.0737 -0.4941
  155SAPE   H2Y17217   6.556   1.131   6.999 -1.5948  0.6796 -0.8973
  155SAPE   C2317218   6.612   1.537   6.903 -0.1642  0.0146  0.0747
  155SAPE   H3R17219   6.687   1.619   6.898 -0.8259  0.6663  0.5943
  155SAPE   H3S17220   6.656   1.450   6.850 -1.4571  0.3287 -1.6266
  155SAPE   C2417221   6.572   1.488   7.042 -0.0769  0.5394  0.3225
  155SAPE   H4R17222   6.500   1.405   7.026 -1.2729  1.8009 -1.2456
  155SAPE   H4S17223   6.530   1.570   7.104  1.1207  1.2112  0.2674
  155SAPE   C2517224   6.692   1.433   7.114  0.0749 -0.3283  0.2126
  155SAPE   H5R17225   6.782   1.431   7.051 -1.0187 -1.5455 -1.3860
  155SAPE   C2617226   6.704   1.382   7.241  0.6976  0.6584 -0.2332
  155SAPE   H6R17227   6.798   1.342   7.282  0.1915  0.3698  0.6575
  155SAPE   C2717228   6.595   1.361   7.348  0.1282  0.3665 -0.7684
  155SAPE   H7R17229   6.581   1.255   7.381 -1.8104  0.9297  0.3936
  155SAPE   H7S17230   6.499   1.400   7.306  0.5631 -0.8474 -3.0209
  155SAPE   C2817231   6.632   1.444   7.467  0.3728  0.1856  0.0840
  155SAPE   H8R17232   6.718   1.512   7.455  1.1670 -1.0413 -1.4568
  155SAPE   C2917233   6.546   1.460   7.576 -0.4493  0.4899  1.1615
  155SAPE   H9R17234   6.580   1.529   7.655  2.5908  1.3434 -0.7275
  155SAPE  C21017235   6.412   1.391   7.587 -0.0459 -0.3250 -0.1575
  155SAPE  H10R17236   6.369   1.367   7.487 -0.0465 -0.3425 -0.1530
  155SAPE  H10S17237   6.339   1.452   7.645  0.3345 -0.3487  0.3503
  155SAPE  C21117238   6.435   1.262   7.662  0.7650  0.3329  0.2598
  155SAPE  H11R17239   6.491   1.269   7.757 -1.2085 -0.1766  1.5122
  155SAPE  C21217240   6.384   1.144   7.634  0.2200 -0.0627  0.2818
  155SAPE  H12R17241   6.389   1.064   7.709 -0.0182  0.3604  0.7571
  155SAPE  C21317242   6.290   1.113   7.529 -0.3440 -0.5377 -0.2803
  155SAPE  H13R17243   6.212   1.191   7.527  0.1525 -0.0435 -1.8594
  155SAPE  H13S17244   6.240   1.018   7.556 -0.5914 -1.2597 -2.9733
  155SAPE  C21417245   6.334   1.087   7.387  0.1721  0.4550  0.2418
  155SAPE  H14R17246   6.441   1.079   7.364 -0.0650  1.0735 -1.2147
  155SAPE  C21517247   6.250   1.089   7.280  0.0371  0.4726 -0.5656
  155SAPE  H15R17248   6.298   1.059   7.186 -0.2932  0.5321 -0.7530
  155SAPE  C21617249   6.099   1.108   7.265 -0.3284  0.4059 -0.9043
  155SAPE  H16R17250   6.060   1.136   7.366 -0.6293 -0.3719 -0.7924
  155SAPE  H16S17251   6.038   1.019   7.236 -0.1533  0.0558 -0.2234
  155SAPE  C21717252   6.064   1.232   7.176  0.4804 -0.1946  0.0181
  155SAPE  H17R17253   6.104   1.319   7.232 -0.2209 -1.2452  2.2871
  155SAPE  H17S17254   5.954   1.233   7.168  0.5528  0.0541 -1.0694
  155SAPE  C21817255   6.111   1.227   7.028 -0.4710  0.4775 -0.1371
  155SAPE  H18R17256   6.218   1.257   7.021 -0.2946 -0.1199 -0.0674
  155SAPE  H18S17257   6.054   1.295   6.961  1.1355 -0.5406 -2.6975
  155SAPE  C21917258   6.089   1.096   6.956 -0.2244 -0.8119 -0.4402
  155SAPE  H19R17259   5.979   1.090   6.939 -0.5758  1.4127  0.7516
  155SAPE  H19S17260   6.136   1.016   7.017  0.7530  1.2865  1.6879
  155SAPE  C22017261   6.160   1.088   6.819 -0.4479  0.2215 -0.3934
  155SAPE  H20R17262   6.268   1.065   6.826 -0.3005  0.7601 -0.8111
  155SAPE  H20S17263   6.160   1.181   6.759 -1.9030  1.1574  0.9591
  155SAPE  H20T17264   6.114   1.002   6.765  0.5195 -0.6470  0.1314
  155SAPE   C3317265   6.738   1.027   6.974  0.2034  0.3102 -0.2811
  155SAPE   H3X17266   6.813   1.097   6.932  0.8049 -0.9493 -1.4054
  155SAPE   H3Y17267   6.774   0.932   6.928 -0.1458  0.6427 -1.2743
  155SAPE   C3417268   6.743   1.017   7.129 -0.0699  0.1522 -0.0643
  155SAPE   H4X17269   6.669   0.942   7.163 -0.6350  0.9719  0.5467
  155SAPE   H4Y17270   6.710   1.114   7.173  1.0348  0.6890 -0.3815
  155SAPE   C3517271   6.883   1.005   7.185  0.0247 -0.5387  0.0196
  155SAPE   H5X17272   6.944   1.099   7.187  0.3350 -0.5774 -2.9183
  155SAPE   H5Y17273   6.933   0.925   7.127 -0.6812 -1.1492  0.2465
  155SAPE   C3617274   6.883   0.968   7.333  0.4202 -0.4421 -0.1848
  155SAPE   H6X17275   6.824   0.873   7.329 -1.1691  0.5609 -2.5203
  155SAPE   H6Y17276   6.818   1.042   7.385  1.7025  0.5487  0.0695
  155SAPE   C3717277   7.024   0.962   7.406  0.0750  0.6413  0.0730
  155SAPE   H7X17278   7.083   1.056   7.401  1.7641 -0.2455  1.9189
  155SAPE   H7Y17279   7.087   0.884   7.359  0.6189  1.1989 -0.1376
  155SAPE   C3817280   7.014   0.905   7.545 -0.0206  0.4063  0.4135
  155SAPE   H8X17281   7.115   0.873   7.577  0.5587  1.3138 -0.4516
  155SAPE   H8Y17282   6.948   0.817   7.529 -1.7917  1.9491 -1.5847
  155SAPE   C3917283   6.936   0.986   7.646  0.0338 -0.4174  0.2313
  155SAPE   H9X17284   6.926   0.933   7.743 -1.0431 -0.4162  0.1278
  155SAPE   H9Y17285   6.836   1.008   7.602  1.0410  3.9236 -0.3715
  155SAPE  C31017286   6.988   1.130   7.669 -0.3594 -0.8231 -0.4978
  155SAPE  H10X17287   6.974   1.205   7.588 -0.3282 -0.4419 -0.1587
  155SAPE  H10Y17288   7.097   1.133   7.693 -0.7887 -0.7771  1.7185
  155SAPE  C31117289   6.914   1.189   7.794 -0.0165  0.2482 -0.1007
  155SAPE  H11X17290   6.910   1.109   7.871 -3.8021  0.6154  0.3020
  155SAPE  H11Y17291   6.805   1.206   7.775 -0.1898 -0.5503  0.1585
  155SAPE  C31217292   6.979   1.310   7.860 -0.2127 -0.1762  0.4807
  155SAPE  H12X17293   6.967   1.393   7.787  0.5332  0.1897  0.7748
  155SAPE  H12Y17294   7.089   1.301   7.873 -0.1464 -0.5232 -0.2812
  155SAPE  C31317295   6.905   1.358   7.983  0.3963 -0.3001  0.3096
  155SAPE  H13X17296   6.871   1.284   8.059 -3.4368 -0.2639 -1.1917
  155SAPE  H13Y17297   6.808   1.396   7.946  0.6184 -0.0250  0.0075
  155SAPE  C31417298   6.970   1.469   8.079 -1.7071  0.0187  0.5134
  155SAPE  H14X17299   6.947   1.571   8.040 -0.6936  0.5175  1.1855
  155SAPE  H14Y17300   7.080   1.456   8.077 -1.6332  0.6138  0.2086
  155SAPE  C31517301   6.929   1.459   8.230 -0.0403  0.0910 -0.1940
  155SAPE  H15X17302   6.957   1.357   8.264 -0.6277 -0.2300 -0.6600
  155SAPE  H15Y17303   6.822   1.487   8.234 -0.0522 -0.0936  1.2099
  155SAPE  C31617304   6.998   1.569   8.317 -0.5658  0.1320 -0.2140
  155SAPE  H16X17305   6.959   1.663   8.273 -3.3622  0.3247  2.3836
  155SAPE  H16Y17306   7.108   1.560   8.301 -0.9830 -1.2906 -2.9350
  155SAPE  C31717307   6.966   1.551   8.464 -0.0203 -0.8468  0.5395
  155SAPE  H17X17308   6.985   1.447   8.500 -1.2646 -0.9526  0.9343
  155SAPE  H17Y17309   6.856   1.561   8.473  0.0090 -1.5950  2.1696
  155SAPE  C31817310   7.027   1.655   8.556 -0.1471 -0.2042  0.1042
  155SAPE  H18X17311   6.998   1.635   8.661 -0.7359 -0.0917 -0.0358
  155SAPE  H18Y17312   7.000   1.756   8.518 -0.3864 -0.5478 -0.6490
  155SAPE  H18Z17313   7.138   1.652   8.548 -0.0646  0.8584  0.6341
  156SAPE     N17314   3.121   2.561   6.215 -0.2374 -0.3168  0.4832
  156SAPE   HN117315   3.092   2.606   6.126  2.8882 -0.0464 -0.5133
  156SAPE   HN217316   3.222   2.541   6.198 -0.7609 -3.9687  0.9287
  156SAPE   HN317317   3.055   2.482   6.228 -2.1943  1.3832  1.6021
  156SAPE   C1217318   3.109   2.649   6.335  0.4633 -0.5051  0.1908
  156SAPE  H12A17319   2.999   2.655   6.351  0.3114  0.8236 -1.1181
  156SAPE  H12B17320   3.139   2.754   6.311 -1.4388  0.5240  1.9787
  156SAPE   C1117321   3.183   2.583   6.457 -0.4011 -0.3798  0.3308
  156SAPE  H11A17322   3.116   2.501   6.489 -1.1002  0.5391  1.3000
  156SAPE  H11B17323   3.193   2.650   6.545 -1.3962 -0.8439  0.8122
  156SAPE     P17324   3.360   2.388   6.486  0.3687  0.4080 -0.5636
  156SAPE   O1317325   3.257   2.307   6.553 -0.2282 -0.1646 -0.2337
  156SAPE   O1417326   3.450   2.322   6.392 -0.0724 -0.2406  0.3232
  156SAPE   O1217327   3.303   2.520   6.419 -0.0264 -0.0421  0.4650
  156SAPE   O1117328   3.453   2.454   6.591  0.4056 -0.3092 -0.2360
  156SAPE    C117329   3.588   2.414   6.615  0.0123  0.3024 -0.4843
  156SAPE    HA17330   3.642   2.388   6.521 -0.0016 -2.4023  0.1841
  156SAPE    HB17331   3.642   2.502   6.654  0.4139  1.4965 -3.4834
  156SAPE    C217332   3.594   2.304   6.721 -0.8457  0.1976 -0.2346
  156SAPE    HS17333   3.533   2.214   6.698 -0.8646  0.3114 -0.6385
  156SAPE   O2117334   3.550   2.360   6.849 -0.7140 -0.0414 -0.2956
  156SAPE   C2117335   3.474   2.286   6.926  0.1058 -0.6006  0.5580
  156SAPE   O2217336   3.423   2.183   6.899  0.4815  0.2412 -1.1994
  156SAPE   C2217337   3.461   2.364   7.066 -0.3849  0.6487  0.4801
  156SAPE   H2R17338   3.564   2.390   7.098  0.0342  0.3529 -0.5676
  156SAPE   H2S17339   3.399   2.455   7.049 -2.0905 -0.6043 -0.2893
  156SAPE    C317340   3.737   2.255   6.735  0.4290 -0.2527 -0.8803
  156SAPE    HX17341   3.801   2.332   6.782 -0.6561  1.1909 -1.6996
  156SAPE    HY17342   3.774   2.239   6.631 -2.1036 -2.1370 -1.5989
  156SAPE   O3117343   3.757   2.136   6.811  0.4521 -0.3506  0.1970
  156SAPE   C3117344   3.798   2.143   6.937 -0.0147 -0.2207 -0.0397
  156SAPE   O3217345   3.829   2.249   6.992 -0.5498 -0.5736  0.4442
  156SAPE   C3217346   3.776   2.011   6.998  0.0808 -0.3329 -0.4360
  156SAPE   H2X17347   3.848   1.941   6.951  1.2167  0.4870  0.0374
  156SAPE   H2Y17348   3.678   1.965   6.972  2.1364 -4.3116 -1.8939
  156SAPE   C2317349   3.398   2.264   7.173 -0.2451  0.0765  0.6577
  156SAPE   H3R17350   3.444   2.167   7.147  2.8020  1.4267  0.6070
  156SAPE   H3S17351   3.290   2.259   7.147  0.0509  0.0857 -0.6572
  156SAPE   C2417352   3.451   2.291   7.309  0.4541  0.4056  0.3744
  156SAPE   H4R17353   3.443   2.401   7.323 -0.7468  0.7996 -2.6234
  156SAPE   H4S17354   3.559   2.262   7.309  0.4110  0.1708 -1.2375
  156SAPE   C2517355   3.379   2.209   7.414  0.6135  0.3490  0.3086
  156SAPE   H5R17356   3.279   2.173   7.384  1.5986 -2.1998 -0.1384
  156SAPE   C2617357   3.431   2.177   7.536  0.6698 -0.5391 -0.2843
  156SAPE   H6R17358   3.378   2.109   7.605 -0.2761 -0.2714 -0.7342
  156SAPE   C2717359   3.562   2.222   7.585  0.4932 -0.4884 -0.3436
  156SAPE   H7R17360   3.624   2.269   7.505  0.7997 -0.4310 -0.0719
  156SAPE   H7S17361   3.614   2.131   7.620  0.3245 -0.6127 -0.4137
  156SAPE   C2817362   3.554   2.326   7.693  0.5635  0.5975  0.4152
  156SAPE   H8R17363   3.592   2.421   7.653  0.0674  1.3199  1.6132
  156SAPE   C2917364   3.537   2.305   7.820  0.3091  0.2442  0.0709
  156SAPE   H9R17365   3.525   2.397   7.879 -1.7117  2.3418 -3.2610
  156SAPE  C21017366   3.501   2.168   7.882 -0.5413 -0.1723 -0.4263
  156SAPE  H10R17367   3.484   2.092   7.804 -0.7765 -0.2343 -0.3154
  156SAPE  H10S17368   3.409   2.174   7.944  2.0148  1.0015  3.6422
  156SAPE  C21117369   3.604   2.105   7.985  0.6322 -0.4981  0.4137
  156SAPE  H11R17370   3.635   2.004   7.955  1.0841 -0.8965  2.1074
  156SAPE  C21217371   3.648   2.161   8.102 -0.3953  0.3467 -0.2787
  156SAPE  H12R17372   3.729   2.111   8.157 -1.1755  1.3061  1.8620
  156SAPE  C21317373   3.597   2.295   8.147  0.7257 -0.6929 -0.5557
  156SAPE  H13R17374   3.488   2.307   8.128  0.2375 -0.7836  1.8315
  156SAPE  H13S17375   3.646   2.376   8.089  1.7966 -0.5136  0.5604
  156SAPE  C21417376   3.623   2.309   8.296 -0.0325  0.4628  0.3241
  156SAPE  H14R17377   3.581   2.235   8.366  1.7918  0.6032  1.6479
  156SAPE  C21517378   3.715   2.393   8.345  0.4802 -0.8499 -0.1074
  156SAPE  H15R17379   3.728   2.396   8.455 -0.0284 -2.1523  0.0120
  156SAPE  C21617380   3.803   2.486   8.274 -1.0004  0.8507  0.8191
  156SAPE  H16R17381   3.777   2.591   8.300  1.4904  2.0134 -0.9629
  156SAPE  H16S17382   3.801   2.470   8.164  0.5612 -1.3834  1.0483
  156SAPE  C21717383   3.957   2.463   8.313  0.9218 -0.2457 -0.3047
  156SAPE  H17R17384   3.998   2.364   8.284 -0.0281 -1.1412  1.2574
  156SAPE  H17S17385   3.957   2.483   8.422 -0.4847  1.7595 -0.5994
  156SAPE  C21817386   4.041   2.573   8.253 -0.0114 -0.1834  0.2773
  156SAPE  H18R17387   3.986   2.669   8.267  2.4515  1.5531 -1.2192
  156SAPE  H18S17388   4.043   2.546   8.145  0.7062 -0.7364  0.4230
  156SAPE  C21917389   4.184   2.589   8.311  0.0765 -0.1433  0.6113
  156SAPE  H19R17390   4.176   2.577   8.421  0.6533 -1.3519  0.5457
  156SAPE  H19S17391   4.225   2.691   8.299  2.0024 -0.9874 -0.4194
  156SAPE  C22017392   4.278   2.479   8.261  0.0449  0.5576  0.0741
  156SAPE  H20R17393   4.376   2.503   8.306  0.3428  2.7276 -1.5471
  156SAPE  H20S17394   4.284   2.493   8.151 -0.8815 -1.6042 -0.3025
  156SAPE  H20T17395   4.239   2.378   8.285  0.7444  0.3990  0.5553
  156SAPE   C3317396   3.806   2.011   7.151 -0.0291 -0.8701  0.0715
  156SAPE   H3X17397   3.714   2.030   7.209  0.1668 -0.8160  0.3637
  156SAPE   H3Y17398   3.884   2.089   7.162 -0.8909  0.2285 -1.2902
  156SAPE   C3417399   3.866   1.886   7.206  0.7305 -0.2532 -0.1219
  156SAPE   H4X17400   3.953   1.854   7.144  0.4731  1.1480 -1.2762
  156SAPE   H4Y17401   3.787   1.813   7.181 -0.1088  0.3872  0.6057
  156SAPE   C3517402   3.910   1.881   7.354  0.1965  0.3494  0.5328
  156SAPE   H5X17403   4.002   1.943   7.360  2.3378 -2.5868 -0.1052
  156SAPE   H5Y17404   3.949   1.778   7.366  1.0487 -0.3739 -5.4352
  156SAPE   C3617405   3.808   1.937   7.458 -0.3260  0.2403  0.3110
  156SAPE   H6X17406   3.724   1.864   7.455 -0.4348  0.2238  2.3052
  156SAPE   H6Y17407   3.762   2.035   7.434 -0.3550  0.4333  1.1297
  156SAPE   C3717408   3.865   1.933   7.600  0.3695  0.4369  0.5142
  156SAPE   H7X17409   3.812   2.005   7.667  1.0025  1.5088 -0.1159
  156SAPE   H7Y17410   3.966   1.977   7.592  1.5650 -1.9274  1.5781
  156SAPE   C3817411   3.883   1.788   7.655 -0.2057 -0.8209  0.5113
  156SAPE   H8X17412   3.970   1.740   7.606 -1.4308 -2.7309  0.1030
  156SAPE   H8Y17413   3.792   1.732   7.625  1.0782 -2.5100 -0.4378
  156SAPE   C3917414   3.915   1.774   7.802 -0.2168 -0.2293  0.7873
  156SAPE   H9X17415   3.852   1.853   7.850 -2.2121 -2.1488  1.5149
  156SAPE   H9Y17416   4.019   1.807   7.820 -0.6405  3.1130 -1.9511
  156SAPE  C31017417   3.894   1.632   7.857  0.4286 -0.0822  0.1012
  156SAPE  H10X17418   3.960   1.559   7.805 -0.3956 -1.2332  0.6289
  156SAPE  H10Y17419   3.793   1.590   7.837  2.6646 -5.2527 -2.3303
  156SAPE  C31117420   3.889   1.637   8.010  0.6038 -0.6006 -0.0104
  156SAPE  H11X17421   3.812   1.710   8.043  0.5396  1.5907 -4.2709
  156SAPE  H11Y17422   3.982   1.691   8.040 -0.7924  1.3925  0.9081
  156SAPE  C31217423   3.864   1.500   8.080 -0.3112 -0.4537  0.6550
  156SAPE  H12X17424   3.934   1.428   8.031  0.5308  1.2919 -0.8416
  156SAPE  H12Y17425   3.759   1.466   8.068 -0.0647 -0.6987 -1.2062
  156SAPE  C31317426   3.877   1.513   8.232  0.6769 -0.7647  0.7400
  156SAPE  H13X17427   3.791   1.566   8.279  0.1218 -0.7955 -0.2228
  156SAPE  H13Y17428   3.961   1.584   8.249  0.1740  0.0416 -0.0418
  156SAPE  C31417429   3.903   1.388   8.308 -0.8387  0.0976 -0.7883
  156SAPE  H14X17430   4.010   1.376   8.337 -1.0900  1.6839  1.0000
  156SAPE  H14Y17431   3.878   1.301   8.243  2.4494 -1.0961 -0.6395
  156SAPE  C31517432   3.825   1.366   8.442  0.6721 -0.1422 -0.1450
  156SAPE  H15X17433   3.714   1.368   8.442  0.6691 -0.2458 -0.2406
  156SAPE  H15Y17434   3.846   1.448   8.513 -1.2362 -0.8497  1.3145
  156SAPE  C31617435   3.880   1.244   8.522  0.9054 -0.2908  0.2098
  156SAPE  H16X17436   3.989   1.239   8.504  1.0319 -1.7153  1.2194
  156SAPE  H16Y17437   3.842   1.151   8.474 -2.5037  1.0459  0.0471
  156SAPE  C31717438   3.871   1.252   8.675 -1.0515  0.5488 -0.1987
  156SAPE  H17X17439   3.774   1.214   8.712 -0.5788 -0.1635  0.3273
  156SAPE  H17Y17440   3.873   1.360   8.703 -1.1195  0.2927  0.8010
  156SAPE  C31817441   3.982   1.175   8.744  0.0536  0.0319 -0.0966
  156SAPE  H18X17442   3.974   1.068   8.714  0.4926 -0.3963  1.2361
  156SAPE  H18Y17443   3.981   1.173   8.855  0.5140 -1.6941 -0.0909
  156SAPE  H18Z17444   4.078   1.223   8.717  0.5862  1.5673  3.7795
  157SAPE     N17445   0.610   2.646   6.017  0.3967 -0.9231 -0.0958
  157SAPE   HN117446   0.557   2.559   6.038  0.8345 -0.9295  1.0667
  157SAPE   HN217447   0.587   2.714   6.093 -1.9302 -2.9150  1.1284
  157SAPE   HN317448   0.565   2.679   5.930 -2.7158  1.6912  2.2322
  157SAPE   C1217449   0.753   2.613   6.008 -0.3493 -0.0136 -0.5821
  157SAPE  H12A17450   0.780   2.540   5.929  0.5767  1.0443 -1.2659
  157SAPE  H12B17451   0.776   2.577   6.111 -2.0081  0.1102 -0.1312
  157SAPE   C1117452   0.827   2.736   5.963  0.0306 -0.2492  0.1728
  157SAPE  H11A17453   0.799   2.769   5.861  2.0810  1.4214  0.0918
  157SAPE  H11B17454   0.933   2.704   5.963 -0.1264 -0.7703  0.1200
  157SAPE     P17455   0.887   2.887   6.178  0.0223 -0.5259  0.1289
  157SAPE   O1317456   1.030   2.908   6.136  0.6499 -0.2155 -0.2188
  157SAPE   O1417457   0.826   3.004   6.241  0.9682 -0.1133 -0.4473
  157SAPE   O1217458   0.802   2.846   6.051  0.4861 -0.3665 -0.1095
  157SAPE   O1117459   0.880   2.761   6.271  0.1296  0.0865  0.0650
  157SAPE    C117460   0.774   2.733   6.360  0.0140 -0.0490 -0.7347
  157SAPE    HA17461   0.696   2.810   6.341  1.3910  1.4125 -0.7158
  157SAPE    HB17462   0.736   2.634   6.328 -2.1129  1.2187 -2.4158
  157SAPE    C217463   0.804   2.753   6.508  0.1573 -0.8764 -0.4459
  157SAPE    HS17464   0.728   2.704   6.571  0.2668 -1.9128 -1.1025
  157SAPE   O2117465   0.808   2.894   6.537  0.2529 -0.0028  0.0008
  157SAPE   C2117466   0.690   2.949   6.547  0.3843 -0.0116  0.0802
  157SAPE   O2217467   0.583   2.881   6.549 -0.0787 -0.0589 -0.1987
  157SAPE   C2217468   0.696   3.107   6.558 -0.0647  0.1352 -0.0201
  157SAPE   H2R17469   0.799   3.149   6.565  0.2877 -0.7231  0.0224
  157SAPE   H2S17470   0.652   3.154   6.467 -0.3259  0.1165  0.0962
  157SAPE    C317471   0.945   2.701   6.538 -0.5513 -0.0873 -0.8211
  157SAPE    HX17472   1.024   2.741   6.470  1.3289 -0.3891  1.0783
  157SAPE    HY17473   0.942   2.593   6.515 -2.4001  0.2550 -2.5102
  157SAPE   O3117474   0.981   2.731   6.679  0.2460  0.0519  0.1227
  157SAPE   C3117475   1.097   2.672   6.722  1.3049 -0.0687  0.0183
  157SAPE   O3217476   1.168   2.603   6.652 -0.5037 -0.8461 -0.0608
  157SAPE   C3217477   1.113   2.717   6.862 -0.0450  0.4357  0.3953
  157SAPE   H2X17478   1.077   2.648   6.941 -2.2887  1.8708  0.7079
  157SAPE   H2Y17479   1.048   2.803   6.886  1.5430  1.6860  0.4429
  157SAPE   C2317480   0.622   3.161   6.693 -0.4510 -0.4312 -0.2232
  157SAPE   H3R17481   0.532   3.096   6.703 -0.6572  0.1196  2.1877
  157SAPE   H3S17482   0.588   3.266   6.683  1.8380  0.5774  1.7215
  157SAPE   C2417483   0.720   3.142   6.815 -0.1143  0.8790  0.6375
  157SAPE   H4R17484   0.774   3.047   6.797  1.1146  1.6152  0.3117
  157SAPE   H4S17485   0.686   3.119   6.919  3.5618 -3.6778  1.1485
  157SAPE   C2517486   0.823   3.247   6.823  0.0506  0.5138 -0.2505
  157SAPE   H5R17487   0.885   3.261   6.733 -1.1247  0.6972 -1.0524
  157SAPE   C2617488   0.840   3.335   6.926  0.1678 -0.6715  0.4954
  157SAPE   H6R17489   0.929   3.400   6.930  0.4352 -0.9393 -0.8315
  157SAPE   C2717490   0.747   3.347   7.046  0.0002  0.2289  0.0695
  157SAPE   H7R17491   0.727   3.246   7.087 -0.5444 -0.7654 -2.4439
  157SAPE   H7S17492   0.655   3.397   7.008 -0.3273 -0.2647  0.2160
  157SAPE   C2817493   0.789   3.454   7.149 -0.7870 -0.2336  0.0923
  157SAPE   H8R17494   0.802   3.551   7.100 -1.7724 -0.5339 -0.7919
  157SAPE   C2917495   0.795   3.447   7.283  0.1155  0.4027  0.5729
  157SAPE   H9R17496   0.841   3.526   7.344 -1.1287  0.5326  1.3652
  157SAPE  C21017497   0.765   3.332   7.371  0.5283  0.0271  0.4235
  157SAPE  H10R17498   0.710   3.253   7.316  0.8760 -0.9881  1.5072
  157SAPE  H10S17499   0.692   3.357   7.452  1.1846 -1.0391  1.3706
  157SAPE  C21117500   0.897   3.287   7.425 -0.4142  0.3664  0.2468
  157SAPE  H11R17501   0.960   3.239   7.349 -0.0401 -1.2029  1.4917
  157SAPE  C21217502   0.938   3.301   7.553 -0.4147  0.2923  0.0867
  157SAPE  H12R17503   1.030   3.244   7.574  0.1725  0.5951 -1.5250
  157SAPE  C21317504   0.871   3.366   7.671  0.4604  0.3620 -0.0760
  157SAPE  H13R17505   0.848   3.292   7.751 -0.4564 -0.8620 -1.4168
  157SAPE  H13S17506   0.769   3.389   7.636  1.0193 -0.2260 -2.2788
  157SAPE  C21417507   0.949   3.475   7.730 -0.4049 -0.0612  0.1075
  157SAPE  H14R17508   1.004   3.538   7.660 -1.1153 -0.3009 -0.6944
  157SAPE  C21517509   0.970   3.513   7.860 -0.5065 -0.6795  0.2522
  157SAPE  H15R17510   1.032   3.603   7.871 -2.1802  0.7572 -1.2612
  157SAPE  C21617511   0.923   3.463   7.988 -0.7638  0.2878 -0.9831
  157SAPE  H16R17512   0.887   3.358   7.981  0.2145 -0.2142  0.6824
  157SAPE  H16S17513   0.848   3.525   8.042  0.2498  2.0347 -1.4901
  157SAPE  C21717514   1.048   3.452   8.084 -0.4628 -0.5742  0.4970
  157SAPE  H17R17515   1.132   3.402   8.031  1.4484  2.7531  0.1302
  157SAPE  H17S17516   1.010   3.385   8.165 -1.4204  0.0861  0.6028
  157SAPE  C21817517   1.096   3.582   8.158 -0.1965 -0.0493  0.2552
  157SAPE  H18R17518   1.015   3.638   8.209  1.0212  0.3279  1.8449
  157SAPE  H18S17519   1.148   3.647   8.084 -0.9458 -0.8939 -1.0614
  157SAPE  C21917520   1.198   3.539   8.260 -0.3756 -0.0632 -0.0487
  157SAPE  H19R17521   1.280   3.478   8.215 -1.1149 -0.9307 -0.2408
  157SAPE  H19S17522   1.151   3.466   8.329  1.1312 -0.7243  0.3344
  157SAPE  C22017523   1.256   3.658   8.345 -0.3142  0.7339  0.1324
  157SAPE  H20R17524   1.321   3.623   8.427 -1.3650  2.1566  1.6348
  157SAPE  H20S17525   1.171   3.702   8.402 -1.4062  0.8535 -1.5081
  157SAPE  H20T17526   1.297   3.744   8.288 -1.5033  1.1730 -0.0821
  157SAPE   C3317527   1.256   2.758   6.891 -0.3692 -0.8200 -0.2382
  157SAPE   H3X17528   1.284   2.831   6.812  0.6886 -0.8690  0.0890
  157SAPE   H3Y17529   1.337   2.683   6.901 -0.0923 -0.4121  0.5834
  157SAPE   C3417530   1.264   2.841   7.026 -0.3882 -0.8017  0.0967
  157SAPE   H4X17531   1.201   2.930   7.002  0.9083  0.5968  1.5873
  157SAPE   H4Y17532   1.365   2.887   7.027 -0.4886 -0.5723 -0.2331
  157SAPE   C3517533   1.225   2.768   7.157 -0.9316  0.2920 -0.1885
  157SAPE   H5X17534   1.274   2.668   7.160 -2.9076 -0.7338 -0.4608
  157SAPE   H5Y17535   1.116   2.750   7.171 -0.8443 -0.4315 -0.3863
  157SAPE   C3617536   1.265   2.851   7.283  0.0734  0.4049  0.7557
  157SAPE   H6X17537   1.214   2.949   7.271 -0.7723 -0.1689 -0.5231
  157SAPE   H6Y17538   1.376   2.857   7.291  0.0751  0.1279  0.9814
  157SAPE   C3717539   1.223   2.780   7.412  1.1511  0.1009 -0.2236
  157SAPE   H7X17540   1.262   2.677   7.425 -0.7185 -0.6997 -0.6448
  157SAPE   H7Y17541   1.113   2.786   7.402  1.0251  0.4099  1.2127
  157SAPE   C3817542   1.259   2.867   7.532 -0.5620 -0.4408 -0.4424
  157SAPE   H8X17543   1.198   2.960   7.534 -1.2416 -0.7350 -3.2151
  157SAPE   H8Y17544   1.362   2.907   7.539 -0.0982 -1.8233  1.9118
  157SAPE   C3917545   1.265   2.782   7.659 -0.2955 -0.4661  0.7677
  157SAPE   H9X17546   1.350   2.710   7.655  1.0930  1.0948  1.0370
  157SAPE   H9Y17547   1.170   2.724   7.665  0.2613 -1.5332 -0.2787
  157SAPE  C31017548   1.278   2.872   7.775  0.4395 -0.7945  0.2645
  157SAPE  H10X17549   1.220   2.967   7.774  2.7386  0.7155 -2.0820
  157SAPE  H10Y17550   1.385   2.901   7.786 -0.2904  2.0907  0.5538
  157SAPE  C31117551   1.240   2.795   7.900  0.3471  0.4432  0.4576
  157SAPE  H11X17552   1.270   2.688   7.903  0.8568  0.6152  2.1055
  157SAPE  H11Y17553   1.129   2.797   7.902  0.2459 -0.8664 -1.1218
  157SAPE  C31217554   1.285   2.857   8.034  0.0815 -0.7405  0.0310
  157SAPE  H12X17555   1.274   2.967   8.040  0.5460 -0.7388  1.0510
  157SAPE  H12Y17556   1.396   2.844   8.038  0.1405 -0.9896 -1.6225
  157SAPE  C31317557   1.222   2.784   8.151 -0.1005  1.0156  0.0583
  157SAPE  H13X17558   1.260   2.680   8.161  2.0105  1.7135 -0.2811
  157SAPE  H13Y17559   1.114   2.779   8.125 -0.4737 -3.7202  1.5421
  157SAPE  C31417560   1.236   2.861   8.283  0.3229  0.1142 -0.1593
  157SAPE  H14X17561   1.180   2.798   8.356  1.5140 -0.1674  0.5322
  157SAPE  H14Y17562   1.182   2.958   8.278  0.6912  0.6372  3.3844
  157SAPE  C31517563   1.371   2.891   8.341 -0.6144  0.1547  0.4272
  157SAPE  H15X17564   1.358   2.945   8.437 -2.0009  1.3400 -0.3837
  157SAPE  H15Y17565   1.416   2.968   8.275 -0.2075 -0.4859 -0.0546
  157SAPE  C31617566   1.468   2.781   8.350 -0.0942  0.0656 -0.1425
  157SAPE  H16X17567   1.487   2.757   8.243  0.7612  2.2443 -0.5401
  157SAPE  H16Y17568   1.443   2.684   8.398  1.5379 -1.3142 -1.9030
  157SAPE  C31717569   1.598   2.834   8.413  0.0028  0.3965 -0.1764
  157SAPE  H17X17570   1.583   2.849   8.522  0.8857  1.3470 -0.1736
  157SAPE  H17Y17571   1.630   2.932   8.372  1.3141  0.4921  1.0109
  157SAPE  C31817572   1.706   2.729   8.393 -0.4103 -0.1280 -0.3425
  157SAPE  H18X17573   1.748   2.700   8.294 -0.1137  1.3583 -0.6877
  157SAPE  H18Y17574   1.683   2.632   8.441 -1.1469  0.0573 -0.3027
  157SAPE  H18Z17575   1.795   2.773   8.442  1.5141 -1.6160 -2.3369
  158SAPE     N17576   3.350   1.347   6.267 -0.0801 -0.0836 -0.7637
  158SAPE   HN117577   3.299   1.289   6.337 -1.5773  3.1561  1.0834
  158SAPE   HN217578   3.297   1.337   6.178 -2.1914 -0.9650  0.5053
  158SAPE   HN317579   3.451   1.334   6.249  0.6010  0.4104  2.1869
  158SAPE   C1217580   3.333   1.489   6.323  1.0350  0.0323 -0.8314
  158SAPE  H12A17581   3.377   1.555   6.245  1.3005  1.2779  0.3295
  158SAPE  H12B17582   3.393   1.501   6.416 -0.2071  0.7808 -0.0951
  158SAPE   C1117583   3.188   1.538   6.350 -0.2620 -0.7142  0.4172
  158SAPE  H11A17584   3.133   1.543   6.254 -1.2200 -0.5337  0.9613
  158SAPE  H11B17585   3.184   1.641   6.392 -0.3878 -0.5667  0.0405
  158SAPE     P17586   2.977   1.438   6.453  0.7598  0.1561 -0.1081
  158SAPE   O1317587   2.921   1.439   6.316  0.4477 -0.4006  0.0548
  158SAPE   O1417588   2.929   1.335   6.542  0.0932  0.7033  0.3078
  158SAPE   O1217589   3.130   1.446   6.437  0.3505 -0.2381  0.1697
  158SAPE   O1117590   2.943   1.578   6.505 -0.6781 -0.6020  0.1235
  158SAPE    C117591   2.930   1.605   6.643 -0.2337 -0.8797  0.4711
  158SAPE    HA17592   2.893   1.709   6.657 -2.9722 -1.6326 -0.4224
  158SAPE    HB17593   2.844   1.545   6.682 -0.8319 -0.7776 -0.6474
  158SAPE    C217594   3.058   1.597   6.729 -0.0578  0.4777  0.0729
  158SAPE    HS17595   3.124   1.522   6.681  1.1987  1.2458  0.5200
  158SAPE   O2117596   3.019   1.549   6.863 -0.3140  0.5805 -0.1254
  158SAPE   C2117597   3.114   1.491   6.935  0.2927 -0.2632 -0.7296
  158SAPE   O2217598   3.226   1.455   6.897 -0.0194  0.6273  0.0625
  158SAPE   C2217599   3.047   1.458   7.076 -0.2658  0.2192 -0.2441
  158SAPE   H2R17600   3.063   1.544   7.145  1.5634 -0.6004  0.4295
  158SAPE   H2S17601   2.940   1.440   7.054  0.1229 -1.0477 -1.2639
  158SAPE    C317602   3.145   1.721   6.738  0.2228 -0.0141  0.3612
  158SAPE    HX17603   3.184   1.742   6.636  1.4260  1.2436  1.0505
  158SAPE    HY17604   3.226   1.691   6.808 -1.6089  1.0828  3.0860
  158SAPE   O3117605   3.071   1.836   6.792 -0.5441 -0.1088  0.3454
  158SAPE   C3117606   3.081   1.878   6.914  0.6437  0.3204 -0.2727
  158SAPE   O3217607   3.139   1.822   7.006 -0.2374 -0.8507 -0.1669
  158SAPE   C3217608   2.996   2.001   6.935  0.0573 -1.4487 -0.4664
  158SAPE   H2X17609   2.896   1.973   6.895  0.1233 -0.4103 -1.4078
  158SAPE   H2Y17610   3.047   2.077   6.872  2.1484 -0.7545  1.9376
  158SAPE   C2317611   3.105   1.335   7.141 -0.5893  0.2691  0.0928
  158SAPE   H3R17612   3.215   1.346   7.154 -0.5624 -1.0396  1.1822
  158SAPE   H3S17613   3.091   1.246   7.076 -1.5841  0.5857 -0.1453
  158SAPE   C2417614   3.040   1.305   7.273  0.4372  0.2079  0.0568
  158SAPE   H4R17615   2.935   1.286   7.244  0.3301  2.0347 -0.8521
  158SAPE   H4S17616   3.051   1.388   7.347  1.6007  0.8897 -0.8416
  158SAPE   C2517617   3.093   1.170   7.322  0.1250 -0.3886  0.1572
  158SAPE   H5R17618   3.144   1.106   7.248  0.4680  0.0344  0.0203
  158SAPE   C2617619   3.078   1.116   7.445  0.0640  1.1613  0.1464
  158SAPE   H6R17620   3.127   1.020   7.465 -0.4321 -0.1675 -4.1845
  158SAPE   C2717621   2.996   1.176   7.558 -0.3997 -0.5656  0.0076
  158SAPE   H7R17622   2.991   1.099   7.638 -0.1127 -0.7466 -0.1468
  158SAPE   H7S17623   2.889   1.197   7.539  0.0497  2.3335  0.1085
  158SAPE   C2817624   3.055   1.304   7.617  0.4914  0.3160 -0.1001
  158SAPE   H8R17625   3.148   1.335   7.567  1.1743  1.4859  1.7798
  158SAPE   C2917626   3.022   1.352   7.743 -0.3955 -0.3326 -0.0408
  158SAPE   H9R17627   3.070   1.445   7.776 -1.8164  0.6100 -0.5305
  158SAPE  C21017628   2.916   1.289   7.833  0.8208  0.0726 -0.4170
  158SAPE  H10R17629   2.839   1.239   7.770 -0.3236 -1.0636  1.7680
  158SAPE  H10S17630   2.867   1.371   7.891 -0.3691 -1.0431  0.2169
  158SAPE  C21117631   2.992   1.187   7.921 -0.4803  0.4830  0.2327
  158SAPE  H11R17632   3.065   1.129   7.863 -0.5419  1.1417 -0.5350
  158SAPE  C21217633   2.992   1.174   8.060 -0.1867  0.1610 -0.2894
  158SAPE  H12R17634   3.073   1.115   8.105 -1.5546  1.3539  4.2718
  158SAPE  C21317635   2.913   1.259   8.155 -0.2925 -0.4436 -0.5518
  158SAPE  H13R17636   2.892   1.195   8.243 -0.5803 -1.9134 -1.6568
  158SAPE  H13S17637   2.816   1.279   8.104  0.2187 -0.4491 -1.5492
  158SAPE  C21417638   2.984   1.388   8.186 -0.2442 -0.3587  0.0327
  158SAPE  H14R17639   2.933   1.478   8.149 -0.5125 -0.5633 -0.0918
  158SAPE  C21517640   3.092   1.406   8.262 -0.7456 -0.3803 -0.5203
  158SAPE  H15R17641   3.136   1.506   8.277  0.7813 -1.4268  3.3056
  158SAPE  C21617642   3.171   1.301   8.337  0.2483  0.3514  0.6819
  158SAPE  H16R17643   3.274   1.331   8.366 -0.1649  1.4257  1.0703
  158SAPE  H16S17644   3.171   1.203   8.284 -1.9118 -0.3088  1.7442
  158SAPE  C21717645   3.106   1.266   8.472  0.1727  0.2665 -0.3601
  158SAPE  H17R17646   2.995   1.258   8.467  0.1725 -0.1020  0.1958
  158SAPE  H17S17647   3.126   1.344   8.548 -0.2823 -1.1642  1.2996
  158SAPE  C21817648   3.164   1.135   8.528  0.0174  0.1254  1.1524
  158SAPE  H18R17649   3.264   1.160   8.568 -0.3664  1.4681  1.3305
  158SAPE  H18S17650   3.174   1.053   8.454 -3.2337  1.9076 -1.5859
  158SAPE  C21917651   3.074   1.076   8.636  0.0106 -0.2863  0.2572
  158SAPE  H19R17652   2.986   1.039   8.581  2.5547 -0.5915 -4.0610
  158SAPE  H19S17653   3.036   1.154   8.706 -0.3422  2.6201 -2.9065
  158SAPE  C22017654   3.138   0.960   8.706 -0.7407 -0.5544 -0.2494
  158SAPE  H20R17655   3.211   1.001   8.779 -0.5502 -0.9443 -0.2193
  158SAPE  H20S17656   3.179   0.886   8.633  1.1256 -1.7410  1.8847
  158SAPE  H20T17657   3.070   0.896   8.766  2.2338 -1.7038  2.1247
  158SAPE   C3317658   2.997   2.053   7.084  0.0220 -0.1948 -0.0598
  158SAPE   H3X17659   3.095   2.102   7.103  1.4258 -3.2515  1.2282
  158SAPE   H3Y17660   2.988   1.979   7.166 -0.5805  0.8915  0.8876
  158SAPE   C3417661   2.884   2.151   7.112  0.0337 -0.0777 -0.4367
  158SAPE   H4X17662   2.791   2.095   7.132  0.9386 -2.7252 -2.7971
  158SAPE   H4Y17663   2.859   2.222   7.030  2.6349  0.7945 -0.5782
  158SAPE   C3517664   2.927   2.240   7.229  0.6745  0.2099 -0.8971
  158SAPE   H5X17665   2.858   2.326   7.236  0.4352 -0.0454 -0.0033
  158SAPE   H5Y17666   3.019   2.300   7.210 -0.2844  2.1377  0.3215
  158SAPE   C3617667   2.925   2.165   7.363  0.9006 -0.2373  0.1088
  158SAPE   H6X17668   2.990   2.075   7.367 -0.2176 -1.0993 -0.5772
  158SAPE   H6Y17669   2.820   2.130   7.363  1.0284 -0.7112 -2.1380
  158SAPE   C3717670   2.956   2.264   7.482  0.3037  0.1588 -0.5467
  158SAPE   H7X17671   3.050   2.315   7.453  1.1453 -1.6396 -1.1755
  158SAPE   H7Y17672   2.876   2.340   7.491  1.8842  1.8020  0.4839
  158SAPE   C3817673   2.982   2.193   7.618  0.4192 -0.4809 -0.4831
  158SAPE   H8X17674   3.053   2.111   7.596  2.6088  0.8879  1.1133
  158SAPE   H8Y17675   2.890   2.151   7.666  1.4298 -1.5403  0.6024
  158SAPE   C3917676   3.049   2.298   7.716 -0.3019 -0.1540  0.8014
  158SAPE   H9X17677   2.985   2.387   7.731  0.6770  0.6402  0.3968
  158SAPE   H9Y17678   3.144   2.329   7.667 -1.8933  0.6724 -1.9701
  158SAPE  C31017679   3.097   2.226   7.847  0.5257 -0.0263  0.8465
  158SAPE  H10X17680   3.186   2.279   7.887  1.4410 -1.0934  0.3072
  158SAPE  H10Y17681   3.156   2.137   7.814  0.0598 -0.4359  1.1094
  158SAPE  C31117682   2.987   2.193   7.951 -0.1530  1.0719  0.3685
  158SAPE  H11X17683   2.896   2.164   7.894  0.9957 -1.6901 -0.2071
  158SAPE  H11Y17684   2.956   2.285   8.004  3.4929  2.6945 -0.0418
  158SAPE  C31217685   3.034   2.089   8.051  0.0520  0.4812 -0.0195
  158SAPE  H12X17686   3.139   2.121   8.069 -0.6405  1.2539  3.1672
  158SAPE  H12Y17687   3.038   1.991   7.999 -2.0303 -0.8769  2.1956
  158SAPE  C31317688   2.946   2.053   8.173 -0.3608  0.3339  0.4786
  158SAPE  H13X17689   2.841   2.033   8.145 -0.4000 -0.5098  1.1958
  158SAPE  H13Y17690   2.956   2.143   8.239 -1.3385  1.2015 -0.5266
  158SAPE  C31417691   2.998   1.937   8.255  0.5121 -0.5630  0.4871
  158SAPE  H14X17692   3.108   1.949   8.266  0.4565 -0.3371  0.8175
  158SAPE  H14Y17693   2.962   1.853   8.192 -1.2791  1.3111 -1.1868
  158SAPE  C31517694   2.950   1.922   8.400 -0.2939 -0.5726 -0.6837
  158SAPE  H15X17695   2.840   1.910   8.400 -0.4163  0.3694  0.2809
  158SAPE  H15Y17696   2.986   2.004   8.465 -2.7038 -0.4149  0.5185
  158SAPE  C31617697   3.017   1.792   8.449  0.0393 -0.5310  0.1989
  158SAPE  H16X17698   3.127   1.791   8.436  0.3507  2.7089  1.5605
  158SAPE  H16Y17699   2.967   1.711   8.391 -2.7631  2.0241 -1.2443
  158SAPE  C31717700   2.974   1.769   8.600 -0.8244 -0.4452  0.6448
  158SAPE  H17X17701   2.864   1.759   8.606 -0.8250 -0.6018  0.3435
  158SAPE  H17Y17702   3.007   1.860   8.655 -0.7569 -0.9309  1.4330
  158SAPE  C31817703   3.041   1.657   8.673 -0.5583  0.0540 -0.0596
  158SAPE  H18X17704   3.033   1.656   8.784 -1.5656 -1.6853 -0.1039
  158SAPE  H18Y17705   3.151   1.658   8.655 -0.3697  1.2729  0.9857
  158SAPE  H18Z17706   3.004   1.557   8.640  0.9092 -0.8037  0.7420
  159SAPE     N17707   2.887   5.413   6.282  0.2302 -0.4530  0.1669
  159SAPE   HN117708   2.815   5.484   6.305 -0.1339 -0.6055 -0.4796
  159SAPE   HN217709   2.862   5.322   6.325  0.5400 -0.6086  0.0292
  159SAPE   HN317710   2.974   5.451   6.324  0.6432 -1.2023  0.0124
  159SAPE   C1217711   2.883   5.396   6.137 -0.3025 -0.3828 -0.0125
  159SAPE  H12A17712   2.784   5.357   6.105 -0.8891  1.9696 -1.3587
  159SAPE  H12B17713   2.967   5.334   6.100 -0.3583 -0.4376 -0.0470
  159SAPE   C1117714   2.889   5.541   6.086  0.4099 -0.2579 -0.1767
  159SAPE  H11A17715   2.792   5.585   6.120 -0.2835  1.4065 -3.8250
  159SAPE  H11B17716   2.876   5.549   5.976  0.2903 -0.8586 -0.2090
  159SAPE     P17717   3.140   5.575   6.107  0.0984  0.2686  0.5693
  159SAPE   O1317718   3.144   5.474   6.001  0.6067  0.2831 -0.0972
  159SAPE   O1417719   3.232   5.692   6.079  0.2971 -0.2419  0.2233
  159SAPE   O1217720   2.993   5.625   6.131 -0.4895  0.2852 -0.1509
  159SAPE   O1117721   3.166   5.514   6.252 -0.2055 -0.4556  0.2938
  159SAPE    C117722   3.287   5.440   6.273  0.2841 -0.8810  0.0203
  159SAPE    HA17723   3.366   5.455   6.196  0.0506 -0.1773 -0.0815
  159SAPE    HB17724   3.332   5.465   6.371 -2.4184  0.2693  1.0687
  159SAPE    C217725   3.249   5.288   6.279  0.2233 -0.6972  0.2830
  159SAPE    HS17726   3.186   5.259   6.193 -2.1165 -1.0299  2.0171
  159SAPE   O2117727   3.167   5.270   6.390  0.5825  0.0467  0.5894
  159SAPE   C2117728   3.124   5.156   6.425 -0.8832 -0.0434 -0.6408
  159SAPE   O2217729   3.141   5.051   6.357  1.3111  0.0908  0.1080
  159SAPE   C2217730   3.071   5.161   6.564  0.3025 -0.6032 -0.9340
  159SAPE   H2R17731   2.967   5.198   6.547  0.6061  0.5466 -0.4144
  159SAPE   H2S17732   3.066   5.056   6.598 -1.5638  0.0422  0.9884
  159SAPE    C317733   3.376   5.204   6.286  0.5994  0.4965 -0.1243
  159SAPE    HX17734   3.439   5.222   6.197  0.0747 -0.2231 -0.6541
  159SAPE    HY17735   3.343   5.098   6.280 -0.5683  0.8163  0.3254
  159SAPE   O3117736   3.443   5.231   6.410 -0.1375  0.6912  0.7631
  159SAPE   C3117737   3.571   5.195   6.417  1.3561  0.3069 -0.5916
  159SAPE   O3217738   3.631   5.137   6.332 -0.2979  0.1496  0.3407
  159SAPE   C3217739   3.649   5.250   6.536  0.1042 -0.8934 -0.7881
  159SAPE   H2X17740   3.592   5.261   6.631  3.0584  2.2673  0.8569
  159SAPE   H2Y17741   3.682   5.351   6.503 -2.2750 -0.0001 -0.6816
  159SAPE   C2317742   3.142   5.254   6.671 -0.2787  0.9550 -0.2771
  159SAPE   H3R17743   3.060   5.279   6.742 -2.7433  1.6657 -3.1995
  159SAPE   H3S17744   3.176   5.344   6.616  0.3088 -0.0256 -1.5859
  159SAPE   C2417745   3.260   5.185   6.753 -0.6738 -0.6250 -0.0611
  159SAPE   H4R17746   3.303   5.265   6.817  1.6647 -0.2337 -2.0114
  159SAPE   H4S17747   3.343   5.153   6.687  0.0642 -0.9970  1.0313
  159SAPE   C2517748   3.226   5.058   6.833  0.3939  0.5260 -0.3644
  159SAPE   H5R17749   3.217   4.968   6.771 -1.4693 -0.0284  0.6381
  159SAPE   C2617750   3.212   5.044   6.967  0.3008 -0.5716 -0.5175
  159SAPE   H6R17751   3.183   4.944   7.003 -1.0665  0.0004  0.0332
  159SAPE   C2717752   3.229   5.152   7.071 -0.9854 -0.0811 -0.1903
  159SAPE   H7R17753   3.185   5.246   7.031 -1.0262  0.4895  1.1238
  159SAPE   H7S17754   3.337   5.159   7.092 -0.9129  1.5399 -0.9744
  159SAPE   C2817755   3.151   5.122   7.201 -0.3519  0.7006 -0.0102
  159SAPE   H8R17756   3.056   5.176   7.212 -0.7019 -0.1768  1.5523
  159SAPE   C2917757   3.192   5.040   7.299  0.5574  0.3039  0.5365
  159SAPE   H9R17758   3.129   5.029   7.388 -2.4070 -0.2519 -1.4878
  159SAPE  C21017759   3.325   4.972   7.314 -0.7603  0.6590  0.0537
  159SAPE  H10R17760   3.372   5.011   7.407  0.0248 -0.3218  0.0833
  159SAPE  H10S17761   3.396   5.001   7.234  1.9641  0.4179  2.2562
  159SAPE  C21117762   3.322   4.817   7.315 -0.4895 -0.2810 -0.6952
  159SAPE  H11R17763   3.342   4.766   7.220 -1.3506 -0.2421 -0.9081
  159SAPE  C21217764   3.308   4.740   7.423 -0.8095  0.0303 -0.1731
  159SAPE  H12R17765   3.281   4.636   7.401  2.7889 -0.8188 -1.2011
  159SAPE  C21317766   3.293   4.792   7.564  0.4175  1.3594 -0.0645
  159SAPE  H13R17767   3.215   4.730   7.612  0.2835  1.0454 -0.6793
  159SAPE  H13S17768   3.233   4.885   7.556  1.5762  2.2330  0.9671
  159SAPE  C21417769   3.413   4.808   7.650 -1.3966 -0.0542 -0.5448
  159SAPE  H14R17770   3.488   4.873   7.603 -2.5559  2.1702  0.5017
  159SAPE  C21517771   3.440   4.760   7.773  0.5401  0.6338 -0.0803
  159SAPE  H15R17772   3.532   4.773   7.831  0.9710 -2.4565  0.0971
  159SAPE  C21617773   3.337   4.679   7.860  0.3833  0.0071  0.1806
  159SAPE  H16R17774   3.240   4.674   7.806 -0.1479  1.6678  0.9121
  159SAPE  H16S17775   3.315   4.731   7.956 -0.4204 -1.6255  0.9236
  159SAPE  C21717776   3.389   4.544   7.904 -0.6294 -0.0722 -0.7149
  159SAPE  H17R17777   3.428   4.486   7.817  0.0065 -1.7141  0.6255
  159SAPE  H17S17778   3.309   4.481   7.949  2.2200 -2.6423  1.1439
  159SAPE  C21817779   3.507   4.560   7.999  0.1817  0.1709  0.5146
  159SAPE  H18R17780   3.499   4.647   8.068  4.4724  1.8485 -0.7848
  159SAPE  H18S17781   3.591   4.581   7.930 -0.9229 -2.3903 -1.7964
  159SAPE  C21917782   3.534   4.431   8.079  0.2653 -0.3606  0.0729
  159SAPE  H19R17783   3.635   4.437   8.125 -1.5650 -1.8221  4.9139
  159SAPE  H19S17784   3.525   4.346   8.008 -0.1587 -0.9454  0.7988
  159SAPE  C22017785   3.425   4.411   8.185 -0.2709  0.3050  0.5479
  159SAPE  H20R17786   3.332   4.363   8.149  1.0456  0.0708 -2.9136
  159SAPE  H20S17787   3.414   4.509   8.236  3.2456  1.3525 -0.4031
  159SAPE  H20T17788   3.460   4.340   8.264 -3.7454 -0.0184  1.9670
  159SAPE   C3317789   3.770   5.172   6.576 -0.0837  0.2785  0.3024
  159SAPE   H3X17790   3.847   5.228   6.632 -0.8212  0.3627  1.2561
  159SAPE   H3Y17791   3.829   5.135   6.489  0.5102 -0.7804  1.1231
  159SAPE   C3417792   3.740   5.049   6.673 -0.3702 -0.0876 -0.4490
  159SAPE   H4X17793   3.824   4.977   6.668 -0.3387 -0.1598  0.7390
  159SAPE   H4Y17794   3.651   4.997   6.631  0.3367 -1.2683 -0.5272
  159SAPE   C3517795   3.729   5.075   6.821  0.0537  0.1483  0.6018
  159SAPE   H5X17796   3.655   5.153   6.846 -0.7679  0.1210 -1.5432
  159SAPE   H5Y17797   3.828   5.110   6.858 -0.8873  0.6865  2.6924
  159SAPE   C3617798   3.695   4.938   6.892 -0.1772 -0.1742  0.5623
  159SAPE   H6X17799   3.766   4.859   6.861 -0.6660 -0.5244  0.3191
  159SAPE   H6Y17800   3.589   4.911   6.871 -0.8730  2.0077  0.9177
  159SAPE   C3717801   3.690   4.962   7.044  0.5747 -0.1772  0.2343
  159SAPE   H7X17802   3.597   5.012   7.079 -0.1574 -1.5946  0.4247
  159SAPE   H7Y17803   3.776   5.029   7.065 -0.5515  1.2011  0.5932
  159SAPE   C3817804   3.720   4.836   7.132  0.0151 -0.1588  0.1378
  159SAPE   H8X17805   3.783   4.760   7.081 -0.2559  0.1173 -0.6295
  159SAPE   H8Y17806   3.618   4.797   7.150 -0.3266  1.0080  0.8266
  159SAPE   C3917807   3.776   4.868   7.272  0.3395  0.6244  0.2979
  159SAPE   H9X17808   3.714   4.954   7.305  1.3209  1.7087 -0.5807
  159SAPE   H9Y17809   3.877   4.912   7.259 -0.5168  1.9254 -2.9910
  159SAPE  C31017810   3.760   4.750   7.378  0.1623 -0.1410 -0.6427
  159SAPE  H10X17811   3.791   4.658   7.324 -0.5131 -0.9960  0.3906
  159SAPE  H10Y17812   3.653   4.735   7.404  0.4456 -0.6289  0.2882
  159SAPE  C31117813   3.841   4.766   7.515 -0.4166 -0.0788 -0.2204
  159SAPE  H11X17814   3.786   4.838   7.579 -2.8918 -2.5569  0.6411
  159SAPE  H11Y17815   3.936   4.809   7.476  0.5636 -1.5013  0.5107
  159SAPE  C31217816   3.857   4.632   7.584  0.9110 -0.7643 -0.4446
  159SAPE  H12X17817   3.900   4.558   7.514  0.8132 -1.9432  0.7107
  159SAPE  H12Y17818   3.753   4.598   7.598  0.6864  0.3988  1.0439
  159SAPE  C31317819   3.947   4.633   7.712  0.7596 -0.3181 -0.6949
  159SAPE  H13X17820   3.908   4.714   7.777  1.0825  0.3261 -1.2914
  159SAPE  H13Y17821   4.049   4.666   7.683  0.9185  0.0868  0.2986
  159SAPE  C31417822   3.949   4.504   7.793  0.1957  0.4209 -0.6702
  159SAPE  H14X17823   4.016   4.434   7.739 -1.4806 -0.8535 -1.1956
  159SAPE  H14Y17824   3.843   4.473   7.786 -0.2363  2.0009 -1.6951
  159SAPE  C31517825   3.986   4.539   7.939 -0.2392  0.0469  1.2382
  159SAPE  H15X17826   3.916   4.612   7.984 -2.4094 -0.6771 -0.7627
  159SAPE  H15Y17827   4.087   4.584   7.946 -1.3757  2.7198  1.5727
  159SAPE  C31617828   3.993   4.418   8.036  0.6525 -0.3832  0.4430
  159SAPE  H16X17829   4.086   4.363   8.011  1.2519  1.0035 -0.4952
  159SAPE  H16Y17830   3.912   4.344   8.020 -1.3124  1.8570 -0.5692
  159SAPE  C31717831   3.996   4.460   8.178  0.1338 -0.1146  0.5151
  159SAPE  H17X17832   3.917   4.538   8.187 -1.2133 -1.1896 -1.4431
  159SAPE  H17Y17833   4.088   4.510   8.217 -0.1700  0.6415  0.2882
  159SAPE  C31817834   3.964   4.344   8.276  0.2643 -1.3249 -0.2364
  159SAPE  H18X17835   3.984   4.392   8.375  0.6517  1.3241 -1.5159
  159SAPE  H18Y17836   4.036   4.261   8.258 -0.0419 -1.1304 -2.6267
  159SAPE  H18Z17837   3.861   4.312   8.251 -0.0138  1.2451 -2.9352
  160SAPE     N17838   2.697   1.597   6.281  0.5813  0.1193 -0.3885
  160SAPE   HN117839   2.736   1.693   6.266  2.1798 -0.4746 -0.2468
  160SAPE   HN217840   2.778   1.532   6.280  0.3932 -0.1288  0.1761
  160SAPE   HN317841   2.638   1.575   6.198  0.0082 -0.2436  0.1155
  160SAPE   C1217842   2.617   1.568   6.409 -1.1119 -0.2587  0.2614
  160SAPE  H12A17843   2.515   1.612   6.410 -0.9098  0.2248  0.0252
  160SAPE  H12B17844   2.670   1.626   6.488 -1.6304  1.9284 -0.9249
  160SAPE   C1117845   2.608   1.419   6.430  0.6300 -0.2576  0.3718
  160SAPE  H11A17846   2.582   1.413   6.538 -1.2969  1.1931  0.0221
  160SAPE  H11B17847   2.704   1.362   6.426  0.9431  0.0378  2.4163
  160SAPE     P17848   2.511   1.198   6.343  0.2486  0.2596  0.5861
  160SAPE   O1317849   2.406   1.157   6.251 -0.1088 -0.5406 -0.0286
  160SAPE   O1417850   2.648   1.162   6.299  0.1106 -0.4292 -0.0107
  160SAPE   O1217851   2.507   1.356   6.346  0.0365  0.8066 -0.1255
  160SAPE   O1117852   2.484   1.140   6.485  0.0162 -0.3311  0.4047
  160SAPE    C117853   2.370   1.180   6.560 -0.2364 -0.3224  0.0558
  160SAPE    HA17854   2.325   1.276   6.525 -0.0868 -0.9733 -2.0649
  160SAPE    HB17855   2.293   1.100   6.560 -0.9888  0.3738 -0.5630
  160SAPE    C217856   2.393   1.199   6.714  0.6377 -0.0780 -0.4254
  160SAPE    HS17857   2.449   1.292   6.737  0.0564 -0.0789  1.2053
  160SAPE   O2117858   2.456   1.084   6.764  0.1522 -0.0208  0.0828
  160SAPE   C2117859   2.588   1.092   6.789  1.2829  0.8222 -0.3012
  160SAPE   O2217860   2.658   1.191   6.780  0.4180 -0.2866 -0.5274
  160SAPE   C2217861   2.627   0.967   6.868 -0.2406  0.1913 -0.2643
  160SAPE   H2R17862   2.557   0.952   6.953  1.2291  0.5718  1.0712
  160SAPE   H2S17863   2.607   0.879   6.802 -0.9301  0.0166  0.1711
  160SAPE    C317864   2.258   1.222   6.793  0.4113  0.7028  0.3526
  160SAPE    HX17865   2.194   1.131   6.797  1.9299 -0.4125  0.1070
  160SAPE    HY17866   2.206   1.299   6.732  0.2672 -1.2524 -2.1596
  160SAPE   O3117867   2.278   1.281   6.921 -0.5580 -0.1178 -0.6528
  160SAPE   C3117868   2.289   1.209   7.027 -0.4745  0.0388  0.1899
  160SAPE   O3217869   2.267   1.090   7.031  0.0588 -0.0565 -0.2998
  160SAPE   C3217870   2.341   1.303   7.141 -0.2132  0.3256  0.0839
  160SAPE   H2X17871   2.280   1.396   7.146  0.2847  0.6232  0.8531
  160SAPE   H2Y17872   2.448   1.326   7.120 -0.1144 -0.1990 -0.0180
  160SAPE   C2317873   2.762   0.969   6.941 -0.0142 -0.0098  0.6910
  160SAPE   H3R17874   2.837   0.987   6.861  0.6095 -0.8061  1.0808
  160SAPE   H3S17875   2.768   0.862   6.971  0.8175  0.1781  1.2254
  160SAPE   C2417876   2.789   1.065   7.051 -0.3158  0.2728  0.0039
  160SAPE   H4R17877   2.829   1.162   7.015  1.0150  0.9930  3.0821
  160SAPE   H4S17878   2.878   1.033   7.110 -0.0632 -0.2984 -0.6746
  160SAPE   C2517879   2.678   1.094   7.150 -0.0414 -0.5193  0.0768
  160SAPE   H5R17880   2.604   1.173   7.128 -1.4573 -1.3937  1.5072
  160SAPE   C2617881   2.657   1.022   7.261  0.0940  0.3224 -0.0813
  160SAPE   H6R17882   2.579   1.040   7.336  0.4873 -0.3655  0.5073
  160SAPE   C2717883   2.742   0.903   7.313  0.0037  0.8427  0.6843
  160SAPE   H7R17884   2.794   0.941   7.403  2.9109 -0.7647 -0.1712
  160SAPE   H7S17885   2.822   0.867   7.244  0.9835 -0.2862  2.3406
  160SAPE   C2817886   2.652   0.786   7.347  0.0504 -0.6616  0.2579
  160SAPE   H8R17887   2.631   0.718   7.263 -0.4373  0.6658 -0.7283
  160SAPE   C2917888   2.586   0.775   7.463  0.4716 -0.2387  0.3204
  160SAPE   H9R17889   2.524   0.684   7.471  1.1961 -1.4525 -4.4760
  160SAPE  C21017890   2.589   0.873   7.576 -0.2376 -0.7084  0.7493
  160SAPE  H10R17891   2.567   0.974   7.533  1.2497 -0.8299 -0.3631
  160SAPE  H10S17892   2.689   0.878   7.623 -0.3908  0.0363  1.0166
  160SAPE  C21117893   2.487   0.849   7.681 -0.4296  0.2517  0.1141
  160SAPE  H11R17894   2.392   0.900   7.659 -0.0156  1.5938  1.2941
  160SAPE  C21217895   2.508   0.792   7.798  0.0658  0.3210  0.0642
  160SAPE  H12R17896   2.419   0.773   7.860  0.3152 -0.0085  0.3204
  160SAPE  C21317897   2.634   0.744   7.864 -0.1046  0.0644  0.0507
  160SAPE  H13R17898   2.700   0.695   7.789 -0.1528 -1.8384  1.1833
  160SAPE  H13S17899   2.614   0.650   7.920  0.8259 -0.8593 -1.0895
  160SAPE  C21417900   2.718   0.841   7.947 -0.2555 -0.8138 -0.6893
  160SAPE  H14R17901   2.757   0.919   7.881 -1.4380  0.1531 -0.2874
  160SAPE  C21517902   2.741   0.843   8.078  0.1183  0.8756  0.2026
  160SAPE  H15R17903   2.790   0.924   8.133  1.1445  1.5464 -1.6048
  160SAPE  C21617904   2.664   0.739   8.165 -0.1517 -0.8920 -0.7386
  160SAPE  H16R17905   2.579   0.690   8.114  0.1974 -3.4565  0.9540
  160SAPE  H16S17906   2.603   0.796   8.238  0.5915  1.9664 -2.1661
  160SAPE  C21717907   2.745   0.633   8.226 -0.5368 -0.5166  0.8195
  160SAPE  H17R17908   2.803   0.581   8.147  1.0466  1.7144  0.4295
  160SAPE  H17S17909   2.687   0.563   8.289  0.9255 -0.7265  1.9726
  160SAPE  C21817910   2.853   0.689   8.324 -0.0056  0.2942  0.4086
  160SAPE  H18R17911   2.800   0.739   8.408  2.5145  1.2807  1.5134
  160SAPE  H18S17912   2.908   0.768   8.269 -0.6125  0.0035 -0.6358
  160SAPE  C21917913   2.951   0.584   8.367 -0.3441 -0.2190  0.7891
  160SAPE  H19R17914   3.002   0.547   8.275 -0.0575  3.0930 -0.5119
  160SAPE  H19S17915   2.898   0.505   8.423 -0.8494  1.5662  2.9773
  160SAPE  C22017916   3.065   0.644   8.449  0.0208 -0.4161 -0.4634
  160SAPE  H20R17917   3.022   0.677   8.546 -0.0998  2.0873 -1.2918
  160SAPE  H20S17918   3.117   0.729   8.401 -0.4435  0.2031  0.1105
  160SAPE  H20T17919   3.133   0.562   8.480 -0.0419  0.1588  1.3483
  160SAPE   C3317920   2.330   1.243   7.287  0.3043 -0.1096  0.1701
  160SAPE   H3X17921   2.383   1.146   7.293  1.5548  0.5613  0.2322
  160SAPE   H3Y17922   2.223   1.234   7.317  0.5401 -2.7573  0.3934
  160SAPE   C3417923   2.421   1.322   7.383  0.3681  0.0228 -0.2708
  160SAPE   H4X17924   2.407   1.432   7.372 -0.9973  0.0664  1.4582
  160SAPE   H4Y17925   2.530   1.302   7.370  0.4120  0.1609 -0.1302
  160SAPE   C3517926   2.381   1.282   7.526  0.3950  0.3988 -0.3785
  160SAPE   H5X17927   2.387   1.175   7.554  0.3475  0.3692 -0.4780
  160SAPE   H5Y17928   2.271   1.299   7.523  0.5945  1.9165  0.1009
  160SAPE   C3617929   2.441   1.360   7.645 -0.1243 -0.8839 -0.2496
  160SAPE   H6X17930   2.467   1.465   7.618  1.3715 -0.9993  0.6105
  160SAPE   H6Y17931   2.546   1.328   7.661  0.3361  1.0333  0.8792
  160SAPE   C3717932   2.369   1.342   7.778 -0.5716 -0.4395 -0.1144
  160SAPE   H7X17933   2.261   1.356   7.754 -0.1703 -0.6329 -2.2639
  160SAPE   H7Y17934   2.390   1.430   7.842 -1.6090 -0.0140 -0.3337
  160SAPE   C3817935   2.400   1.211   7.853  0.2241  0.0308 -0.8461
  160SAPE   H8X17936   2.511   1.202   7.860  0.2040  1.0261  3.5656
  160SAPE   H8Y17937   2.368   1.125   7.790 -1.9249  1.7988 -2.3148
  160SAPE   C3917938   2.319   1.226   7.988 -0.3528  0.3913 -0.4422
  160SAPE   H9X17939   2.214   1.213   7.957 -0.6210 -0.0390  0.6150
  160SAPE   H9Y17940   2.333   1.328   8.030  2.5125 -0.4941  1.0061
  160SAPE  C31017941   2.343   1.125   8.100 -0.3667 -0.0036  0.2815
  160SAPE  H10X17942   2.352   1.024   8.055  1.6785  1.0655 -1.9856
  160SAPE  H10Y17943   2.254   1.142   8.164  0.3971  0.8332  1.1653
  160SAPE  C31117944   2.469   1.159   8.170  0.2869 -0.4433 -0.4693
  160SAPE  H11X17945   2.473   1.268   8.191  0.1337 -0.4575 -0.3674
  160SAPE  H11Y17946   2.547   1.130   8.096 -1.5100  0.5131 -2.8623
  160SAPE  C31217947   2.481   1.078   8.298  0.0518  0.1187 -0.0016
  160SAPE  H12X17948   2.453   0.976   8.263 -0.7230  1.3274 -3.3530
  160SAPE  H12Y17949   2.401   1.120   8.363 -1.4251 -0.0837 -1.5930
  160SAPE  C31317950   2.616   1.073   8.376  0.4210  0.2777  0.0946
  160SAPE  H13X17951   2.650   1.173   8.408 -0.6909  0.4239  0.8892
  160SAPE  H13Y17952   2.683   1.027   8.300 -0.6714  0.5304 -1.0528
  160SAPE  C31417953   2.613   0.982   8.505 -1.0634 -0.1076  0.4036
  160SAPE  H14X17954   2.718   0.992   8.539 -0.9886  1.1847 -0.1260
  160SAPE  H14Y17955   2.592   0.877   8.475  0.5145 -0.4418  0.3785
  160SAPE  C31517956   2.512   1.028   8.609 -0.1069  0.5136  0.7152
  160SAPE  H15X17957   2.409   1.041   8.569  0.6584  3.3954 -0.5953
  160SAPE  H15Y17958   2.547   1.125   8.650  0.0491 -0.1305  2.1652
  160SAPE  C31617959   2.506   0.936   8.725 -0.0692 -0.2657 -0.1557
  160SAPE  H16X17960   2.607   0.914   8.766  1.2088  0.8652 -2.4941
  160SAPE  H16Y17961   2.448   0.851   8.684  0.0879 -0.1323 -0.6700
  160SAPE  C31717962   2.425   0.996   8.839 -0.0252 -0.2767  0.3558
  160SAPE  H17X17963   2.321   1.028   8.814 -0.5196 -1.6510  0.5669
  160SAPE  H17Y17964   2.486   1.080   8.879  0.6528 -0.2154 -0.7669
  160SAPE  C31817965   2.425   0.890   8.949 -0.3349  0.1368 -0.1557
  160SAPE  H18X17966   2.522   0.836   8.958  0.3938  1.6939  2.2806
  160SAPE  H18Y17967   2.342   0.818   8.934 -1.2921  1.3619 -1.0021
  160SAPE  H18Z17968   2.416   0.949   9.042  3.0417  3.1135 -1.4883
  161SOPE     N17969   0.788   5.334  11.022 -0.4496  0.0429  0.2215
  161SOPE   HN117970   0.800   5.336  11.125  2.5919 -0.3046 -0.0337
  161SOPE   HN217971   0.828   5.418  10.977 -1.8724  0.0658 -1.0868
  161SOPE   HN317972   0.685   5.341  11.011 -0.1693  2.2380 -1.6974
  161SOPE   C1217973   0.843   5.207  10.966  0.3652  0.4377 -0.2427
  161SOPE  H12A17974   0.771   5.131  11.004  1.0277  0.1559  0.4636
  161SOPE  H12B17975   0.946   5.186  11.002  0.0234  0.9951  1.1153
  161SOPE   C1117976   0.837   5.219  10.816  0.2504  0.3031 -0.8648
  161SOPE  H11A17977   0.745   5.273  10.785 -0.8660 -1.0058  0.0769
  161SOPE  H11B17978   0.831   5.116  10.775 -0.3287 -0.2930  0.6476
  161SOPE     P17979   1.090   5.220  10.724 -0.1626 -0.1693 -0.1913
  161SOPE   O1317980   1.098   5.091  10.795  0.0386  0.5530  0.0196
  161SOPE   O1417981   1.204   5.304  10.735  0.2917 -0.0236 -0.6281
  161SOPE   O1217982   0.955   5.294  10.774 -0.6239  0.4048 -0.8547
  161SOPE   O1117983   1.048   5.207  10.569 -0.5663  0.0593 -0.2668
  161SOPE    C117984   1.062   5.320  10.480 -0.2200 -0.3742  0.8657
  161SOPE    HA17985   1.162   5.313  10.433  0.2223 -0.0723  1.7490
  161SOPE    HB17986   1.039   5.419  10.525 -1.9771 -0.3527  0.0412
  161SOPE    C217987   0.965   5.319  10.360  0.1244 -0.1058 -0.4384
  161SOPE    HS17988   0.863   5.314  10.404  1.1624  0.3759  2.2247
  161SOPE   O2117989   0.995   5.206  10.277  0.1015 -0.3182  0.1826
  161SOPE   C2117990   0.898   5.131  10.230  0.2982  0.5175  0.7917
  161SOPE   O2217991   0.781   5.156  10.241 -0.2120 -0.0911  0.0095
  161SOPE   C2217992   0.963   5.002  10.170 -0.2761 -0.1301  0.1477
  161SOPE   H2R17993   0.910   4.916  10.216 -0.4839  0.8924  1.8974
  161SOPE   H2S17994   1.069   5.008  10.205  0.6112  1.5161 -2.4835
  161SOPE    C317995   0.962   5.456  10.286 -0.6317 -0.2955  0.2115
  161SOPE    HX17996   1.064   5.470  10.243  0.2152  0.2443  2.2668
  161SOPE    HY17997   0.945   5.537  10.361 -0.8907 -1.1316  1.0667
  161SOPE   O3117998   0.865   5.457  10.175 -0.2376  0.0210 -0.0339
  161SOPE   C3117999   0.740   5.497  10.203 -0.0003 -0.5879  0.1195
  161SOPE   O3218000   0.703   5.543  10.310  0.3217 -0.0429  0.6129
  161SOPE   C3218001   0.647   5.470  10.080  0.1335 -0.4768 -0.7010
  161SOPE   H2X18002   0.564   5.543  10.079 -0.7472 -1.3969  0.9213
  161SOPE   H2Y18003   0.601   5.369  10.091  1.1854 -1.1220 -1.9514
  161SOPE   C2318004   0.933   5.015  10.017 -0.0683  0.9785 -0.3765
  161SOPE   H3R18005   0.936   5.115   9.969  1.0185  1.3615  0.4296
  161SOPE   H3S18006   0.829   4.980  10.005 -0.4086 -1.9271  6.4036
  161SOPE   C2418007   1.023   4.909   9.943 -0.4305  0.5194  0.4964
  161SOPE   H4R18008   1.127   4.938   9.968 -0.0422 -0.3531 -0.0680
  161SOPE   H4S18009   1.008   4.808   9.986  0.6582  0.2256  0.2222
  161SOPE   C2518010   0.999   4.902   9.791 -0.5717 -0.0685 -0.3698
  161SOPE   H5R18011   0.890   4.885   9.779 -0.8140  2.2844 -2.2356
  161SOPE   H5S18012   1.023   4.985   9.721 -0.4003  0.2981  0.1168
  161SOPE   C2618013   1.071   4.774   9.733 -0.6311  0.1476 -0.1600
  161SOPE   H6R18014   1.083   4.692   9.807  1.4980 -0.5261 -1.1784
  161SOPE   H6S18015   0.996   4.743   9.658  0.1162  1.6729 -1.5957
  161SOPE   C2718016   1.211   4.803   9.673  0.5835  0.1864  0.4710
  161SOPE   H7R18017   1.204   4.869   9.584  0.1348 -0.4796  0.0062
  161SOPE   H7S18018   1.246   4.863   9.760 -3.3186  1.6333  1.2496
  161SOPE   C2818019   1.286   4.668   9.653  0.6059  0.3044  0.2089
  161SOPE   H8R18020   1.270   4.609   9.746  0.3150  1.2466  0.7702
  161SOPE   H8S18021   1.227   4.606   9.581 -1.6372 -0.6665  2.7336
  161SOPE   C2918022   1.426   4.675   9.613 -0.4976 -0.8601 -0.7642
  161SOPE   H9118023   1.503   4.685   9.690 -0.3378 -1.0450 -0.8986
  161SOPE  C21018024   1.476   4.657   9.489  0.3341  0.1570 -0.1688
  161SOPE  H10118025   1.584   4.664   9.466  0.5074  0.2642  0.6495
  161SOPE  C21118026   1.395   4.641   9.360 -0.2469  0.9071 -0.1453
  161SOPE  H11R18027   1.438   4.701   9.277 -0.4298  0.4843 -0.5508
  161SOPE  H11S18028   1.298   4.696   9.364 -1.8645 -1.5590 -2.5140
  161SOPE  C21218029   1.388   4.501   9.293  0.3270 -0.6744 -0.1673
  161SOPE  H12R18030   1.329   4.434   9.359 -1.2392  0.3464 -0.4482
  161SOPE  H12S18031   1.487   4.453   9.278  0.5953 -1.1154  2.6042
  161SOPE  C21318032   1.298   4.521   9.171 -0.2878 -0.5377  0.0667
  161SOPE  H13R18033   1.337   4.609   9.116  0.0151 -1.9419 -2.1217
  161SOPE  H13S18034   1.200   4.557   9.207  0.3228  0.4476  0.7908
  161SOPE  C21418035   1.306   4.396   9.080 -0.1042  0.2024  0.0300
  161SOPE  H14R18036   1.254   4.312   9.129 -0.0574 -0.2335 -0.6624
  161SOPE  H14S18037   1.407   4.358   9.053 -1.5476 -2.7806 -1.5872
  161SOPE  C21518038   1.235   4.423   8.947  0.4173 -0.3927  0.1211
  161SOPE  H15R18039   1.300   4.482   8.879  1.5046 -0.5732  0.9782
  161SOPE  H15S18040   1.140   4.478   8.966  0.4358 -0.8787  1.7994
  161SOPE  C21618041   1.206   4.292   8.875  0.4101 -0.0565  0.6133
  161SOPE  H16R18042   1.136   4.233   8.938 -0.6918 -0.2347 -0.7223
  161SOPE  H16S18043   1.303   4.240   8.863 -0.3632 -1.4099  0.0697
  161SOPE  C21718044   1.120   4.319   8.751 -0.1686 -0.1343 -0.5972
  161SOPE  H17R18045   1.107   4.228   8.687 -1.9884  1.3968 -2.5533
  161SOPE  H17S18046   1.165   4.397   8.685  1.2824 -0.5967 -0.1985
  161SOPE  C21818047   0.975   4.362   8.783  0.6174  0.1207  0.5809
  161SOPE  H18R18048   0.958   4.443   8.857 -3.1547 -0.3545  0.4385
  161SOPE  H18S18049   0.917   4.278   8.827  1.3669  0.6234  2.6098
  161SOPE  H18T18050   0.933   4.403   8.688 -1.0001 -0.8197  0.8516
  161SOPE   C3318051   0.722   5.485   9.948  0.0486  0.6885 -0.7547
  161SOPE   H3X18052   0.811   5.551   9.952  0.0320  0.7220 -0.9336
  161SOPE   H3Y18053   0.649   5.538   9.884 -0.6889 -1.6835 -1.9942
  161SOPE   C3418054   0.743   5.351   9.882  0.9419  0.2363  0.0154
  161SOPE   H4X18055   0.647   5.299   9.863  1.3094 -0.3167 -0.3797
  161SOPE   H4Y18056   0.795   5.290   9.959  0.2283  1.6472  1.6683
  161SOPE   C3518057   0.820   5.357   9.753  0.5097 -0.0337 -0.8355
  161SOPE   H5X18058   0.926   5.370   9.783  0.7640  0.5197 -1.9283
  161SOPE   H5Y18059   0.783   5.434   9.681 -0.3289 -1.8554 -2.4452
  161SOPE   C3618060   0.786   5.231   9.668 -0.5793 -0.3461 -0.9774
  161SOPE   H6X18061   0.685   5.238   9.623 -0.6038  0.1999 -0.8393
  161SOPE   H6Y18062   0.779   5.141   9.733 -1.5370 -0.7302 -1.5858
  161SOPE   C3718063   0.894   5.192   9.573 -0.0225 -0.5092  0.3728
  161SOPE   H7X18064   0.858   5.098   9.526  0.5839 -1.2883  1.4088
  161SOPE   H7Y18065   0.989   5.174   9.628 -0.6624 -0.8403  1.4046
  161SOPE   C3818066   0.920   5.294   9.459 -0.3152  0.4916  0.6988
  161SOPE   H8X18067   0.991   5.363   9.510  2.9105 -2.2901  0.3860
  161SOPE   H8Y18068   0.830   5.350   9.427 -0.1560  0.8855  0.9278
  161SOPE   C3918069   0.992   5.226   9.337 -0.1909  0.2932  0.1727
  161SOPE   H9X18070   0.923   5.146   9.301 -1.3312  0.4330  1.9493
  161SOPE   H9Y18071   1.074   5.171   9.387 -0.2592 -0.2658 -0.3153
  161SOPE  C31018072   1.046   5.327   9.232  0.1945 -0.7035 -0.3734
  161SOPE  H10X18073   1.117   5.392   9.288  1.2679 -3.9998  2.5469
  161SOPE  H10Y18074   0.956   5.374   9.190  0.5131  2.0800  1.7878
  161SOPE  C31118075   1.108   5.245   9.122 -0.0080  0.1135 -0.0560
  161SOPE  H11X18076   1.020   5.203   9.069  0.7206 -0.7360 -0.6355
  161SOPE  H11Y18077   1.173   5.164   9.162  1.1260  1.3445  0.6817
  161SOPE  C31218078   1.178   5.322   9.015 -0.5751 -0.3484  0.2939
  161SOPE  H12X18079   1.266   5.379   9.051 -2.4492  2.0688  1.3259
  161SOPE  H12Y18080   1.103   5.390   8.969 -2.9716 -2.0901  1.4310
  161SOPE  C31318081   1.229   5.233   8.901  0.5429  0.2903  0.9442
  161SOPE  H13X18082   1.287   5.147   8.940  1.5778  0.3072 -0.4774
  161SOPE  H13Y18083   1.305   5.293   8.848 -0.0648  0.2633  0.0161
  161SOPE  C31418084   1.123   5.181   8.804 -0.6557 -0.2415 -0.2295
  161SOPE  H14X18085   1.066   5.263   8.755 -1.9410 -0.8440  0.2148
  161SOPE  H14Y18086   1.044   5.122   8.856  0.5711 -1.8992 -0.1891
  161SOPE  C31518087   1.190   5.096   8.705 -0.4599 -0.3258 -0.2428
  161SOPE  H15X18088   1.287   5.138   8.671 -1.1920  0.8118 -0.9924
  161SOPE  H15Y18089   1.126   5.072   8.618 -1.8632  0.2574  0.5963
  161SOPE  C31618090   1.226   4.956   8.755 -0.7262  0.5771  0.6671
  161SOPE  H16X18091   1.147   4.928   8.828  1.0490 -0.2431  2.3523
  161SOPE  H16Y18092   1.314   4.968   8.822 -0.6228  0.4454  0.5537
  161SOPE  C31718093   1.263   4.850   8.645 -0.3935 -0.6745 -0.1841
  161SOPE  H17X18094   1.370   4.861   8.617 -0.5829 -0.7823 -0.9511
  161SOPE  H17Y18095   1.197   4.855   8.556 -1.1818 -1.4017  0.3381
  161SOPE  C31818096   1.246   4.708   8.707  0.5967 -0.4943  0.5802
  161SOPE  H18X18097   1.138   4.694   8.732  1.2055 -3.5253  2.0109
  161SOPE  H18Y18098   1.310   4.714   8.797  1.0089  1.1684  0.2087
  161SOPE  H18Z18099   1.271   4.629   8.634 -2.1158 -1.1630  0.2510
  162SOPE     N18100   1.035   4.868  10.912  0.1515  0.5450  0.3287
  162SOPE   HN118101   1.072   4.955  10.868 -1.1804  0.7624 -0.4321
  162SOPE   HN218102   0.996   4.884  11.007  0.4342  1.7336  0.2597
  162SOPE   HN318103   1.113   4.801  10.925  0.1464  1.0345  3.4917
  162SOPE   C1218104   0.914   4.809  10.839 -1.2177 -0.3282 -0.2630
  162SOPE  H12A18105   0.957   4.768  10.745  1.5352 -0.8720  1.1238
  162SOPE  H12B18106   0.830   4.879  10.823 -1.5825 -0.4874  0.8850
  162SOPE   C1118107   0.862   4.695  10.932 -0.8135  0.2180 -0.0217
  162SOPE  H11A18108   0.948   4.627  10.948 -1.3069 -0.2655  0.6184
  162SOPE  H11B18109   0.786   4.639  10.873 -2.0519  0.5312  1.2278
  162SOPE     P18110   0.689   4.668  11.119 -0.1980 -0.4072  0.1646
  162SOPE   O1318111   0.652   4.740  11.243  0.5893 -0.0904  0.2659
  162SOPE   O1418112   0.717   4.524  11.135  0.2456  0.0365 -0.3147
  162SOPE   O1218113   0.806   4.743  11.051 -0.4533 -0.1953  0.7297
  162SOPE   O1118114   0.582   4.688  11.005 -0.2756 -0.4060  0.3841
  162SOPE    C118115   0.538   4.825  10.968 -0.0481  0.4985 -0.0670
  162SOPE    HA18116   0.617   4.901  10.985 -0.7235  1.5220 -1.3237
  162SOPE    HB18117   0.448   4.855  11.027 -0.1840  1.0720 -0.5619
  162SOPE    C218118   0.504   4.851  10.814 -0.9607 -0.3748  0.2308
  162SOPE    HS18119   0.403   4.806  10.800  0.2608 -2.9074 -1.2097
  162SOPE   O2118120   0.605   4.784  10.732 -0.2309 -0.0923  0.3535
  162SOPE   C2118121   0.565   4.696  10.635  0.0733  0.2455  1.1107
  162SOPE   O2218122   0.453   4.646  10.630 -0.2285 -0.0925  0.2100
  162SOPE   C2218123   0.669   4.677  10.529  0.2622  0.5582  0.3780
  162SOPE   H2R18124   0.770   4.695  10.570  0.4297 -0.9497  0.6739
  162SOPE   H2S18125   0.642   4.746  10.445 -1.2113 -0.2450  0.1634
  162SOPE    C318126   0.500   5.007  10.790  0.2100  0.4387  0.2715
  162SOPE    HX18127   0.600   5.046  10.817  0.1715  1.5358 -1.0707
  162SOPE    HY18128   0.432   5.045  10.870  0.2748 -1.8532  1.4911
  162SOPE   O3118129   0.446   5.045  10.660 -0.0931 -0.2733  0.1111
  162SOPE   C3118130   0.533   5.074  10.561  0.1709  0.0609 -1.0161
  162SOPE   O3218131   0.651   5.062  10.581 -0.0050  0.2334 -0.4285
  162SOPE   C3218132   0.459   5.096  10.429  0.7514 -0.0622  0.5574
  162SOPE   H2X18133   0.495   5.198  10.404  0.1920 -0.5452 -2.6329
  162SOPE   H2Y18134   0.348   5.092  10.439  0.7436  0.0172  0.4977
  162SOPE   C2318135   0.662   4.530  10.473  0.1384  0.0767 -0.3465
  162SOPE   H3R18136   0.559   4.497  10.447  0.1256  0.3093 -0.5889
  162SOPE   H3S18137   0.696   4.453  10.545 -2.0163 -0.8784 -0.2610
  162SOPE   C2418138   0.747   4.515  10.345 -0.0793 -0.1057 -0.6355
  162SOPE   H4R18139   0.823   4.595  10.350  0.5570 -0.6979 -0.6428
  162SOPE   H4S18140   0.794   4.414  10.340  2.1310  0.7957  0.5967
  162SOPE   C2518141   0.655   4.537  10.214 -0.6044  0.6480  0.6218
  162SOPE   H5R18142   0.579   4.457  10.201  1.6245 -1.5204  0.0898
  162SOPE   H5S18143   0.614   4.640  10.215 -0.7077  0.6248 -0.4434
  162SOPE   C2618144   0.751   4.527  10.100  0.5955 -0.3490  0.2620
  162SOPE   H6R18145   0.849   4.572  10.126  0.8000 -0.4978 -0.2477
  162SOPE   H6S18146   0.767   4.419  10.075 -0.6953 -0.3161 -0.7983
  162SOPE   C2718147   0.709   4.603   9.968  0.3239  0.0012 -0.4141
  162SOPE   H7R18148   0.602   4.579   9.951  0.4378 -0.9224  0.1437
  162SOPE   H7S18149   0.723   4.712   9.983 -0.0521  0.5324 -3.2498
  162SOPE   C2818150   0.807   4.582   9.857 -0.1676 -0.1892  0.0984
  162SOPE   H8R18151   0.800   4.664   9.783 -1.2614 -0.5897 -0.2509
  162SOPE   H8S18152   0.903   4.561   9.909 -1.6323 -1.3969  2.4953
  162SOPE   C2918153   0.780   4.452   9.781  0.4500 -0.3244  0.6922
  162SOPE   H9118154   0.763   4.364   9.844 -0.1930  0.0819  1.0955
  162SOPE  C21018155   0.763   4.447   9.645  0.5467 -0.7855 -0.2391
  162SOPE  H10118156   0.733   4.353   9.597 -0.5701  0.0618 -1.2560
  162SOPE  C21118157   0.776   4.556   9.540  0.3005  0.0417 -0.1293
  162SOPE  H11R18158   0.763   4.660   9.577 -2.0161  0.9786 -3.1979
  162SOPE  H11S18159   0.702   4.543   9.459 -1.8241  0.8124  1.5849
  162SOPE  C21218160   0.918   4.563   9.479 -0.6899  0.1213  0.2193
  162SOPE  H12R18161   0.936   4.474   9.415  0.0257 -0.0392  0.6385
  162SOPE  H12S18162   0.986   4.558   9.566  0.5288 -0.9756 -0.7515
  162SOPE  C21318163   0.940   4.703   9.414  0.4110  0.5907  0.3111
  162SOPE  H13R18164   1.049   4.726   9.416  0.2322  1.5210  0.0141
  162SOPE  H13S18165   0.899   4.791   9.468  0.2302 -0.0524  1.2270
  162SOPE  C21418166   0.897   4.705   9.267  0.7022  0.5732 -0.1170
  162SOPE  H14R18167   0.789   4.722   9.251 -0.2001 -1.3826  2.9844
  162SOPE  H14S18168   0.906   4.604   9.221 -1.6382 -0.0879  0.7217
  162SOPE  C21518169   0.980   4.795   9.188 -0.3784 -0.4739 -0.1824
  162SOPE  H15R18170   1.080   4.755   9.158  0.2461  0.1830  0.9548
  162SOPE  H15S18171   1.002   4.883   9.252 -2.1097 -0.8086  0.9151
  162SOPE  C21618172   0.908   4.842   9.056  0.1904  1.1224 -0.2660
  162SOPE  H16R18173   0.961   4.928   9.009 -1.8489  2.9969  0.6834
  162SOPE  H16S18174   0.813   4.887   9.090  1.1527  1.4349  2.2291
  162SOPE  C21718175   0.871   4.729   8.960 -0.1228 -0.1660 -0.5987
  162SOPE  H17R18176   0.818   4.645   9.010  0.6943 -0.5688 -0.3748
  162SOPE  H17S18177   0.962   4.692   8.907 -0.5350  0.6726 -1.9254
  162SOPE  C21818178   0.768   4.772   8.850  0.1695 -0.4885 -0.2969
  162SOPE  H18R18179   0.674   4.819   8.885  0.5428 -2.7415  4.5078
  162SOPE  H18S18180   0.735   4.679   8.799 -0.6397 -0.2814 -0.1599
  162SOPE  H18T18181   0.821   4.850   8.791 -3.7431  2.0664 -0.7416
  162SOPE   C3318182   0.497   4.992  10.319 -0.0174 -0.0920 -1.0313
  162SOPE   H3X18183   0.465   4.887  10.339  1.1415 -0.0845  1.2743
  162SOPE   H3Y18184   0.605   5.003  10.297  0.4885 -0.1732  1.1390
  162SOPE   C3418185   0.429   5.027  10.186  0.0328  0.4754 -0.1078
  162SOPE   H4X18186   0.445   5.134  10.158 -1.6031  0.9123  0.5332
  162SOPE   H4Y18187   0.320   5.012  10.200  0.4105 -1.7696  0.8860
  162SOPE   C3518188   0.509   4.963  10.072  0.3239  0.8668 -0.2070
  162SOPE   H5X18189   0.508   4.852  10.071  1.8047  0.8391 -1.2871
  162SOPE   H5Y18190   0.617   4.985  10.084  1.3892 -3.3940 -0.4834
  162SOPE   C3618191   0.462   5.014   9.933 -0.0403  0.4177 -0.4357
  162SOPE   H6X18192   0.475   5.124   9.925  2.6785  0.2170  0.2588
  162SOPE   H6Y18193   0.355   4.987   9.925 -0.1506 -0.3043  2.3689
  162SOPE   C3718194   0.537   4.942   9.825  0.3846 -0.4294 -0.2297
  162SOPE   H7X18195   0.526   4.833   9.842 -0.7187 -0.1850  0.7224
  162SOPE   H7Y18196   0.644   4.969   9.834  0.1158  0.8848 -0.7911
  162SOPE   C3818197   0.498   4.986   9.687  0.1539  0.5353  0.1595
  162SOPE   H8X18198   0.514   5.096   9.677 -0.8256  0.8760  1.8637
  162SOPE   H8Y18199   0.388   4.976   9.672  0.3410  0.3469 -1.2114
  162SOPE   C3918200   0.564   4.907   9.569 -0.1416 -0.5082  0.0132
  162SOPE   H9X18201   0.554   4.797   9.578  0.5682 -0.7534 -1.8443
  162SOPE   H9Y18202   0.672   4.931   9.587 -0.1057 -0.0898 -0.7325
  162SOPE  C31018203   0.529   4.957   9.426 -0.4425  0.1740  0.2373
  162SOPE  H10X18204   0.433   4.913   9.390  0.0865 -1.7329  1.0630
  162SOPE  H10Y18205   0.613   4.925   9.360  0.3933  0.1130  1.3062
  162SOPE  C31118206   0.527   5.108   9.392 -0.0853 -0.9724  0.9915
  162SOPE  H11X18207   0.623   5.156   9.420 -0.0166 -1.1623  1.0881
  162SOPE  H11Y18208   0.443   5.154   9.448 -0.8601  0.2254 -1.0567
  162SOPE  C31218209   0.509   5.127   9.235  0.4628 -0.0525  0.6580
  162SOPE  H12X18210   0.605   5.102   9.185  0.3741  1.2071 -0.1680
  162SOPE  H12Y18211   0.484   5.229   9.200 -0.0393 -0.1451  0.7364
  162SOPE  C31318212   0.383   5.048   9.181 -0.4158 -0.0213 -0.0174
  162SOPE  H13X18213   0.298   5.060   9.252 -0.0321 -0.5442  0.5291
  162SOPE  H13Y18214   0.401   4.939   9.170 -0.1561  0.0414 -0.2118
  162SOPE  C31418215   0.328   5.100   9.045 -0.3017  0.3461 -0.4055
  162SOPE  H14X18216   0.401   5.069   8.968  1.5812  1.8739  0.6766
  162SOPE  H14Y18217   0.320   5.211   9.044  2.1611  0.5937  0.8935
  162SOPE  C31518218   0.196   5.038   9.011 -0.4991  0.7280 -0.2660
  162SOPE  H15X18219   0.120   5.076   9.083  0.5982 -0.1245  1.4128
  162SOPE  H15Y18220   0.196   4.927   9.017 -1.8762  0.6060 -1.8744
  162SOPE  C31618221   0.141   5.067   8.873 -0.4408  0.6438 -0.1878
  162SOPE  H16X18222   0.116   5.174   8.858  1.8370  1.5305  1.5768
  162SOPE  H16Y18223   0.046   5.010   8.876  0.7191 -1.3565  0.3623
  162SOPE  C31718224   0.223   5.002   8.760  0.1365  0.0145 -0.1820
  162SOPE  H17X18225   0.321   5.050   8.741 -0.8318  1.3630 -2.0609
  162SOPE  H17Y18226   0.173   5.004   8.661  2.1443  1.2957 -1.2436
  162SOPE  C31818227   0.254   4.850   8.791 -0.6562  0.2672 -0.3293
  162SOPE  H18X18228   0.313   4.847   8.885 -1.2542  0.9849  0.0823
  162SOPE  H18Y18229   0.319   4.813   8.709  2.1945  3.3947  0.2852
  162SOPE  H18Z18230   0.160   4.791   8.800 -0.1530 -0.4831  0.1533
  163SOPE     N18231   1.117   1.761  10.650  0.1812  0.0893 -0.0313
  163SOPE   HN118232   1.133   1.841  10.585 -0.5285 -0.4767 -0.9183
  163SOPE   HN218233   1.183   1.682  10.631 -2.4845 -1.8988 -1.6079
  163SOPE   HN318234   1.022   1.721  10.639 -0.7462  2.0886  0.2044
  163SOPE   C1218235   1.115   1.809  10.797  0.3508 -0.1582  0.2522
  163SOPE  H12A18236   1.208   1.869  10.811  0.1623 -0.0821  1.2651
  163SOPE  H12B18237   1.121   1.718  10.861 -3.0573 -0.8647 -0.2448
  163SOPE   C1118238   0.978   1.873  10.819  0.2764  0.0718 -0.2164
  163SOPE  H11A18239   0.959   1.952  10.743  0.4683 -0.6419 -1.0287
  163SOPE  H11B18240   0.981   1.915  10.922  2.6580 -0.1440 -0.1419
  163SOPE     P18241   0.728   1.790  10.812 -0.3906 -0.1293  0.1461
  163SOPE   O1318242   0.678   1.807  10.951  0.2763  0.3990  0.0591
  163SOPE   O1418243   0.681   1.676  10.741  0.5526 -0.3572 -0.4942
  163SOPE   O1218244   0.887   1.766  10.804  0.5416 -0.5008 -0.2880
  163SOPE   O1118245   0.708   1.922  10.724  0.4378  0.3478  0.1987
  163SOPE    C118246   0.608   1.936  10.626 -0.1035  0.0697  0.5269
  163SOPE    HA18247   0.585   2.044  10.610 -2.1156 -0.6638 -2.2549
  163SOPE    HB18248   0.522   1.871  10.651 -0.7970  0.7766  0.0023
  163SOPE    C218249   0.653   1.885  10.485  0.7642  0.2197  0.4083
  163SOPE    HS18250   0.703   1.787  10.503 -1.4549 -0.5961  2.7154
  163SOPE   O2118251   0.738   1.984  10.415 -0.3633 -0.1848 -0.0167
  163SOPE   C2118252   0.866   1.952  10.419 -0.4787 -0.6202 -0.4416
  163SOPE   O2218253   0.911   1.848  10.466 -0.0521 -0.4968  0.6085
  163SOPE   C2218254   0.947   2.070  10.366 -0.4092 -0.1703  1.2825
  163SOPE   H2R18255   1.056   2.061  10.387  0.2972 -0.1454 -1.8913
  163SOPE   H2S18256   0.909   2.173  10.384  0.3828  1.0285 -2.7645
  163SOPE    C318257   0.536   1.863  10.389 -0.3047  0.1295 -0.1628
  163SOPE    HX18258   0.487   1.959  10.362 -1.4965  0.1348  1.8557
  163SOPE    HY18259   0.471   1.799  10.452  2.4486 -2.1975  0.5413
  163SOPE   O3118260   0.574   1.782  10.274  0.1411  0.0865  0.4784
  163SOPE   C3118261   0.467   1.744  10.193 -0.1074 -0.5758 -0.5416
  163SOPE   O3218262   0.355   1.791  10.208 -0.5420 -0.0915 -0.0027
  163SOPE   C3218263   0.508   1.634  10.093  0.3545 -0.0966 -0.0158
  163SOPE   H2X18264   0.435   1.551  10.103  1.1326 -0.9286 -0.9871
  163SOPE   H2Y18265   0.610   1.597  10.116 -0.1422 -0.3898  1.8785
  163SOPE   C2318266   0.944   2.064  10.207  0.1509 -0.0371 -0.4054
  163SOPE   H3R18267   0.840   2.062  10.168  0.1568  0.3592 -0.4438
  163SOPE   H3S18268   0.982   1.961  10.190  0.7997 -0.1496  1.4450
  163SOPE   C2418269   1.036   2.169  10.147  0.6708  0.4956  0.6219
  163SOPE   H4R18270   0.985   2.266  10.168  0.9063  0.6153  0.6363
  163SOPE   H4S18271   1.131   2.161  10.204 -0.2897 -0.9992  2.1241
  163SOPE   C2518272   1.054   2.139   9.991 -0.5301  0.1239 -0.1229
  163SOPE   H5R18273   1.124   2.211   9.943  1.2777 -2.5225 -1.7411
  163SOPE   H5S18274   1.108   2.043   9.996 -0.0318  0.4246  0.4493
  163SOPE   C2618275   0.916   2.116   9.920 -0.2781 -0.1976 -0.6495
  163SOPE   H6R18276   0.867   2.018   9.941 -0.9675  0.5413  1.3318
  163SOPE   H6S18277   0.856   2.205   9.946  1.3776  0.1898  2.1832
  163SOPE   C2718278   0.928   2.125   9.766  0.2771  0.0732 -0.1544
  163SOPE   H7R18279   0.830   2.129   9.715  0.7736  0.5995 -1.1048
  163SOPE   H7S18280   0.984   2.215   9.730  0.5238 -0.7247 -1.8734
  163SOPE   C2818281   1.002   2.006   9.704  0.5742 -0.0577 -0.6937
  163SOPE   H8R18282   1.087   1.980   9.771 -0.4262 -1.2579  0.1684
  163SOPE   H8S18283   0.927   1.924   9.709  0.3300  0.1700 -0.6017
  163SOPE   C2918284   1.040   2.028   9.565 -0.3647 -0.1258  0.1481
  163SOPE   H9118285   0.971   2.090   9.505  0.4684  0.5082 -0.1765
  163SOPE  C21018286   1.150   1.988   9.506 -0.5328 -0.1119  0.4498
  163SOPE  H10118287   1.165   2.010   9.399 -0.3732  0.0887  0.5132
  163SOPE  C21118288   1.249   1.899   9.577 -0.1438  0.5740  0.0022
  163SOPE  H11R18289   1.209   1.851   9.669 -0.7866  4.0351  1.7041
  163SOPE  H11S18290   1.326   1.971   9.612 -1.8574  2.4308  0.1173
  163SOPE  C21218291   1.319   1.797   9.490  0.5616 -0.0393 -0.0023
  163SOPE  H12R18292   1.393   1.750   9.558 -0.2045  0.5534  1.2783
  163SOPE  H12S18293   1.378   1.854   9.414  2.7777 -1.9242  0.2131
  163SOPE  C21318294   1.237   1.694   9.418  0.0189 -0.1731 -0.5592
  163SOPE  H13R18295   1.181   1.743   9.336 -0.6968 -1.8986 -1.1386
  163SOPE  H13S18296   1.169   1.642   9.488  0.1299  0.5885  0.1377
  163SOPE  C21418297   1.308   1.579   9.348 -0.0732 -0.5236 -0.2875
  163SOPE  H14R18298   1.363   1.526   9.429  1.1296  1.4574  0.2687
  163SOPE  H14S18299   1.384   1.614   9.274  0.1617  0.7302  0.5102
  163SOPE  C21518300   1.228   1.475   9.269 -0.1602  0.8277  0.2334
  163SOPE  H15R18301   1.152   1.455   9.348  0.0800  1.0282  0.5133
  163SOPE  H15S18302   1.295   1.386   9.263 -1.9616 -0.5303 -1.1522
  163SOPE  C21618303   1.170   1.528   9.143 -0.1320  0.3642  0.4257
  163SOPE  H16R18304   1.248   1.554   9.068  0.9456 -2.1774  0.5858
  163SOPE  H16S18305   1.114   1.622   9.167  0.0195  0.4859  0.3015
  163SOPE  C21718306   1.085   1.430   9.068 -0.0681 -0.2319 -0.4432
  163SOPE  H17R18307   1.023   1.482   8.992 -0.8005 -2.0798 -1.1800
  163SOPE  H17S18308   1.006   1.386   9.132 -2.3082 -0.4610 -3.1616
  163SOPE  C21818309   1.166   1.325   8.990  0.1694 -0.3954 -0.2760
  163SOPE  H18R18310   1.235   1.369   8.915  1.3839 -0.3398  0.8278
  163SOPE  H18S18311   1.106   1.245   8.942  0.6453 -1.5898  1.0655
  163SOPE  H18T18312   1.233   1.274   9.062 -0.3787 -1.9565 -0.8317
  163SOPE   C3318313   0.491   1.679   9.944  1.0064  0.5682 -0.6670
  163SOPE   H3X18314   0.384   1.707   9.935  0.5114 -0.2211  1.9231
  163SOPE   H3Y18315   0.510   1.588   9.883 -2.8890 -0.4880 -0.5279
  163SOPE   C3418316   0.580   1.795   9.903  0.1906  1.1967 -0.1167
  163SOPE   H4X18317   0.684   1.758   9.887 -1.0935 -2.4552 -0.9680
  163SOPE   H4Y18318   0.579   1.865   9.990 -0.1059  1.2926 -0.1979
  163SOPE   C3518319   0.535   1.869   9.779 -0.4026 -0.0285  0.1967
  163SOPE   H5X18320   0.584   1.969   9.778 -0.8427  0.2662 -3.3817
  163SOPE   H5Y18321   0.425   1.882   9.780 -0.4625 -0.1298 -1.5434
  163SOPE   C3618322   0.573   1.791   9.655  0.1591  0.1944  0.2292
  163SOPE   H6X18323   0.478   1.745   9.620  0.2794  0.3573 -0.3359
  163SOPE   H6Y18324   0.647   1.713   9.683 -0.8779 -0.5877  0.8817
  163SOPE   C3718325   0.636   1.873   9.542 -0.0396  0.0550 -0.4935
  163SOPE   H7X18326   0.726   1.924   9.582  0.8049 -1.3885 -0.4867
  163SOPE   H7Y18327   0.570   1.959   9.519 -1.1942 -0.4740  0.7271
  163SOPE   C3818328   0.708   1.798   9.427  0.7797  0.4822 -0.2557
  163SOPE   H8X18329   0.766   1.713   9.468 -0.0240  0.5274  1.0233
  163SOPE   H8Y18330   0.782   1.871   9.387  1.2964 -0.5017 -1.1435
  163SOPE   C3918331   0.609   1.744   9.317  0.0532  0.2359 -1.3384
  163SOPE   H9X18332   0.552   1.832   9.281  1.7849  2.1349  0.2588
  163SOPE   H9Y18333   0.539   1.675   9.370 -0.3460  0.6299 -1.3509
  163SOPE  C31018334   0.687   1.675   9.202 -0.0307 -0.2486 -0.5017
  163SOPE  H10X18335   0.708   1.568   9.220 -1.3103 -0.6482 -1.2370
  163SOPE  H10Y18336   0.784   1.726   9.185 -0.2682 -0.2956 -2.2039
  163SOPE  C31118337   0.616   1.697   9.072 -0.0682 -0.9952 -0.6782
  163SOPE  H11X18338   0.603   1.806   9.053  0.8922 -0.6113  0.6811
  163SOPE  H11Y18339   0.513   1.655   9.074 -0.1511 -0.9444 -2.3877
  163SOPE  C31218340   0.694   1.639   8.956 -0.2431  0.4259 -0.5037
  163SOPE  H12X18341   0.699   1.529   8.970  3.5908  0.4854 -0.3320
  163SOPE  H12Y18342   0.798   1.677   8.943 -0.2574  1.6909  2.4131
  163SOPE  C31318343   0.615   1.662   8.828  0.4768 -0.6745  1.3049
  163SOPE  H13X18344   0.632   1.767   8.794 -1.6657 -0.5948  0.2848
  163SOPE  H13Y18345   0.505   1.665   8.841  0.3487  0.3140  0.2149
  163SOPE  C31418346   0.650   1.558   8.717  0.2442 -0.3161  0.7814
  163SOPE  H14X18347   0.575   1.580   8.638  1.5326  0.4469 -0.2669
  163SOPE  H14Y18348   0.627   1.453   8.746 -0.9770  0.1175  1.4690
  163SOPE  C31518349   0.788   1.577   8.648 -0.0766 -0.9509  0.7040
  163SOPE  H15X18350   0.804   1.685   8.630  1.9551 -1.5084 -1.1989
  163SOPE  H15Y18351   0.787   1.533   8.546  0.0710 -1.4221  0.9034
  163SOPE  C31618352   0.907   1.508   8.720  0.1697 -0.4351 -0.4145
  163SOPE  H16X18353   0.866   1.414   8.763 -0.9944  1.0967  2.0692
  163SOPE  H16Y18354   0.940   1.578   8.800  1.6034  0.0662 -1.4100
  163SOPE  C31718355   1.027   1.476   8.633 -0.2094  1.0843  0.5913
  163SOPE  H17X18356   1.000   1.438   8.532 -1.9969  0.4970  1.2465
  163SOPE  H17Y18357   1.082   1.396   8.685 -1.1934 -0.2405 -0.3234
  163SOPE  C31818358   1.125   1.591   8.613 -0.8747 -0.2294 -0.1645
  163SOPE  H18X18359   1.096   1.668   8.538  1.5687  1.5997  0.6630
  163SOPE  H18Y18360   1.218   1.551   8.566 -1.0902  1.5975 -2.3205
  163SOPE  H18Z18361   1.136   1.649   8.707  0.7437 -0.0799 -0.4216
  164SOPE     N18362   5.452   2.597  10.893  0.4879 -0.2898 -0.4945
  164SOPE   HN118363   5.505   2.538  10.826  1.7818 -0.3817  0.5551
  164SOPE   HN218364   5.351   2.594  10.869  0.7394 -0.2964 -1.5811
  164SOPE   HN318365   5.488   2.693  10.878  2.3444 -1.0678 -1.4264
  164SOPE   C1218366   5.465   2.544  11.036  0.4776  0.1047 -0.2555
  164SOPE  H12A18367   5.429   2.622  11.106  1.5401 -0.4613  0.9738
  164SOPE  H12B18368   5.573   2.519  11.048  0.5149 -0.8236 -2.1458
  164SOPE   C1118369   5.377   2.417  11.052 -0.1108 -0.4245  0.5854
  164SOPE  H11A18370   5.272   2.453  11.060  0.5398  1.6085  0.7923
  164SOPE  H11B18371   5.407   2.371  11.149 -2.3225 -1.6100  0.7586
  164SOPE     P18372   5.301   2.257  10.859 -0.3815 -0.4255  0.1469
  164SOPE   O1318373   5.167   2.255  10.934 -0.7235 -0.1661  1.2380
  164SOPE   O1418374   5.344   2.129  10.798  0.1499  0.5744  0.5673
  164SOPE   O1218375   5.412   2.320  10.947 -0.4056 -0.8075 -0.0936
  164SOPE   O1118376   5.289   2.370  10.744 -0.5994  0.0725 -0.0512
  164SOPE    C118377   5.187   2.368  10.641 -0.3413  0.4268 -0.5625
  164SOPE    HA18378   5.100   2.427  10.679 -2.7996 -3.6114  0.6671
  164SOPE    HB18379   5.155   2.265  10.616 -3.0470  0.4505  2.2208
  164SOPE    C218380   5.243   2.446  10.521  0.1197 -0.3560 -0.1533
  164SOPE    HS18381   5.280   2.545  10.555 -0.5441  0.3664 -1.4478
  164SOPE   O2118382   5.150   2.443  10.415 -0.1249 -0.0370 -0.2065
  164SOPE   C2118383   5.140   2.555  10.354  0.0790  0.2396  0.0072
  164SOPE   O2218384   5.215   2.654  10.359  0.7570 -0.0633  0.1069
  164SOPE   C2218385   5.018   2.546  10.256 -0.0700  0.0485 -0.5994
  164SOPE   H2R18386   4.935   2.600  10.306 -0.2335  0.8736 -1.7347
  164SOPE   H2S18387   4.984   2.440  10.252  1.0732 -0.4325  1.3928
  164SOPE    C318388   5.374   2.373  10.468 -0.3677 -0.7138 -0.1402
  164SOPE    HX18389   5.345   2.268  10.449 -0.0635 -1.3611  2.5219
  164SOPE    HY18390   5.450   2.378  10.549  1.1749  0.0737 -1.5789
  164SOPE   O3118391   5.414   2.431  10.346  0.3720 -0.4975 -0.7826
  164SOPE   C3118392   5.516   2.519  10.347  0.1341  0.6703  0.1330
  164SOPE   O3218393   5.568   2.568  10.445  0.0651 -0.4536  0.5535
  164SOPE   C3218394   5.559   2.547  10.205  0.3734 -0.6963 -0.1700
  164SOPE   H2X18395   5.636   2.477  10.166  1.9673  0.2774  1.0954
  164SOPE   H2Y18396   5.620   2.640  10.210  1.0067 -1.0926 -0.3415
  164SOPE   C2318397   5.051   2.614  10.126  0.0305  0.1604  0.7836
  164SOPE   H3R18398   5.139   2.562  10.084 -1.3083 -0.7955 -0.9718
  164SOPE   H3S18399   5.077   2.720  10.146  0.0116  0.2867  0.1515
  164SOPE   C2418400   4.929   2.611  10.031  0.0934  0.1014  0.4541
  164SOPE   H4R18401   4.923   2.508   9.990  0.9758 -0.3663  1.4761
  164SOPE   H4S18402   4.843   2.638  10.096  0.0266  1.8527 -0.3057
  164SOPE   C2518403   4.945   2.711   9.922  0.0277  0.8411 -0.0935
  164SOPE   H5R18404   4.944   2.815   9.960 -3.4549  1.5187 -1.6893
  164SOPE   H5S18405   5.039   2.686   9.868 -0.5113  0.5953 -0.9437
  164SOPE   C2618406   4.825   2.699   9.816 -0.4416  0.1408  0.2195
  164SOPE   H6R18407   4.839   2.596   9.777 -0.4670  1.1516 -2.6500
  164SOPE   H6S18408   4.734   2.712   9.879 -1.5756 -2.2345 -0.8186
  164SOPE   C2718409   4.841   2.789   9.694  0.4260 -0.8712  0.1034
  164SOPE   H7R18410   4.803   2.884   9.736  0.7688 -0.4799 -0.4620
  164SOPE   H7S18411   4.947   2.798   9.662  1.3020  0.1841  3.0138
  164SOPE   C2818412   4.737   2.758   9.587  0.6192 -0.1406 -0.4616
  164SOPE   H8R18413   4.639   2.741   9.636  1.2808  3.4394  2.6131
  164SOPE   H8S18414   4.717   2.852   9.530 -0.7115 -0.6320 -0.8455
  164SOPE   C2918415   4.788   2.646   9.511 -0.2895  0.4859  0.2594
  164SOPE   H9118416   4.789   2.553   9.570  0.2992  1.7926  2.4359
  164SOPE  C21018417   4.829   2.648   9.384 -0.4219  0.2567  0.2798
  164SOPE  H10118418   4.860   2.557   9.331 -2.5228 -0.4187  0.1272
  164SOPE  C21118419   4.834   2.760   9.291 -0.0110  0.3464 -0.1040
  164SOPE  H11R18420   4.935   2.768   9.244  0.4677  1.3841  1.0270
  164SOPE  H11S18421   4.809   2.855   9.343 -0.1114  1.3721 -1.9501
  164SOPE  C21218422   4.733   2.755   9.177  0.4888 -0.2987  0.5754
  164SOPE  H12R18423   4.632   2.781   9.216  0.3648  1.7960 -0.9949
  164SOPE  H12S18424   4.728   2.660   9.119 -0.7634 -0.2747  0.6261
  164SOPE  C21318425   4.759   2.877   9.085  0.6761  0.2792  0.6678
  164SOPE  H13R18426   4.841   2.853   9.015 -0.6681 -1.2710 -0.4345
  164SOPE  H13S18427   4.787   2.967   9.144  2.8714  0.0392  0.0695
  164SOPE  C21418428   4.626   2.901   9.004 -0.2359 -0.7300 -0.3282
  164SOPE  H14R18429   4.656   2.996   8.954  1.0142 -0.7460  0.3607
  164SOPE  H14S18430   4.550   2.929   9.080  1.7863 -0.1684  1.5756
  164SOPE  C21518431   4.590   2.789   8.910 -0.1314  0.4254 -0.7217
  164SOPE  H15R18432   4.548   2.702   8.965 -1.8115  0.1753 -2.2995
  164SOPE  H15S18433   4.680   2.758   8.852  1.1605  0.3732  1.2042
  164SOPE  C21618434   4.484   2.830   8.804  0.1170  1.0208 -0.8244
  164SOPE  H16R18435   4.533   2.918   8.757  0.2647  0.7518 -1.1801
  164SOPE  H16S18436   4.386   2.853   8.851  0.5190 -1.7987  1.7167
  164SOPE  C21718437   4.459   2.722   8.697 -0.3367  0.5154 -0.7926
  164SOPE  H17R18438   4.402   2.638   8.740 -0.4796  1.4465  0.9035
  164SOPE  H17S18439   4.557   2.686   8.659 -0.9421 -1.9808 -0.1644
  164SOPE  C21818440   4.384   2.775   8.572 -0.4898 -0.2216 -0.0352
  164SOPE  H18R18441   4.385   2.694   8.496  1.2653 -1.2144  0.9613
  164SOPE  H18S18442   4.418   2.872   8.532  0.3682  0.3836  2.0094
  164SOPE  H18T18443   4.280   2.793   8.608 -1.1445 -0.5184 -1.6939
  164SOPE   C3318444   5.449   2.569  10.105 -0.4414  0.2198  0.7352
  164SOPE   H3X18445   5.383   2.654  10.137 -0.4027  0.1027  1.1362
  164SOPE   H3Y18446   5.382   2.480  10.101 -0.5095  0.2600  0.9479
  164SOPE   C3418447   5.501   2.602   9.963  0.4270  0.4370 -0.0715
  164SOPE   H4X18448   5.549   2.512   9.918 -0.5569 -0.7293  1.1097
  164SOPE   H4Y18449   5.578   2.681   9.972 -0.1366  1.2136 -1.7201
  164SOPE   C3518450   5.389   2.653   9.871  0.3272 -0.1120 -0.3821
  164SOPE   H5X18451   5.341   2.736   9.928  2.9496  1.0533  0.2656
  164SOPE   H5Y18452   5.326   2.562   9.873  0.0485 -0.0032  3.1836
  164SOPE   C3618453   5.435   2.681   9.730 -0.2292 -0.2559  0.5633
  164SOPE   H6X18454   5.480   2.585   9.696 -0.6594  0.8375 -3.6644
  164SOPE   H6Y18455   5.510   2.763   9.735 -0.1014 -0.1769 -1.6059
  164SOPE   C3718456   5.317   2.707   9.641 -0.1145 -0.3187  0.2766
  164SOPE   H7X18457   5.270   2.806   9.660 -0.1694 -0.5581  1.4910
  164SOPE   H7Y18458   5.243   2.624   9.645  1.7144 -2.0118  0.5562
  164SOPE   C3818459   5.374   2.734   9.496 -0.0660  0.1711  0.5304
  164SOPE   H8X18460   5.442   2.822   9.497  1.4602 -0.9741  1.0712
  164SOPE   H8Y18461   5.298   2.761   9.420  1.7094  0.0431 -1.3648
  164SOPE   C3918462   5.463   2.622   9.436 -0.4084  0.5478 -0.2410
  164SOPE   H9X18463   5.412   2.523   9.434  0.2219  0.2162  0.1178
  164SOPE   H9Y18464   5.559   2.611   9.490  0.2490  2.5186 -0.9132
  164SOPE  C31018465   5.491   2.641   9.282 -0.0183 -0.3307  0.5917
  164SOPE  H10X18466   5.573   2.574   9.249  0.0282 -1.1034  2.1982
  164SOPE  H10Y18467   5.515   2.748   9.264  0.5022  0.0657  3.2295
  164SOPE  C31118468   5.373   2.617   9.185 -0.4304  0.1421  0.6161
  164SOPE  H11X18469   5.288   2.682   9.215 -1.3366 -0.5473 -0.3797
  164SOPE  H11Y18470   5.342   2.512   9.206  0.2706  0.4373  3.5711
  164SOPE  C31218471   5.423   2.644   9.044 -0.2574 -0.0890 -0.1975
  164SOPE  H12X18472   5.505   2.577   9.012 -0.8326 -1.3555  0.8866
  164SOPE  H12Y18473   5.470   2.744   9.059 -3.1347  1.0101  2.5981
  164SOPE  C31318474   5.312   2.665   8.938 -0.1222 -0.0014 -0.0015
  164SOPE  H13X18475   5.257   2.759   8.960  2.3364  1.4142  0.3883
  164SOPE  H13Y18476   5.248   2.574   8.932 -1.2768  0.7655  0.3014
  164SOPE  C31418477   5.369   2.682   8.796 -0.1299 -0.3527  0.6016
  164SOPE  H14X18478   5.295   2.655   8.718 -0.9443  0.7882  0.9471
  164SOPE  H14Y18479   5.459   2.619   8.785 -0.5769 -1.1897  1.5528
  164SOPE  C31518480   5.411   2.837   8.766  0.3841  0.4102  0.2718
  164SOPE  H15X18481   5.470   2.847   8.672 -1.4702 -1.6937 -1.2215
  164SOPE  H15Y18482   5.466   2.875   8.854  1.8577  0.8946 -0.8040
  164SOPE  C31618483   5.290   2.924   8.733 -0.1006 -0.3297  0.6227
  164SOPE  H16X18484   5.207   2.917   8.807  0.6341 -0.0790  1.4904
  164SOPE  H16Y18485   5.256   2.886   8.634  0.9247  2.3449 -0.8397
  164SOPE  C31718486   5.332   3.080   8.720 -0.0419  0.7379  0.1478
  164SOPE  H17X18487   5.401   3.093   8.806  1.7967  1.8462 -1.4113
  164SOPE  H17Y18488   5.238   3.138   8.732 -0.4160  0.1621  0.0315
  164SOPE  C31818489   5.419   3.110   8.606  0.3314 -0.7356 -0.2151
  164SOPE  H18X18490   5.388   3.042   8.524 -1.6770 -0.8359  0.5630
  164SOPE  H18Y18491   5.521   3.076   8.634 -0.3956 -0.8351  2.6474
  164SOPE  H18Z18492   5.424   3.218   8.582 -1.8095 -0.6533 -0.5047
  165SOPE     N18493   1.179   1.125  11.093  0.4400  0.2885  0.2170
  165SOPE   HN118494   1.230   1.139  11.004  0.6748  5.1243  0.8299
  165SOPE   HN218495   1.121   1.039  11.088 -1.3105  1.5035 -2.6984
  165SOPE   HN318496   1.117   1.207  11.102 -1.7865 -1.4146  1.4889
  165SOPE   C1218497   1.287   1.121  11.199  0.5207  0.2998 -0.0643
  165SOPE  H12A18498   1.240   1.103  11.298  1.2610  0.3250  0.2948
  165SOPE  H12B18499   1.343   1.217  11.197  0.2356  0.4858  0.7950
  165SOPE   C1118500   1.378   0.999  11.176 -0.0141 -0.3383  0.3091
  165SOPE  H11A18501   1.319   0.905  11.177  0.9063 -0.9809 -1.5055
  165SOPE  H11B18502   1.438   1.007  11.269 -1.3189  2.6738  1.0103
  165SOPE     P18503   1.592   0.969  11.035 -0.1958 -0.8194 -0.1907
  165SOPE   O1318504   1.620   0.836  11.088  0.9454  0.4876  0.3257
  165SOPE   O1418505   1.661   1.080  11.109 -0.4910 -0.0958  0.1228
  165SOPE   O1218506   1.438   0.993  11.043 -0.3483 -0.3076 -0.0199
  165SOPE   O1118507   1.627   0.964  10.879 -0.0232 -0.0837  0.4999
  165SOPE    C118508   1.568   1.044  10.778 -0.0417 -0.4662  0.1207
  165SOPE    HA18509   1.504   1.124  10.821 -0.5209 -0.6429 -0.2554
  165SOPE    HB18510   1.501   0.981  10.716  0.0073 -0.4348  0.0370
  165SOPE    C218511   1.679   1.096  10.682 -0.6157 -0.2027  0.1879
  165SOPE    HS18512   1.740   1.173  10.733 -2.1156  1.3382 -0.2508
  165SOPE   O2118513   1.614   1.140  10.560 -0.5831  0.3190 -0.3246
  165SOPE   C2118514   1.594   1.274  10.558  0.7052 -0.5966  0.8050
  165SOPE   O2218515   1.632   1.353  10.642 -0.3533  0.1184  0.2892
  165SOPE   C2218516   1.518   1.303  10.425 -0.0557  0.3288 -0.3676
  165SOPE   H2R18517   1.444   1.380  10.453  1.3425  1.1856  1.1755
  165SOPE   H2S18518   1.472   1.206  10.397 -1.1561  0.0348  2.2588
  165SOPE    C318519   1.782   0.982  10.645 -0.0578  0.6582  0.0462
  165SOPE    HX18520   1.725   0.906  10.588  2.8373 -0.5624 -1.4214
  165SOPE    HY18521   1.813   0.935  10.741 -0.2453  0.0140 -0.2027
  165SOPE   O3118522   1.901   1.022  10.579 -0.1128 -0.2515 -0.7371
  165SOPE   C3118523   1.924   1.002  10.453  0.8227  0.5455 -0.2458
  165SOPE   O3218524   1.855   0.926  10.386  0.1309  0.4412  0.2810
  165SOPE   C3218525   2.050   1.073  10.405  0.2028 -0.0048  0.7080
  165SOPE   H2X18526   2.122   1.053  10.488  1.0458 -0.3660 -0.0868
  165SOPE   H2Y18527   2.040   1.182  10.384 -0.1936  0.2595  2.1551
  165SOPE   C2318528   1.611   1.360  10.311  0.7951  0.0521 -0.4563
  165SOPE   H3R18529   1.664   1.447  10.354  1.6723 -0.0209 -1.3484
  165SOPE   H3S18530   1.541   1.397  10.234  0.4465  0.5925  0.1105
  165SOPE   C2418531   1.706   1.257  10.243 -0.0495  0.0643  0.1737
  165SOPE   H4R18532   1.776   1.233  10.326  0.5024 -0.6271 -0.4706
  165SOPE   H4S18533   1.649   1.165  10.216  0.0357  0.6569 -2.3153
  165SOPE   C2518534   1.774   1.311  10.116 -0.1297 -0.4472 -1.0593
  165SOPE   H5R18535   1.695   1.313  10.037 -2.3979 -0.0759  1.0885
  165SOPE   H5S18536   1.811   1.415  10.117  1.8949 -1.1352 -1.1151
  165SOPE   C2618537   1.901   1.236  10.078 -0.1739 -0.2041 -0.5824
  165SOPE   H6R18538   1.973   1.240  10.163  0.6807 -0.9607 -1.2486
  165SOPE   H6S18539   1.856   1.134  10.074 -1.1469  0.1253  0.9096
  165SOPE   C2718540   1.959   1.262   9.935  0.2326  0.3049  0.1898
  165SOPE   H7R18541   1.871   1.273   9.869  0.3535 -1.5863 -0.3351
  165SOPE   H7S18542   2.007   1.363   9.934 -0.7708  0.8064 -1.8391
  165SOPE   C2818543   2.046   1.154   9.871  0.1483 -0.2717 -0.1495
  165SOPE   H8R18544   2.103   1.116   9.959  0.1102  0.6943  0.3062
  165SOPE   H8S18545   1.983   1.070   9.835 -2.9245  1.3056  1.1449
  165SOPE   C2918546   2.142   1.206   9.768  0.4337  0.6286 -0.0521
  165SOPE   H9118547   2.186   1.304   9.794  1.5350 -0.1146  0.9859
  165SOPE  C21018548   2.151   1.156   9.648  0.7583 -0.0866 -0.1778
  165SOPE  H10118549   2.218   1.203   9.575  0.0966 -2.5164 -2.5089
  165SOPE  C21118550   2.075   1.042   9.578 -0.0803  0.0304 -0.3815
  165SOPE  H11R18551   1.967   1.037   9.604 -0.0609 -2.9796 -0.4993
  165SOPE  H11S18552   2.126   0.944   9.592  2.0401  1.0702 -0.4043
  165SOPE  C21218553   2.092   1.075   9.426 -0.3662 -0.0680 -0.2759
  165SOPE  H12R18554   2.191   1.116   9.397  1.0281 -2.6443  0.5070
  165SOPE  H12S18555   2.010   1.145   9.398 -1.8506 -1.2151  1.0021
  165SOPE  C21318556   2.074   0.950   9.335  0.1421 -0.3522 -0.6984
  165SOPE  H13R18557   2.010   0.867   9.370  1.2937 -0.0292  2.5668
  165SOPE  H13S18558   2.168   0.892   9.352  0.2081  0.1379  0.7299
  165SOPE  C21418559   2.058   0.982   9.184 -0.4306 -0.6259 -0.2314
  165SOPE  H14R18560   2.149   1.030   9.143 -0.6322 -1.4291 -1.6773
  165SOPE  H14S18561   1.977   1.058   9.174  0.3181  0.2717  0.3701
  165SOPE  C21518562   2.021   0.863   9.098 -0.3248  0.3639 -0.2654
  165SOPE  H15R18563   1.914   0.856   9.128 -0.7450 -1.0108 -1.9371
  165SOPE  H15S18564   2.058   0.766   9.136  0.7158  0.8968  0.1277
  165SOPE  C21618565   2.033   0.889   8.953  0.3249  0.1638  0.2442
  165SOPE  H16R18566   2.130   0.876   8.901 -0.1335 -1.3633 -0.2834
  165SOPE  H16S18567   1.993   0.990   8.930 -1.3029 -0.6140 -0.5701
  165SOPE  C21718568   1.921   0.811   8.869 -0.6308 -0.2801 -0.4714
  165SOPE  H17R18569   1.918   0.850   8.765  0.9368  1.4755  0.0780
  165SOPE  H17S18570   1.822   0.819   8.918  0.8280 -0.2910  2.7142
  165SOPE  C21818571   1.952   0.657   8.857 -0.0306  0.2329 -0.1818
  165SOPE  H18R18572   1.981   0.614   8.955 -2.3211  3.0300  1.9180
  165SOPE  H18S18573   2.027   0.640   8.777  0.1105  0.7138 -0.1530
  165SOPE  H18T18574   1.860   0.599   8.835 -1.5110  1.5390  2.1202
  165SOPE   C3318575   2.106   0.999  10.282  0.1896 -0.3836 -0.7836
  165SOPE   H3X18576   2.187   1.067  10.250 -0.9828  2.2602  1.5174
  165SOPE   H3Y18577   2.034   0.994  10.197 -1.3632 -1.7821  0.5390
  165SOPE   C3418578   2.172   0.862  10.308  0.2253 -0.4437 -0.3862
  165SOPE   H4X18579   2.100   0.781  10.332 -0.4190  0.6162  1.4493
  165SOPE   H4Y18580   2.239   0.877  10.395 -0.5890  1.2693 -0.0035
  165SOPE   C3518581   2.271   0.830  10.196  0.7946 -0.0822  0.1130
  165SOPE   H5X18582   2.346   0.755  10.228  0.6744 -0.5479 -0.6687
  165SOPE   H5Y18583   2.320   0.926  10.170 -3.6536  2.9035  1.4427
  165SOPE   C3618584   2.209   0.771  10.069 -0.7473  0.4562 -0.2509
  165SOPE   H6X18585   2.109   0.815  10.048  0.4336  3.3445 -0.3759
  165SOPE   H6Y18586   2.184   0.668  10.100 -1.7579  1.2563  1.7836
  165SOPE   C3718587   2.302   0.780   9.948  0.1697  0.6349  0.5065
  165SOPE   H7X18588   2.397   0.724   9.961 -0.9596 -1.6485 -0.5065
  165SOPE   H7Y18589   2.334   0.886   9.930 -0.7366  0.7908 -0.2649
  165SOPE   C3818590   2.227   0.735   9.829 -0.8388 -0.1045  0.0129
  165SOPE   H8X18591   2.137   0.799   9.831 -0.0458  1.1453  4.2097
  165SOPE   H8Y18592   2.199   0.629   9.847  0.4663 -0.3427  0.7417
  165SOPE   C3918593   2.311   0.746   9.699  0.5968 -1.3615  0.8813
  165SOPE   H9X18594   2.410   0.696   9.702  0.6710 -1.3156 -0.4111
  165SOPE   H9Y18595   2.312   0.854   9.677  0.8795 -1.6997 -0.8851
  165SOPE  C31018596   2.231   0.666   9.583 -0.5806 -0.6653 -0.2778
  165SOPE  H10X18597   2.138   0.721   9.559  0.6387  0.2928 -3.2058
  165SOPE  H10Y18598   2.210   0.567   9.630 -2.6462 -0.2074 -0.1077
  165SOPE  C31118599   2.320   0.654   9.459  1.4385  0.3866 -0.1808
  165SOPE  H11X18600   2.425   0.623   9.478  1.1093 -0.3054  0.5483
  165SOPE  H11Y18601   2.331   0.755   9.414  2.7271  1.2441  1.8874
  165SOPE  C31218602   2.255   0.547   9.365 -0.3039  0.1100 -0.2907
  165SOPE  H12X18603   2.147   0.570   9.357 -0.2060  0.4903 -0.5701
  165SOPE  H12Y18604   2.265   0.444   9.406 -2.2646 -0.4305 -1.0762
  165SOPE  C31318605   2.311   0.561   9.220 -0.0282 -0.1215 -0.3451
  165SOPE  H13X18606   2.418   0.534   9.225 -0.6395 -3.0221 -1.0667
  165SOPE  H13Y18607   2.303   0.664   9.179  0.3265 -0.2119 -0.6463
  165SOPE  C31418608   2.226   0.469   9.131 -0.6411 -0.2490 -0.1999
  165SOPE  H14X18609   2.119   0.496   9.142 -0.6788  0.1760 -1.4650
  165SOPE  H14Y18610   2.223   0.365   9.172 -0.1201  0.0435  0.6231
  165SOPE  C31518611   2.275   0.488   8.989  0.0400  0.3704 -0.5100
  165SOPE  H15X18612   2.283   0.597   8.972  0.0090  0.2511 -1.2920
  165SOPE  H15Y18613   2.194   0.451   8.924  0.5225 -0.6916 -0.5387
  165SOPE  C31618614   2.407   0.418   8.958  0.7417  0.5324 -0.5443
  165SOPE  H16X18615   2.480   0.445   9.038 -1.0389  0.3280  1.2503
  165SOPE  H16Y18616   2.458   0.469   8.874 -0.9469  1.3350 -1.1354
  165SOPE  C31718617   2.399   0.260   8.951 -0.3546 -0.8449 -0.4587
  165SOPE  H17X18618   2.318   0.243   8.876  1.0688 -1.5857 -1.8802
  165SOPE  H17Y18619   2.362   0.219   9.048  2.0230 -0.8057  0.5416
  165SOPE  C31818620   2.518   0.176   8.896  0.8730  0.3932  0.6016
  165SOPE  H18X18621   2.501   0.067   8.907 -1.0992  0.5986  0.0742
  165SOPE  H18Y18622   2.614   0.221   8.930 -0.3124  4.3949 -0.7364
  165SOPE  H18Z18623   2.507   0.188   8.786 -3.1204 -1.9122  0.5192
  166SOPE     N18624   6.336   1.282  10.942 -0.0998 -0.0840  0.1127
  166SOPE   HN118625   6.376   1.355  10.880 -0.3862 -0.0528 -0.0357
  166SOPE   HN218626   6.243   1.312  10.976 -1.3295 -2.4240 -0.9411
  166SOPE   HN318627   6.401   1.277  11.024 -0.3907  2.3754  0.5592
  166SOPE   C1218628   6.320   1.148  10.870  0.7228 -0.1739  0.6009
  166SOPE  H12A18629   6.278   1.081  10.947  0.1816  0.3537  0.7729
  166SOPE  H12B18630   6.423   1.109  10.853  1.0997 -0.4835  3.1668
  166SOPE   C1118631   6.234   1.155  10.745 -0.4091 -0.1191  0.1831
  166SOPE  H11A18632   6.240   1.051  10.706  2.1524 -0.2397  0.6881
  166SOPE  H11B18633   6.268   1.235  10.676 -0.5772  0.9353  1.2860
  166SOPE     P18634   5.995   1.108  10.842  0.4579 -0.2001  0.3173
  166SOPE   O1318635   5.863   1.171  10.802  0.3318  0.3730  0.3140
  166SOPE   O1418636   6.022   1.092  10.982  0.3018  0.1230 -0.3087
  166SOPE   O1218637   6.105   1.190  10.788  0.5524 -0.1016  0.1870
  166SOPE   O1118638   6.015   0.965  10.769 -0.4249 -0.1349 -0.1466
  166SOPE    C118639   5.952   0.941  10.642 -0.3222 -0.1077  0.5201
  166SOPE    HA18640   5.846   0.972  10.650 -0.7620 -1.4593  0.1545
  166SOPE    HB18641   5.936   0.832  10.630 -0.2876 -0.6374  4.1273
  166SOPE    C218642   6.028   0.988  10.511  0.2976 -0.1309 -0.9286
  166SOPE    HS18643   6.133   0.951  10.514 -0.3512 -2.0133  0.1228
  166SOPE   O2118644   6.022   1.128  10.502  0.2519 -0.0239  0.7903
  166SOPE   C2118645   6.103   1.192  10.410  0.0622  0.6082 -0.5159
  166SOPE   O2218646   6.210   1.150  10.379 -0.1499 -0.0756 -0.4453
  166SOPE   C2218647   6.045   1.326  10.380  0.1816  0.4483  0.4139
  166SOPE   H2R18648   6.102   1.392  10.449  0.2931  0.6887  0.0912
  166SOPE   H2S18649   5.937   1.342  10.401  0.1136  1.2421 -0.4580
  166SOPE    C318650   5.966   0.910  10.388 -0.1134 -0.0937  0.2907
  166SOPE    HX18651   5.859   0.937  10.378  0.2159  0.5338 -2.5253
  166SOPE    HY18652   5.976   0.801  10.410 -0.0285 -0.0701  0.3672
  166SOPE   O3118653   6.030   0.948  10.263 -0.4906  0.2806 -0.3922
  166SOPE   C3118654   6.151   0.900  10.236  0.1175 -0.0564 -0.4259
  166SOPE   O3218655   6.212   0.821  10.305 -0.5654 -0.4979  0.1412
  166SOPE   C3218656   6.200   0.960  10.099 -1.3428 -0.2406  0.0299
  166SOPE   H2X18657   6.226   1.064  10.131 -1.4108 -0.5784  1.2423
  166SOPE   H2Y18658   6.108   0.953  10.038 -2.3956 -0.2449  1.5513
  166SOPE   C2318659   6.065   1.374  10.232 -0.0902  0.4663 -0.3261
  166SOPE   H3R18660   6.167   1.351  10.195  0.2515  0.1433  0.7946
  166SOPE   H3S18661   6.046   1.483  10.220  2.0538  0.9199  0.0466
  166SOPE   C2418662   5.966   1.295  10.135 -0.4018 -0.3558 -0.6848
  166SOPE   H4R18663   5.966   1.185  10.150  0.9206 -0.1912  0.8391
  166SOPE   H4S18664   5.860   1.322  10.155 -0.1720 -0.6753  1.1143
  166SOPE   C2518665   5.994   1.338   9.988  0.0828  0.0947 -0.2072
  166SOPE   H5R18666   5.903   1.315   9.928 -0.3759  1.0167  0.1287
  166SOPE   H5S18667   6.004   1.447   9.971 -3.2125  0.5203 -0.0064
  166SOPE   C2618668   6.106   1.265   9.927  0.3723  0.1789 -0.4510
  166SOPE   H6R18669   6.202   1.261   9.983  0.1882 -1.4271 -0.2299
  166SOPE   H6S18670   6.078   1.159   9.910 -1.1355  0.4452  0.2349
  166SOPE   C2718671   6.141   1.328   9.789 -0.4689  0.8582  0.0405
  166SOPE   H7R18672   6.188   1.428   9.804 -0.1071  1.3697 -3.6800
  166SOPE   H7S18673   6.198   1.249   9.737  2.3749  2.7855  0.0028
  166SOPE   C2818674   6.020   1.358   9.697  0.0362 -0.1935 -0.0164
  166SOPE   H8R18675   5.949   1.275   9.678 -2.4404  1.6692  0.4684
  166SOPE   H8S18676   5.966   1.436   9.755  0.7222 -0.7441  1.3877
  166SOPE   C2918677   6.095   1.409   9.570  0.4795  0.7915  0.6327
  166SOPE   H9118678   6.177   1.482   9.577 -0.6463  2.1255  0.3040
  166SOPE  C21018679   6.048   1.375   9.449  0.0296 -0.2635  0.0661
  166SOPE  H10118680   6.103   1.417   9.363 -0.1764 -0.6013 -0.2320
  166SOPE  C21118681   5.923   1.292   9.409 -0.3157 -0.1527 -0.0307
  166SOPE  H11R18682   5.859   1.346   9.336 -0.1480 -2.1805 -1.8119
  166SOPE  H11S18683   5.868   1.260   9.500 -1.0812 -1.6634 -0.9691
  166SOPE  C21218684   5.952   1.159   9.327 -0.3083  0.8104  0.2152
  166SOPE  H12R18685   6.019   1.106   9.398 -0.9506  0.4536  0.5582
  166SOPE  H12S18686   5.998   1.170   9.227 -1.3728 -2.1286 -0.7004
  166SOPE  C21318687   5.831   1.069   9.303 -0.1829  0.2761  0.4771
  166SOPE  H13R18688   5.863   0.966   9.274  0.9387  0.8778 -0.5166
  166SOPE  H13S18689   5.781   1.115   9.215  2.8980  2.5811 -0.2287
  166SOPE  C21418690   5.728   1.058   9.420  0.1453  0.7166 -0.2117
  166SOPE  H14R18691   5.650   0.981   9.398  1.7256 -0.2116 -3.1611
  166SOPE  H14S18692   5.677   1.156   9.429  0.0171  0.7429 -1.1144
  166SOPE  C21518693   5.794   1.023   9.554  0.2760 -0.2084 -0.4946
  166SOPE  H15R18694   5.836   1.113   9.603  2.3904 -1.2385 -0.2929
  166SOPE  H15S18695   5.876   0.950   9.537  0.4015  0.0415 -0.9694
  166SOPE  C21618696   5.695   0.956   9.651 -0.1743  0.5616 -0.6210
  166SOPE  H16R18697   5.649   0.865   9.607  1.1521 -1.6889  2.3052
  166SOPE  H16S18698   5.614   1.031   9.666  0.4962  1.6780 -2.2724
  166SOPE  C21718699   5.749   0.909   9.781 -0.7699  0.0812  0.2251
  166SOPE  H17R18700   5.844   0.854   9.766 -2.8882 -3.3828 -1.6538
  166SOPE  H17S18701   5.676   0.837   9.822 -0.4372 -0.6644 -0.4819
  166SOPE  C21818702   5.772   1.028   9.878  0.3082  0.1628  0.1145
  166SOPE  H18R18703   5.832   1.007   9.970 -0.1756  2.3950  0.9968
  166SOPE  H18S18704   5.677   1.078   9.908  1.3091  3.6277 -1.9839
  166SOPE  H18T18705   5.824   1.101   9.814  1.6654 -0.6195  0.2774
  166SOPE   C3318706   6.329   0.895  10.045 -0.0685  0.0528 -0.6549
  166SOPE   H3X18707   6.406   0.863  10.119 -0.5426  0.2135 -0.0811
  166SOPE   H3Y18708   6.387   0.971   9.988 -1.9969  2.4384  0.3678
  166SOPE   C3418709   6.296   0.786   9.943  0.1302  0.0747 -0.3574
  166SOPE   H4X18710   6.196   0.747   9.973  0.1134 -0.1075 -0.6412
  166SOPE   H4Y18711   6.363   0.698   9.952 -0.4319 -0.5861 -2.1008
  166SOPE   C3518712   6.308   0.832   9.794 -0.3799 -0.3217  0.5672
  166SOPE   H5X18713   6.299   0.742   9.729 -0.4403 -0.7174  1.1073
  166SOPE   H5Y18714   6.412   0.864   9.776 -0.4149 -0.1692  0.6348
  166SOPE   C3618715   6.198   0.938   9.744  0.1932  0.3294  0.1071
  166SOPE   H6X18716   6.210   1.024   9.813 -0.7218  0.3853  0.2059
  166SOPE   H6Y18717   6.094   0.899   9.753  0.8556 -2.0106 -1.2767
  166SOPE   C3718718   6.216   0.967   9.596 -1.1292  0.2800 -0.4975
  166SOPE   H7X18719   6.122   1.012   9.557 -1.0315 -0.3491 -1.4896
  166SOPE   H7Y18720   6.225   0.867   9.548 -1.6067 -0.2049  0.3941
  166SOPE   C3818721   6.335   1.055   9.562  0.1742  0.7834 -0.2864
  166SOPE   H8X18722   6.429   1.004   9.591  0.1445 -0.1510 -1.7461
  166SOPE   H8Y18723   6.318   1.141   9.630  1.1652  0.1403  0.8090
  166SOPE   C3918724   6.331   1.103   9.418  0.0091  0.2403  0.4874
  166SOPE   H9X18725   6.395   1.190   9.392 -0.2103  0.1850 -0.2634
  166SOPE   H9Y18726   6.230   1.145   9.395  0.5135  0.5291 -1.3839
  166SOPE  C31018727   6.370   0.999   9.308 -0.3549 -0.3581  0.7403
  166SOPE  H10X18728   6.303   0.912   9.327 -1.7237  0.1248 -1.5769
  166SOPE  H10Y18729   6.476   0.965   9.313 -0.5416 -0.9031  1.2437
  166SOPE  C31118730   6.333   1.050   9.168  0.0596 -0.6912 -0.4444
  166SOPE  H11X18731   6.391   1.139   9.137 -1.3611  0.2104 -0.6013
  166SOPE  H11Y18732   6.229   1.087   9.154  0.1015 -0.3142  0.1943
  166SOPE  C31218733   6.361   0.943   9.067 -0.6797 -0.4899  0.5252
  166SOPE  H12X18734   6.323   0.847   9.107 -1.3800  1.3374  4.8664
  166SOPE  H12Y18735   6.471   0.928   9.063 -0.5529  0.2186  1.0140
  166SOPE  C31318736   6.300   0.970   8.928 -0.6168 -0.3165  0.3839
  166SOPE  H13X18737   6.339   1.067   8.889 -0.6135 -0.7172 -0.6655
  166SOPE  H13Y18738   6.196   1.005   8.935 -0.3966  0.8651 -1.4758
  166SOPE  C31418739   6.338   0.861   8.829  0.1192  0.3691 -0.3570
  166SOPE  H14X18740   6.301   0.763   8.866 -0.7412  1.0661  0.6806
  166SOPE  H14Y18741   6.449   0.857   8.833  0.1226 -0.1141 -0.7973
  166SOPE  C31518742   6.283   0.883   8.689 -0.5158  0.6279  0.0877
  166SOPE  H15X18743   6.348   0.818   8.627 -1.8168 -0.5994 -0.0611
  166SOPE  H15Y18744   6.300   0.989   8.664 -1.1811  0.8298  0.4657
  166SOPE  C31618745   6.131   0.851   8.682  0.0283  0.0124  0.2385
  166SOPE  H16X18746   6.082   0.935   8.736  1.2562  1.0342 -0.1688
  166SOPE  H16Y18747   6.120   0.759   8.743 -0.4010 -0.8165 -1.0510
  166SOPE  C31718748   6.088   0.835   8.541 -0.2192 -1.1406 -0.6129
  166SOPE  H17X18749   6.132   0.926   8.494 -0.2406 -1.1524 -0.6558
  166SOPE  H17Y18750   5.977   0.845   8.536 -0.2231 -1.5955 -1.5855
  166SOPE  C31818751   6.134   0.722   8.452  0.6583 -0.1570  0.1675
  166SOPE  H18X18752   6.083   0.632   8.493  0.1485  0.0608  0.0222
  166SOPE  H18Y18753   6.239   0.688   8.467  0.9250  0.1120 -1.0081
  166SOPE  H18Z18754   6.096   0.730   8.348  0.5844  0.6303  0.2543
  167SOPE     N18755   6.582   0.707   6.198  0.2394 -0.6614  0.0904
  167SOPE   HN118756   6.595   0.604   6.207  0.3398 -0.6241  0.3867
  167SOPE   HN218757   6.662   0.750   6.147  1.0460 -1.9502  0.2112
  167SOPE   HN318758   6.566   0.752   6.290  3.9359  0.0686  0.5336
  167SOPE   C1218759   6.456   0.737   6.124 -1.4485  0.5992 -0.1854
  167SOPE  H12A18760   6.373   0.756   6.196  0.4467 -0.3872  2.3803
  167SOPE  H12B18761   6.433   0.640   6.075 -0.7427 -0.4162  1.4277
  167SOPE   C1118762   6.469   0.847   6.023  0.2470  0.4269 -0.2356
  167SOPE  H11A18763   6.375   0.878   5.972 -1.3924 -3.0040  0.3599
  167SOPE  H11B18764   6.526   0.799   5.941  0.6850 -1.7921  1.2638
  167SOPE     P18765   6.512   1.036   6.214 -0.0691 -0.1089 -0.2845
  167SOPE   O1318766   6.372   1.028   6.247 -0.5804 -0.4030 -0.3685
  167SOPE   O1418767   6.572   1.170   6.206  0.1389 -0.7749  0.6037
  167SOPE   O1218768   6.537   0.959   6.078 -0.0912 -0.1159 -0.1849
  167SOPE   O1118769   6.594   0.943   6.316 -0.7738  0.2888  0.1743
  167SOPE    C118770   6.730   0.993   6.340  0.6134 -0.5455  0.4697
  167SOPE    HA18771   6.741   1.101   6.360  3.5694  0.0680 -3.3361
  167SOPE    HB18772   6.793   0.984   6.249  1.7363  3.0799  0.7348
  167SOPE    C218773   6.804   0.919   6.452 -0.4137  0.3515  0.9358
  167SOPE    HS18774   6.842   0.829   6.399 -1.3734  1.3777 -1.6693
  167SOPE   O2118775   6.712   0.891   6.560 -0.0675 -0.4320 -0.3159
  167SOPE   C2118776   6.645   0.776   6.542 -0.2634 -0.1607 -1.2782
  167SOPE   O2218777   6.667   0.692   6.457  0.6619 -0.2594 -0.0495
  167SOPE   C2218778   6.525   0.768   6.640  0.2426  0.1791 -0.5593
  167SOPE   H2R18779   6.459   0.846   6.598 -2.1192 -0.4170  1.7990
  167SOPE   H2S18780   6.561   0.804   6.739 -0.9566 -0.7709  0.2424
  167SOPE    C318781   6.912   1.011   6.503  0.1179 -0.0413 -0.5164
  167SOPE    HX18782   6.871   1.105   6.547  1.1000  0.6969 -1.1335
  167SOPE    HY18783   6.971   1.046   6.416  0.8560 -0.5974 -0.2481
  167SOPE   O3118784   7.016   0.938   6.576  0.7030 -0.0967  0.2984
  167SOPE   C3118785   7.077   1.020   6.661  0.0336  0.8351 -0.1135
  167SOPE   O3218786   7.073   1.139   6.662  0.4141 -0.1523  0.8859
  167SOPE   C3218787   7.164   0.938   6.748 -1.2580  0.2288  0.3048
  167SOPE   H2X18788   7.257   0.900   6.701 -0.9900  0.6344  0.4999
  167SOPE   H2Y18789   7.106   0.858   6.800 -1.6858 -0.2857 -0.9205
  167SOPE   C2318790   6.453   0.635   6.641 -0.0959  0.2059 -0.2160
  167SOPE   H3R18791   6.514   0.561   6.697 -1.3011  0.0199  0.8909
  167SOPE   H3S18792   6.431   0.600   6.538 -2.6401  1.1227 -0.0441
  167SOPE   C2418793   6.314   0.656   6.706 -0.3025 -0.0198  0.6084
  167SOPE   H4R18794   6.260   0.724   6.638  2.8799  1.6811 -0.4472
  167SOPE   H4S18795   6.258   0.561   6.713  0.4043 -0.6448 -1.5458
  167SOPE   C2518796   6.318   0.712   6.850 -0.2986  0.1083 -0.6087
  167SOPE   H5R18797   6.372   0.809   6.850 -0.6139  0.2861 -0.7213
  167SOPE   H5S18798   6.214   0.724   6.886 -0.4734  0.3363 -1.1801
  167SOPE   C2618799   6.395   0.633   6.957 -0.1350  1.1759 -0.3999
  167SOPE   H6R18800   6.378   0.524   6.958  0.4062  1.0616  1.9905
  167SOPE   H6S18801   6.506   0.642   6.953  0.1114 -1.2091 -0.2521
  167SOPE   C2718802   6.347   0.685   7.095 -0.5157 -0.6465 -0.3613
  167SOPE   H7R18803   6.367   0.793   7.083 -1.6507 -0.3538  0.2003
  167SOPE   H7S18804   6.238   0.678   7.114 -1.1769  3.5816 -1.5732
  167SOPE   C2818805   6.420   0.647   7.231 -0.5826 -0.0847  0.8384
  167SOPE   H8R18806   6.411   0.542   7.264  0.4435 -0.1574  0.9295
  167SOPE   H8S18807   6.529   0.658   7.211 -0.5512 -3.6022 -1.8772
  167SOPE   C2918808   6.390   0.725   7.349 -0.0024 -0.0585 -0.1405
  167SOPE   H9118809   6.326   0.811   7.323  1.7342  0.3649 -3.7085
  167SOPE  C21018810   6.434   0.719   7.478 -0.5321 -0.3066 -0.4143
  167SOPE  H10118811   6.388   0.783   7.556 -0.8862  0.0155 -0.8758
  167SOPE  C21118812   6.529   0.613   7.530 -0.6247 -0.2350 -0.1346
  167SOPE  H11R18813   6.625   0.632   7.476  1.0121 -2.1823  1.9064
  167SOPE  H11S18814   6.495   0.511   7.505 -0.4706 -0.2243 -0.3970
  167SOPE  C21218815   6.573   0.620   7.678  0.0886  0.1532 -0.3502
  167SOPE  H12R18816   6.482   0.596   7.738  1.0791 -0.0409  1.1242
  167SOPE  H12S18817   6.621   0.715   7.711  1.3581 -0.6396  0.1608
  167SOPE  C21318818   6.678   0.513   7.708 -0.5855 -0.0754  0.1822
  167SOPE  H13R18819   6.750   0.507   7.624 -0.6350 -1.5894  0.2198
  167SOPE  H13S18820   6.633   0.411   7.715 -1.4800  0.2130 -1.0258
  167SOPE  C21418821   6.746   0.538   7.839 -0.1942  0.2483  0.3822
  167SOPE  H14R18822   6.802   0.451   7.881 -0.1744 -0.3859 -0.9016
  167SOPE  H14S18823   6.664   0.556   7.912 -1.7558  0.0643 -1.2491
  167SOPE  C21518824   6.859   0.647   7.851  0.5878  0.3968  1.0131
  167SOPE  H15R18825   6.825   0.749   7.821  3.9119  1.0150 -1.1038
  167SOPE  H15S18826   6.946   0.611   7.794 -1.7736 -1.6837 -1.5571
  167SOPE  C21618827   6.908   0.659   7.989 -0.6105  0.6501 -0.2531
  167SOPE  H16R18828   6.955   0.560   8.007 -2.4033 -0.1887  0.0319
  167SOPE  H16S18829   6.825   0.663   8.063 -0.1627 -1.5182  0.4395
  167SOPE  C21718830   7.007   0.772   8.006 -0.7960  0.1147 -0.1852
  167SOPE  H17R18831   7.029   0.774   8.115 -0.9188  0.3645 -0.1630
  167SOPE  H17S18832   6.954   0.867   7.983  1.2597  1.8324  1.6771
  167SOPE  C21818833   7.136   0.768   7.916 -0.6349 -0.3591  0.1539
  167SOPE  H18R18834   7.184   0.869   7.920 -1.7014  0.1404  3.5723
  167SOPE  H18S18835   7.113   0.749   7.809  1.4052 -0.5447 -0.2906
  167SOPE  H18T18836   7.214   0.691   7.932  2.0471  1.4822 -2.8610
  167SOPE   C3318837   7.226   1.030   6.864  0.6001  0.1527 -0.2922
  167SOPE   H3X18838   7.143   1.070   6.926  0.3134 -1.2854  0.3078
  167SOPE   H3Y18839   7.275   1.113   6.810  0.8384  0.5573  0.5337
  167SOPE   C3418840   7.318   0.957   6.960  0.3185  0.3751 -0.1163
  167SOPE   H4X18841   7.409   0.925   6.905 -0.1471  0.5135 -1.0043
  167SOPE   H4Y18842   7.261   0.871   7.001 -0.4266  1.1432  0.4836
  167SOPE   C3518843   7.350   1.044   7.080  0.3363 -0.1298  0.4464
  167SOPE   H5X18844   7.253   1.088   7.113  0.4143  1.7095 -1.6007
  167SOPE   H5Y18845   7.423   1.123   7.054 -1.5102  1.4770 -0.1462
  167SOPE   C3618846   7.404   0.958   7.200 -0.1109  0.4451 -0.0010
  167SOPE   H6X18847   7.510   0.933   7.180 -0.6100 -0.9470 -1.1391
  167SOPE   H6Y18848   7.355   0.860   7.223 -1.0538  0.8206 -0.3518
  167SOPE   C3718849   7.417   1.038   7.333  1.0889 -0.0331 -0.2850
  167SOPE   H7X18850   7.314   1.058   7.369  0.5880 -2.6640 -0.0477
  167SOPE   H7Y18851   7.463   1.136   7.309 -1.7128  1.5779  0.5511
  167SOPE   C3818852   7.493   0.961   7.434  0.1423  0.3558 -0.0016
  167SOPE   H8X18853   7.593   0.944   7.389  0.1971  0.8571 -0.0801
  167SOPE   H8Y18854   7.449   0.859   7.443  1.2801 -0.3406 -1.8041
  167SOPE   C3918855   7.492   1.031   7.568 -0.9110 -0.6523 -0.4073
  167SOPE   H9X18856   7.389   1.060   7.599 -1.1096 -0.4677 -1.2271
  167SOPE   H9Y18857   7.545   1.127   7.555 -1.9768 -0.3967 -3.7978
  167SOPE  C31018858   7.556   0.963   7.688 -0.0352 -0.1068  0.3092
  167SOPE  H10X18859   7.665   0.948   7.673 -0.0583 -1.1393  1.0720
  167SOPE  H10Y18860   7.509   0.863   7.694 -1.4911  0.4866 -0.5876
  167SOPE  C31118861   7.519   1.038   7.819 -0.1815  0.2277 -0.2308
  167SOPE  H11X18862   7.408   1.038   7.823 -0.2496 -2.2616 -0.6310
  167SOPE  H11Y18863   7.534   1.148   7.808 -0.4858  0.1426 -1.7211
  167SOPE  C31218864   7.580   0.970   7.944  0.4793  0.6556 -0.0923
  167SOPE  H12X18865   7.690   0.967   7.930  0.7560  0.2913  1.8991
  167SOPE  H12Y18866   7.538   0.868   7.948 -1.5947  1.4490  3.5607
  167SOPE  C31318867   7.559   1.036   8.076  0.1222  0.1509  0.1365
  167SOPE  H13X18868   7.496   1.127   8.075  0.6218  0.5067  0.5649
  167SOPE  H13Y18869   7.654   1.072   8.119 -0.6699 -1.1840  3.3321
  167SOPE  C31418870   7.492   0.932   8.178  0.2231 -0.0858  0.7324
  167SOPE  H14X18871   7.389   0.913   8.141 -0.0712  0.7147  1.1217
  167SOPE  H14Y18872   7.486   0.976   8.280  0.7440 -0.2467  0.8354
  167SOPE  C31518873   7.568   0.802   8.208 -0.4296 -0.2160  0.0397
  167SOPE  H15X18874   7.673   0.826   8.233 -1.3515  3.5470  1.0345
  167SOPE  H15Y18875   7.560   0.733   8.121 -1.2620 -0.7239  0.5073
  167SOPE  C31618876   7.511   0.717   8.318 -0.1546  0.6427 -0.3791
  167SOPE  H16X18877   7.434   0.658   8.265 -1.5976  2.3380 -0.2299
  167SOPE  H16Y18878   7.460   0.778   8.394  0.7636 -0.0871  0.8702
  167SOPE  C31718879   7.602   0.620   8.396  0.7289  0.6019  0.1019
  167SOPE  H17X18880   7.537   0.539   8.435  2.0952 -1.0210 -0.8960
  167SOPE  H17Y18881   7.646   0.673   8.483  2.2572 -2.1214  1.0999
  167SOPE  C31818882   7.708   0.543   8.318 -0.5911  0.2669 -0.4530
  167SOPE  H18X18883   7.773   0.481   8.383  0.5997  1.5321 -0.3965
  167SOPE  H18Y18884   7.770   0.621   8.271 -1.8259  0.7321 -1.3521
  167SOPE  H18Z18885   7.663   0.473   8.244  0.1696 -1.8615  0.9747
  168SOPE     N18886   0.910   4.501   5.903 -0.4826 -0.5291 -0.0617
  168SOPE   HN118887   0.851   4.518   5.818  0.9542  1.4590 -0.7286
  168SOPE   HN218888   1.009   4.526   5.885 -0.8086  1.6200  0.8998
  168SOPE   HN318889   0.900   4.399   5.920 -1.9931 -0.4637 -0.4124
  168SOPE   C1218890   0.846   4.571   6.009 -0.8042  0.1156  0.1996
  168SOPE  H12A18891   0.750   4.522   6.035  0.0767 -0.6071  2.3217
  168SOPE  H12B18892   0.827   4.677   5.984 -1.8545 -0.0717  0.1869
  168SOPE   C1118893   0.928   4.568   6.142  0.1526 -0.3401 -0.1524
  168SOPE  H11A18894   0.864   4.629   6.209  1.2079  0.3037  0.2847
  168SOPE  H11B18895   1.023   4.623   6.132 -0.3340  0.5837  0.2522
  168SOPE     P18896   0.848   4.361   6.280 -0.3319  0.0824  0.2331
  168SOPE   O1318897   0.883   4.215   6.278 -0.7954 -0.6662  0.2962
  168SOPE   O1418898   0.709   4.406   6.241  1.1689 -0.3123 -0.2407
  168SOPE   O1218899   0.945   4.439   6.192 -0.0989 -0.3003 -0.4844
  168SOPE   O1118900   0.887   4.421   6.421 -0.5184 -0.4005  0.3186
  168SOPE    C118901   1.018   4.447   6.466  0.0733 -0.4398  0.0570
  168SOPE    HA18902   1.045   4.553   6.447 -0.5444 -0.2149  0.4097
  168SOPE    HB18903   1.101   4.393   6.416  1.6569  1.8851  0.0159
  168SOPE    C218904   1.029   4.439   6.624  0.1532  0.5225 -0.1029
  168SOPE    HS18905   1.097   4.524   6.646  3.9117 -1.3747 -3.1780
  168SOPE   O2118906   1.083   4.308   6.654 -0.1794 -0.4817 -0.1384
  168SOPE   C2118907   1.215   4.296   6.644 -0.1844 -0.5905  0.7221
  168SOPE   O2218908   1.286   4.387   6.604  0.6932 -0.1993  0.4812
  168SOPE   C2218909   1.260   4.164   6.692 -0.0170 -1.2232  0.1921
  168SOPE   H2R18910   1.367   4.164   6.724 -0.5687 -1.8595  2.2174
  168SOPE   H2S18911   1.259   4.099   6.602 -0.3435  0.4903 -1.0731
  168SOPE    C318912   0.892   4.452   6.697  0.4478  0.1269  0.6743
  168SOPE    HX18913   0.832   4.372   6.648  0.8534  1.6772 -2.6131
  168SOPE    HY18914   0.854   4.553   6.669 -0.7697  0.3626  2.9299
  168SOPE   O3118915   0.903   4.453   6.841  0.7494 -0.3770 -0.0103
  168SOPE   C3118916   0.870   4.341   6.903 -0.2653 -0.4174 -0.2293
  168SOPE   O3218917   0.822   4.244   6.845  0.3205  0.1533 -0.4703
  168SOPE   C3218918   0.879   4.347   7.057 -0.2203 -0.4344 -0.5659
  168SOPE   H2X18919   0.980   4.384   7.085 -0.4717  0.5908 -0.9676
  168SOPE   H2Y18920   0.862   4.243   7.091 -3.1995  0.4004  0.8224
  168SOPE   C2318921   1.190   4.091   6.813  0.6601  0.1131 -0.0177
  168SOPE   H3R18922   1.217   3.983   6.811 -2.0142 -0.6477 -2.2082
  168SOPE   H3S18923   1.085   4.085   6.777  1.2185 -0.4808 -1.6379
  168SOPE   C2418924   1.208   4.149   6.953 -0.5232  0.5960 -0.9086
  168SOPE   H4R18925   1.311   4.135   6.992 -0.8817 -1.2975 -0.5399
  168SOPE   H4S18926   1.184   4.257   6.944 -0.1124  0.6148 -1.9463
  168SOPE   C2518927   1.133   4.080   7.077 -0.5856 -0.0151  0.4684
  168SOPE   H5R18928   1.026   4.073   7.048 -0.6252  0.4586  0.4802
  168SOPE   H5S18929   1.178   3.981   7.098  1.5806  0.9628  0.6700
  168SOPE   C2618930   1.147   4.156   7.212  0.5659 -1.1433 -0.2807
  168SOPE   H6R18931   1.185   4.259   7.198  0.0978 -0.8486  0.5185
  168SOPE   H6S18932   1.053   4.163   7.271  0.5547 -1.8940 -0.1973
  168SOPE   C2718933   1.253   4.087   7.307 -0.1746  0.5186  0.1152
  168SOPE   H7R18934   1.219   3.985   7.335  3.3477 -0.2840  2.0617
  168SOPE   H7S18935   1.356   4.084   7.267  0.2908 -1.4775  1.3179
  168SOPE   C2818936   1.257   4.162   7.442 -0.3003 -0.8742  0.3316
  168SOPE   H8R18937   1.333   4.239   7.419 -2.3936  1.3987  0.6076
  168SOPE   H8S18938   1.163   4.217   7.465  0.6665  0.1205  2.0362
  168SOPE   C2918939   1.290   4.088   7.566 -0.5059  0.1772 -0.4014
  168SOPE   H9118940   1.250   3.988   7.590  0.1772 -0.1562 -0.6345
  168SOPE  C21018941   1.358   4.153   7.673 -0.5930  0.8218  0.8127
  168SOPE  H10118942   1.375   4.092   7.763 -0.5488 -1.2638 -0.5401
  168SOPE  C21118943   1.413   4.292   7.672  0.8158 -0.6082  0.3129
  168SOPE  H11R18944   1.367   4.352   7.591  1.3402 -0.5453  0.0548
  168SOPE  H11S18945   1.520   4.289   7.643  0.2088 -0.4616 -2.1632
  168SOPE  C21218946   1.390   4.368   7.804  0.6749  0.8340  0.2922
  168SOPE  H12R18947   1.452   4.313   7.879  0.9840  0.8800  0.0704
  168SOPE  H12S18948   1.285   4.353   7.838  0.7761  0.9420  0.6617
  168SOPE  C21318949   1.429   4.518   7.801 -0.6997 -0.1071 -0.1384
  168SOPE  H13R18950   1.360   4.571   7.731  1.6950 -1.1473 -3.5779
  168SOPE  H13S18951   1.533   4.523   7.763 -0.3947 -0.8847  0.5708
  168SOPE  C21418952   1.421   4.596   7.928  0.2178  0.3575 -0.4731
  168SOPE  H14R18953   1.329   4.574   7.985  1.7707 -0.8981  1.7272
  168SOPE  H14S18954   1.406   4.703   7.903  1.0501  0.3144 -1.2384
  168SOPE  C21518955   1.544   4.569   8.016  0.0768  0.7579 -0.5329
  168SOPE  H15R18956   1.638   4.565   7.956  0.4320  0.2361  0.0419
  168SOPE  H15S18957   1.525   4.471   8.065 -0.5032  1.3246  0.3979
  168SOPE  C21618958   1.561   4.686   8.114  0.0877  0.9007  0.1054
  168SOPE  H16R18959   1.474   4.686   8.183  0.4769 -2.6780  0.7847
  168SOPE  H16S18960   1.558   4.784   8.061 -1.8840  0.3304 -0.9447
  168SOPE  C21718961   1.695   4.680   8.177  0.1633  0.4010 -0.1950
  168SOPE  H17R18962   1.782   4.688   8.108  1.4759 -0.1567  1.3245
  168SOPE  H17S18963   1.709   4.579   8.222 -1.8219  0.6597  1.1388
  168SOPE  C21818964   1.698   4.779   8.289 -1.0146  0.2880  0.0277
  168SOPE  H18R18965   1.732   4.881   8.259  1.1365 -1.2151 -3.1947
  168SOPE  H18S18966   1.771   4.749   8.367 -0.4152  1.0440 -0.2298
  168SOPE  H18T18967   1.594   4.787   8.327 -1.2717 -2.5725  0.1069
  168SOPE   C3318968   0.770   4.450   7.105 -0.3843  0.8631 -0.3342
  168SOPE   H3X18969   0.681   4.458   7.039  0.8298  0.5799 -2.0425
  168SOPE   H3Y18970   0.813   4.552   7.101 -0.4913  0.8661 -2.9379
  168SOPE   C3418971   0.721   4.413   7.247  0.8352  0.6315  0.2550
  168SOPE   H4X18972   0.675   4.314   7.227  2.7893 -0.2794  0.0341
  168SOPE   H4Y18973   0.641   4.484   7.277 -0.0785  1.4984 -3.6222
  168SOPE   C3518974   0.831   4.400   7.350  0.2198  0.6563 -0.6318
  168SOPE   H5X18975   0.883   4.498   7.360  2.2844 -0.4959  0.6392
  168SOPE   H5Y18976   0.907   4.323   7.326 -1.1254 -0.8780 -0.1016
  168SOPE   C3618977   0.770   4.369   7.494 -0.3671 -0.1243  0.5512
  168SOPE   H6X18978   0.735   4.264   7.489  1.5389 -0.7305 -2.2177
  168SOPE   H6Y18979   0.688   4.436   7.527 -1.9345 -1.4174 -0.5527
  168SOPE   C3718980   0.873   4.376   7.609  0.4027 -0.6539 -0.4262
  168SOPE   H7X18981   0.908   4.479   7.632 -1.7009  0.1643 -0.6749
  168SOPE   H7Y18982   0.960   4.317   7.575 -0.7491 -3.2931  0.9432
  168SOPE   C3818983   0.815   4.321   7.748  0.0303  0.0795  1.1636
  168SOPE   H8X18984   0.902   4.313   7.817  1.8027  0.7740 -0.8654
  168SOPE   H8Y18985   0.766   4.225   7.722 -1.3639  0.3615  2.6267
  168SOPE   C3918986   0.709   4.404   7.820 -0.1963  0.0200  0.5753
  168SOPE   H9X18987   0.616   4.410   7.760 -0.6412  0.4081  1.2947
  168SOPE   H9Y18988   0.753   4.506   7.817 -0.8040  0.2751 -1.3696
  168SOPE  C31018989   0.680   4.358   7.961 -0.2753 -0.4577 -0.0907
  168SOPE  H10X18990   0.769   4.343   8.026 -0.1088  0.9875  0.0349
  168SOPE  H10Y18991   0.635   4.256   7.961 -2.0094  0.2383  2.0667
  168SOPE  C31118992   0.570   4.433   8.031  0.7576  0.0590 -0.3411
  168SOPE  H11X18993   0.469   4.428   7.984  0.4798 -0.6963  0.3233
  168SOPE  H11Y18994   0.611   4.537   8.037 -0.2054  0.3446  3.4069
  168SOPE  C31218995   0.551   4.391   8.183  0.6957 -0.2372 -0.2887
  168SOPE  H12X18996   0.494   4.465   8.243  1.9572 -0.7181  1.5622
  168SOPE  H12Y18997   0.650   4.379   8.230  0.7027  2.9427  0.7491
  168SOPE  C31318998   0.469   4.257   8.184  0.4253 -0.7048 -0.1286
  168SOPE  H13X18999   0.530   4.173   8.145  1.4681  0.7715 -1.8406
  168SOPE  H13Y19000   0.378   4.269   8.122  0.4250  0.7928  0.1278
  168SOPE  C31419001   0.401   4.235   8.323  0.2780 -0.0554  0.2306
  168SOPE  H14X19002   0.322   4.157   8.314 -1.7059  1.9712 -1.3935
  168SOPE  H14Y19003   0.340   4.323   8.353 -0.4471  0.1351 -1.7012
  168SOPE  C31519004   0.507   4.214   8.432 -0.0495  0.0789  1.1769
  168SOPE  H15X19005   0.583   4.293   8.449  2.1724 -1.7928  0.3666
  168SOPE  H15Y19006   0.553   4.115   8.412 -0.3983 -0.2009  1.7088
  168SOPE  C31619007   0.451   4.196   8.580  0.2502 -0.1816 -0.0409
  168SOPE  H16X19008   0.395   4.100   8.589  0.6691 -0.4126  0.1401
  168SOPE  H16Y19009   0.378   4.279   8.582 -1.7397 -1.7540 -1.8747
  168SOPE  C31719010   0.541   4.219   8.696 -0.6296 -0.1823  0.2714
  168SOPE  H17X19011   0.626   4.147   8.705 -0.6062 -0.0009  1.5917
  168SOPE  H17Y19012   0.492   4.204   8.795 -0.8702 -1.3844 -0.0047
  168SOPE  C31819013   0.601   4.361   8.695  0.5653  0.1284 -0.9438
  168SOPE  H18X19014   0.517   4.433   8.703  0.5252  0.0610 -0.7612
  168SOPE  H18Y19015   0.661   4.374   8.602  1.5001 -0.5768 -0.4653
  168SOPE  H18Z19016   0.673   4.379   8.778 -0.7021  1.7487 -0.1364
  169SOPE     N19017   4.053   6.040   6.224 -0.3875  0.7093 -0.0319
  169SOPE   HN119018   4.127   6.086   6.281  0.5434  0.9079 -1.3384
  169SOPE   HN219019   4.019   5.952   6.266  1.0020  1.0073  1.8443
  169SOPE   HN319020   4.103   6.006   6.139  2.7926 -0.5538  2.1664
  169SOPE   C1219021   3.950   6.142   6.177  0.3485 -0.0615 -0.4281
  169SOPE  H12A19022   3.894   6.084   6.100 -0.2393  1.5196 -1.2262
  169SOPE  H12B19023   4.004   6.228   6.132  1.0935 -0.6073 -0.6127
  169SOPE   C1119024   3.846   6.180   6.287 -0.1829  0.3960  0.9854
  169SOPE  H11A19025   3.827   6.079   6.331 -0.5127  1.0012  2.2747
  169SOPE  H11B19026   3.756   6.212   6.230  0.9777 -0.9103 -1.7685
  169SOPE     P19027   3.848   6.413   6.417  0.0874  0.0884  0.3355
  169SOPE   O1319028   3.848   6.497   6.296  0.1664 -0.0861 -0.3986
  169SOPE   O1419029   3.925   6.468   6.528  0.1913 -0.5740  0.5436
  169SOPE   O1219030   3.907   6.264   6.383  0.0871  0.1696  0.9583
  169SOPE   O1119031   3.705   6.400   6.474  0.0855 -0.1790  0.2291
  169SOPE    C119032   3.662   6.280   6.551  0.1202  0.3040 -0.2466
  169SOPE    HA19033   3.729   6.193   6.538 -1.6276 -0.7164 -3.2435
  169SOPE    HB19034   3.562   6.251   6.514 -0.9022  2.7414  0.3551
  169SOPE    C219035   3.636   6.300   6.699  0.3062  0.5657 -0.8230
  169SOPE    HS19036   3.571   6.211   6.713  2.0908 -0.5814  0.6006
  169SOPE   O2119037   3.565   6.422   6.718  0.4839 -0.3362  0.2563
  169SOPE   C2119038   3.434   6.422   6.724  0.5707  0.5260 -0.0887
  169SOPE   O2219039   3.362   6.325   6.701  0.5132  0.1144 -0.7888
  169SOPE   C2219040   3.383   6.562   6.761  0.0185 -0.1230  0.2285
  169SOPE   H2R19041   3.312   6.587   6.679  1.0705 -1.7551 -1.2665
  169SOPE   H2S19042   3.466   6.635   6.770  0.3060 -0.6285  1.9155
  169SOPE    C319043   3.764   6.295   6.783 -0.1227  0.2053 -0.6798
  169SOPE    HX19044   3.824   6.381   6.746  0.0439  0.1268 -0.5943
  169SOPE    HY19045   3.824   6.204   6.762  0.1580  0.5986 -1.6570
  169SOPE   O3119046   3.741   6.314   6.923 -0.0269 -0.6720 -0.3082
  169SOPE   C3119047   3.822   6.245   7.003 -0.0304  0.6015  0.3115
  169SOPE   O3219048   3.907   6.165   6.966  0.9979 -0.1345 -0.0560
  169SOPE   C3219049   3.784   6.274   7.149 -0.1238 -0.0894  0.4714
  169SOPE   H2X19050   3.677   6.247   7.158  0.2411 -1.4148  1.2161
  169SOPE   H2Y19051   3.792   6.383   7.167  0.4950 -0.3232  1.7760
  169SOPE   C2319052   3.303   6.575   6.890 -0.6542  0.4610  0.1979
  169SOPE   H3R19053   3.205   6.522   6.888 -0.5667  0.3315 -1.0699
  169SOPE   H3S19054   3.290   6.684   6.904  2.3335  0.6672  2.5236
  169SOPE   C2419055   3.385   6.544   7.018 -0.6151 -0.0038  0.4842
  169SOPE   H4R19056   3.376   6.435   7.036 -0.3411  0.0161  0.7428
  169SOPE   H4S19057   3.485   6.578   6.985 -1.0503  1.0925  0.2249
  169SOPE   C2519058   3.326   6.604   7.141 -0.8073 -0.5787 -0.4500
  169SOPE   H5R19059   3.321   6.715   7.145 -1.5960 -0.5083 -2.2735
  169SOPE   H5S19060   3.218   6.579   7.150 -0.9551  0.1161 -0.2217
  169SOPE   C2619061   3.395   6.550   7.264 -0.7040  0.0925 -1.0499
  169SOPE   H6R19062   3.430   6.447   7.244 -0.6162 -0.4295  1.4528
  169SOPE   H6S19063   3.481   6.612   7.297 -0.6486 -0.2094 -0.6065
  169SOPE   C2719064   3.309   6.550   7.388 -0.0545  0.5149  0.2327
  169SOPE   H7R19065   3.294   6.658   7.410  0.2761  0.4932  0.5732
  169SOPE   H7S19066   3.206   6.510   7.375  0.4635 -0.8095  0.0848
  169SOPE   C2819067   3.382   6.492   7.511 -0.3327  0.5286 -0.3596
  169SOPE   H8R19068   3.414   6.386   7.501  0.1971  0.6664 -0.1688
  169SOPE   H8S19069   3.475   6.550   7.528 -0.3442  0.7315 -0.9570
  169SOPE   C2919070   3.282   6.498   7.624 -0.2973  0.6679 -0.3509
  169SOPE   H9119071   3.176   6.478   7.602 -0.5390  1.1851  0.3072
  169SOPE  C21019072   3.317   6.534   7.750 -0.2412 -0.1691  0.1133
  169SOPE  H10119073   3.237   6.542   7.825  0.1401 -0.7640  0.5860
  169SOPE  C21119074   3.464   6.562   7.796  0.3180 -0.0251 -0.0831
  169SOPE  H11R19075   3.448   6.636   7.878 -1.9888  0.4357 -0.8646
  169SOPE  H11S19076   3.526   6.606   7.716 -0.7619 -0.2060 -1.0436
  169SOPE  C21219077   3.529   6.441   7.856  0.3096  0.4051  0.1482
  169SOPE  H12R19078   3.640   6.450   7.855  0.4503 -0.7444 -1.8407
  169SOPE  H12S19079   3.510   6.360   7.782  1.1258  1.0073 -0.7532
  169SOPE  C21319080   3.467   6.408   7.998  0.3937  1.0229  0.0173
  169SOPE  H13R19081   3.359   6.403   7.972  0.5960  0.7484 -0.8150
  169SOPE  H13S19082   3.483   6.490   8.070  1.8402 -0.0161  0.9397
  169SOPE  C21419083   3.520   6.280   8.059  0.1401  0.9555 -0.3860
  169SOPE  H14R19084   3.629   6.287   8.079  0.1803 -2.5816  1.3181
  169SOPE  H14S19085   3.508   6.186   8.001  0.2604  0.8435 -0.2297
  169SOPE  C21519086   3.455   6.257   8.193  0.8319  0.6013 -0.0386
  169SOPE  H15R19087   3.346   6.240   8.191  1.2318 -2.7687  0.5436
  169SOPE  H15S19088   3.484   6.338   8.264 -0.2338  0.3086  0.7427
  169SOPE  C21619089   3.506   6.123   8.252  0.3183  0.1632  0.1952
  169SOPE  H16R19090   3.617   6.128   8.243  0.1969  1.2916 -1.1558
  169SOPE  H16S19091   3.481   6.042   8.180  0.4655  0.0866  0.2290
  169SOPE  C21719092   3.458   6.091   8.388 -0.3748  0.4807 -0.5773
  169SOPE  H17R19093   3.366   6.031   8.376 -0.6507  0.3974  1.5409
  169SOPE  H17S19094   3.422   6.184   8.437 -0.6211 -0.2738  0.7329
  169SOPE  C21819095   3.571   6.021   8.463 -0.0678 -0.0774 -0.2214
  169SOPE  H18R19096   3.662   6.084   8.462  0.2975 -0.5932 -1.2266
  169SOPE  H18S19097   3.584   5.918   8.421 -0.0153 -0.3761  0.5152
  169SOPE  H18T19098   3.554   6.004   8.571 -1.4310  0.6399 -0.3079
  169SOPE   C3319099   3.847   6.186   7.257  0.1271 -0.4307 -0.6693
  169SOPE   H3X19100   3.955   6.202   7.278 -0.0828 -0.8889  0.9004
  169SOPE   H3Y19101   3.829   6.079   7.232 -2.0830 -0.0057 -1.1089
  169SOPE   C3419102   3.792   6.215   7.402 -0.2070 -0.2393 -0.1372
  169SOPE   H4X19103   3.682   6.205   7.412 -0.3132 -0.9403 -1.7179
  169SOPE   H4Y19104   3.826   6.317   7.431  0.2610 -0.2870 -0.5034
  169SOPE   C3519105   3.854   6.115   7.497 -1.1501 -0.0434  1.0824
  169SOPE   H5X19106   3.962   6.100   7.476 -0.8734  1.4959  1.2823
  169SOPE   H5Y19107   3.801   6.019   7.478  0.9609 -0.7789 -1.8152
  169SOPE   C3619108   3.853   6.157   7.640  0.4211 -0.7112 -0.5834
  169SOPE   H6X19109   3.758   6.213   7.659  1.2700  0.7113 -0.4057
  169SOPE   H6Y19110   3.937   6.224   7.667  0.7942 -0.9905 -1.0548
  169SOPE   C3719111   3.864   6.044   7.742  0.1723 -0.4986 -0.0300
  169SOPE   H7X19112   3.971   6.013   7.746 -0.0378 -1.1439  0.8652
  169SOPE   H7Y19113   3.810   5.953   7.706  0.7709 -0.6311 -0.6325
  169SOPE   C3819114   3.795   6.082   7.872 -0.2315  0.2011 -0.3882
  169SOPE   H8X19115   3.833   6.184   7.895  0.2739 -0.0840  0.0780
  169SOPE   H8Y19116   3.685   6.098   7.870 -0.5076 -1.3765  0.6597
  169SOPE   C3919117   3.829   6.007   8.005 -0.5043  0.7743  0.5038
  169SOPE   H9X19118   3.819   6.070   8.096  1.9548 -0.2943  1.5927
  169SOPE   H9Y19119   3.937   5.983   7.994 -0.1473  0.4738  3.7087
  169SOPE  C31019120   3.746   5.875   8.026 -0.9435  0.0997 -0.1563
  169SOPE  H10X19121   3.787   5.796   7.959 -1.8684  0.7302 -1.5093
  169SOPE  H10Y19122   3.640   5.887   7.996 -0.3863  0.5019 -2.1688
  169SOPE  C31119123   3.748   5.817   8.170 -0.7786 -0.2105 -0.4987
  169SOPE  H11X19124   3.768   5.894   8.248 -0.2755 -1.8996  1.1225
  169SOPE  H11Y19125   3.827   5.742   8.191 -0.8697  0.1149  1.1895
  169SOPE  C31219126   3.624   5.731   8.194 -0.6970  0.5421 -0.3330
  169SOPE  H12X19127   3.613   5.661   8.109 -0.6565  1.7235 -1.3287
  169SOPE  H12Y19128   3.528   5.787   8.187 -1.3088 -0.4104  0.1538
  169SOPE  C31319129   3.638   5.641   8.325  0.3412  0.2812 -0.0102
  169SOPE  H13X19130   3.629   5.711   8.411 -0.5997  3.9280 -2.8202
  169SOPE  H13Y19131   3.726   5.574   8.323 -0.3591 -0.7414  1.6199
  169SOPE  C31419132   3.512   5.559   8.354  0.3614  0.3302  0.0577
  169SOPE  H14X19133   3.535   5.474   8.287 -1.0970 -0.8639  1.0274
  169SOPE  H14Y19134   3.421   5.617   8.327  0.0689  0.2473  0.8416
  169SOPE  C31519135   3.489   5.497   8.497 -0.6152 -0.1359  0.6513
  169SOPE  H15X19136   3.438   5.575   8.558  1.5726  2.1718 -0.2620
  169SOPE  H15Y19137   3.589   5.472   8.538  0.4078  0.1704 -1.5406
  169SOPE  C31619138   3.407   5.372   8.488  0.0150  0.6805 -0.6975
  169SOPE  H16X19139   3.439   5.307   8.403  1.3808  0.4546 -0.0403
  169SOPE  H16Y19140   3.302   5.404   8.470 -1.0128 -0.0413  3.2239
  169SOPE  C31719141   3.422   5.299   8.619 -0.0188  0.9577  1.2851
  169SOPE  H17X19142   3.404   5.368   8.704  3.1702  0.5448  2.4246
  169SOPE  H17Y19143   3.523   5.266   8.651 -1.4368 -1.6196  3.5446
  169SOPE  C31819144   3.338   5.171   8.620 -0.1842  0.5545  0.1980
  169SOPE  H18X19145   3.318   5.131   8.519  1.3094 -3.9431  1.4659
  169SOPE  H18Y19146   3.239   5.191   8.668 -1.2488 -1.9435 -0.7975
  169SOPE  H18Z19147   3.380   5.086   8.677 -0.8866 -1.3424 -1.9832
  170SOPE     N19148   2.964   2.213   6.420 -0.6472  0.3465 -0.1460
  170SOPE   HN119149   2.987   2.264   6.332  0.9932  0.1324  0.1284
  170SOPE   HN219150   2.862   2.197   6.422 -0.2716 -2.4151  1.1737
  170SOPE   HN319151   2.976   2.277   6.501  1.8737 -0.5106  0.2369
  170SOPE   C1219152   3.034   2.085   6.432 -0.1033  0.2255  0.4374
  170SOPE  H12A19153   3.141   2.098   6.459  0.5359  0.3034 -1.8625
  170SOPE  H12B19154   3.035   2.032   6.334  1.5818  0.0758  0.5043
  170SOPE   C1119155   2.965   1.999   6.538 -0.3409  0.3474  0.6694
  170SOPE  H11A19156   2.969   2.060   6.630  1.1713  1.3729 -0.0239
  170SOPE  H11B19157   3.014   1.900   6.552 -0.0649  0.5099  0.8585
  170SOPE     P19158   2.703   2.036   6.544 -0.4409  0.4278  0.5174
  170SOPE   O1319159   2.592   1.936   6.548 -0.0475 -0.5280  0.2907
  170SOPE   O1419160   2.687   2.156   6.458 -0.1300 -0.3281  0.6071
  170SOPE   O1219161   2.832   1.974   6.490 -0.7520  0.4025  0.4628
  170SOPE   O1119162   2.730   2.083   6.691  0.0127  0.3234 -0.0564
  170SOPE    C119163   2.645   2.166   6.759 -0.9846 -0.0710  0.5144
  170SOPE    HA19164   2.653   2.149   6.868 -2.2102 -2.2868  0.3119
  170SOPE    HB19165   2.541   2.138   6.733 -0.7368 -0.9890  0.4810
  170SOPE    C219166   2.672   2.317   6.726  0.1153  0.3399 -0.0457
  170SOPE    HS19167   2.685   2.339   6.618 -1.8388  0.9319 -0.2014
  170SOPE   O2119168   2.784   2.362   6.807 -0.5668 -0.3078  0.4239
  170SOPE   C2119169   2.891   2.372   6.734 -1.0236  0.1355 -0.0772
  170SOPE   O2219170   2.903   2.374   6.614 -0.1744  0.2432 -0.0693
  170SOPE   C2219171   3.016   2.392   6.834  0.1051 -0.3129 -0.5313
  170SOPE   H2R19172   3.110   2.387   6.775  0.9170 -0.8720  0.7657
  170SOPE   H2S19173   3.024   2.303   6.900 -0.5501  1.1181  1.5975
  170SOPE    C319174   2.555   2.393   6.784 -0.3035  0.2325 -0.3832
  170SOPE    HX19175   2.471   2.379   6.712  0.4853  0.2863 -1.3273
  170SOPE    HY19176   2.583   2.500   6.789  0.7795 -0.0080 -1.0195
  170SOPE   O3119177   2.524   2.340   6.911  0.3907 -0.9813  0.0835
  170SOPE   C3119178   2.494   2.417   7.011 -0.0491  0.4656  0.0894
  170SOPE   O3219179   2.485   2.537   7.010 -0.5132 -0.2854  0.2229
  170SOPE   C3219180   2.481   2.336   7.134 -0.4079 -0.5033  0.5042
  170SOPE   H2X19181   2.534   2.241   7.114  0.9596 -0.3269  2.8861
  170SOPE   H2Y19182   2.372   2.325   7.156 -0.9481  2.1595 -0.3758
  170SOPE   C2319183   3.014   2.522   6.923 -0.3163 -0.5550 -0.1800
  170SOPE   H3R19184   2.919   2.509   6.980 -1.2773 -1.1755 -1.8509
  170SOPE   H3S19185   3.003   2.617   6.866 -1.6191 -0.0461  0.8606
  170SOPE   C2419186   3.138   2.536   7.013  0.0402 -0.2321  0.7695
  170SOPE   H4R19187   3.158   2.435   7.056 -1.0760 -0.4251  0.8549
  170SOPE   H4S19188   3.224   2.560   6.947 -0.5482  1.4168  0.5615
  170SOPE   C2519189   3.113   2.641   7.127 -0.3518  0.6450  0.5384
  170SOPE   H5R19190   3.132   2.742   7.084  1.7342 -0.8775 -2.5169
  170SOPE   H5S19191   3.003   2.637   7.138 -0.3113 -0.6201  0.6265
  170SOPE   C2619192   3.188   2.617   7.258 -0.0962 -0.0220 -0.1421
  170SOPE   H6R19193   3.152   2.520   7.300 -0.2119 -0.7815 -1.8925
  170SOPE   H6S19194   3.290   2.610   7.215  0.5057  0.5996  1.1488
  170SOPE   C2719195   3.185   2.734   7.353 -0.0831 -0.1617 -0.4788
  170SOPE   H7R19196   3.204   2.827   7.295  1.9315  0.0042  0.3697
  170SOPE   H7S19197   3.085   2.736   7.400  0.8187 -0.6443  1.5631
  170SOPE   C2819198   3.302   2.742   7.455  0.0130 -0.3117  0.6668
  170SOPE   H8R19199   3.323   2.639   7.490 -0.9172 -1.6950 -2.5111
  170SOPE   H8S19200   3.395   2.778   7.405  1.0705  0.6382  3.1423
  170SOPE   C2919201   3.270   2.844   7.560 -0.1428  0.0995 -0.3853
  170SOPE   H9119202   3.231   2.941   7.524 -1.0415 -0.1945 -0.2125
  170SOPE  C21019203   3.289   2.835   7.695 -0.1023  0.1356  0.1785
  170SOPE  H10119204   3.269   2.921   7.761 -0.4582 -0.0613  0.3346
  170SOPE  C21119205   3.355   2.719   7.765 -0.5281 -0.0721 -0.8156
  170SOPE  H11R19206   3.455   2.754   7.800 -1.6401  2.0831  0.4096
  170SOPE  H11S19207   3.358   2.629   7.700  0.7815 -0.5502 -0.1365
  170SOPE  C21219208   3.280   2.687   7.895 -1.0435  0.9289  0.1820
  170SOPE  H12R19209   3.173   2.685   7.866 -0.7664  1.6472 -0.9509
  170SOPE  H12S19210   3.294   2.773   7.964  1.7823 -0.7223  1.9052
  170SOPE  C21319211   3.307   2.550   7.953  0.3118 -0.6373  0.4998
  170SOPE  H13R19212   3.406   2.542   8.005  0.1743 -1.3242  0.6731
  170SOPE  H13S19213   3.307   2.459   7.890 -1.3049  0.1172 -0.6437
  170SOPE  C21419214   3.192   2.506   8.050 -0.6209 -0.2468  0.3617
  170SOPE  H14R19215   3.112   2.472   7.981  0.4436  0.6641 -1.3921
  170SOPE  H14S19216   3.148   2.600   8.090  0.1230 -0.4494  1.7262
  170SOPE  C21519217   3.226   2.414   8.165  0.1502  0.1350 -0.5387
  170SOPE  H15R19218   3.308   2.460   8.224 -0.6372 -0.7710  1.3789
  170SOPE  H15S19219   3.269   2.319   8.125 -0.0878  0.6293 -2.0001
  170SOPE  C21619220   3.105   2.384   8.250 -0.9293  0.3986 -0.6437
  170SOPE  H16R19221   3.032   2.325   8.190 -0.5061  0.2319 -1.0029
  170SOPE  H16S19222   3.070   2.486   8.276  0.6827  1.3758 -2.1023
  170SOPE  C21719223   3.138   2.300   8.379 -0.2749 -0.0881  0.1633
  170SOPE  H17R19224   3.231   2.341   8.423  0.8732 -0.4438 -1.8273
  170SOPE  H17S19225   3.157   2.197   8.344  0.2306  0.2376 -0.5530
  170SOPE  C21819226   3.024   2.297   8.477  0.5239 -0.3909  0.1132
  170SOPE  H18R19227   3.008   2.392   8.531  0.4018 -2.6248  4.4201
  170SOPE  H18S19228   3.044   2.221   8.556  2.7541  0.4674  0.4287
  170SOPE  H18T19229   2.927   2.276   8.426  0.4217 -0.8592  0.4838
  170SOPE   C3319230   2.556   2.390   7.256 -0.2682 -0.3622  0.5970
  170SOPE   H3X19231   2.551   2.501   7.253 -2.0554 -0.4011  0.8630
  170SOPE   H3Y19232   2.662   2.359   7.246 -0.3768 -0.3883 -0.6094
  170SOPE   C3419233   2.493   2.339   7.388 -0.1251 -0.9703 -0.0778
  170SOPE   H4X19234   2.475   2.229   7.388  0.8463 -1.1388  0.1117
  170SOPE   H4Y19235   2.400   2.396   7.410  0.4958 -0.2099  0.6555
  170SOPE   C3519236   2.579   2.369   7.514  0.6954  0.5954  0.4848
  170SOPE   H5X19237   2.598   2.477   7.533  1.5262  0.3530  1.0778
  170SOPE   H5Y19238   2.675   2.315   7.511 -0.4139 -1.4130 -0.7129
  170SOPE   C3619239   2.505   2.321   7.647  0.0583  0.3091 -0.4180
  170SOPE   H6X19240   2.480   2.212   7.647  0.0067  0.3130  0.9429
  170SOPE   H6Y19241   2.412   2.380   7.660 -1.5160 -1.8985 -0.9873
  170SOPE   C3719242   2.594   2.339   7.766 -0.7693  0.2705 -0.2694
  170SOPE   H7X19243   2.646   2.435   7.747  1.2948 -0.9998 -1.4403
  170SOPE   H7Y19244   2.677   2.265   7.773 -0.1108  1.0487  0.3597
  170SOPE   C3819245   2.512   2.317   7.893 -0.2477  0.8133  0.4001
  170SOPE   H8X19246   2.446   2.227   7.894 -1.3173  1.5826  0.1913
  170SOPE   H8Y19247   2.453   2.409   7.913 -0.3165  1.0546 -0.8749
  170SOPE   C3919248   2.592   2.301   8.028  0.1380 -0.0446  0.7384
  170SOPE   H9X19249   2.655   2.392   8.039 -0.1668  0.5540 -1.7791
  170SOPE   H9Y19250   2.664   2.218   8.013  1.3578  1.1761 -0.4113
  170SOPE  C31019251   2.502   2.260   8.147  0.3125  0.0568 -0.2422
  170SOPE  H10X19252   2.468   2.156   8.128  0.0990  0.1498 -0.3726
  170SOPE  H10Y19253   2.423   2.338   8.143  0.2295  0.0552  1.0774
  170SOPE  C31119254   2.570   2.277   8.282 -0.0045  0.8543 -0.0577
  170SOPE  H11X19255   2.592   2.381   8.314 -0.8313  1.2355 -0.6530
  170SOPE  H11Y19256   2.669   2.228   8.288 -0.3318  0.3517  1.7866
  170SOPE  C31219257   2.485   2.214   8.389 -0.1294  0.1545 -0.1976
  170SOPE  H12X19258   2.424   2.129   8.351 -2.5097  1.6022  0.1941
  170SOPE  H12Y19259   2.403   2.283   8.419  0.3100  0.1091  1.1323
  170SOPE  C31319260   2.558   2.164   8.517 -0.0712 -0.1990  0.3265
  170SOPE  H13X19261   2.648   2.102   8.494 -1.3210 -2.1560  0.4463
  170SOPE  H13Y19262   2.491   2.097   8.577 -0.2962 -1.8380 -1.6469
  170SOPE  C31419263   2.615   2.287   8.594 -0.2236 -0.5008  0.2496
  170SOPE  H14X19264   2.537   2.364   8.606 -2.4963 -1.6877 -4.5701
  170SOPE  H14Y19265   2.691   2.331   8.526 -2.1466  0.8214 -1.1194
  170SOPE  C31519266   2.677   2.242   8.719  0.3173 -0.2238  0.1511
  170SOPE  H15X19267   2.736   2.149   8.702 -1.4569 -1.1095 -1.5910
  170SOPE  H15Y19268   2.589   2.221   8.783  0.0721 -0.0989 -0.1439
  170SOPE  C31619269   2.760   2.355   8.782  0.2350 -0.7591 -0.2010
  170SOPE  H16X19270   2.730   2.450   8.733  0.0900  0.5775  2.3318
  170SOPE  H16Y19271   2.869   2.348   8.763  0.8680  1.7334  1.9729
  170SOPE  C31719272   2.738   2.369   8.934 -0.0023  0.3460 -0.1911
  170SOPE  H17X19273   2.812   2.444   8.970 -2.7855  3.1865  0.0557
  170SOPE  H17Y19274   2.750   2.270   8.983 -0.3797 -0.8791 -2.4604
  170SOPE  C31819275   2.589   2.418   8.973  0.1158  0.1661 -0.0276
  170SOPE  H18X19276   2.585   2.529   8.965  1.5479  0.1532 -1.6354
  170SOPE  H18Y19277   2.567   2.385   9.077  0.2298 -1.9038 -0.6184
  170SOPE  H18Z19278   2.511   2.368   8.912 -0.8456  1.4946  0.0636
  171SOPE     N19279   3.768   0.865   6.127 -0.3131 -0.8372 -0.3164
  171SOPE   HN119280   3.680   0.867   6.181 -0.1549 -3.0261  0.1175
  171SOPE   HN219281   3.855   0.905   6.167  0.2900 -0.8248 -1.5710
  171SOPE   HN319282   3.749   0.916   6.038  0.0619  0.0431  0.0963
  171SOPE   C1219283   3.775   0.718   6.103 -0.2287 -0.0050 -0.6621
  171SOPE  H12A19284   3.858   0.684   6.037  0.5257  0.0169  0.2455
  171SOPE  H12B19285   3.675   0.700   6.058 -1.2348  1.0373  1.0208
  171SOPE   C1119286   3.792   0.659   6.247 -0.1724  0.1042  0.3113
  171SOPE  H11A19287   3.798   0.548   6.245  1.1761  0.1060 -3.1429
  171SOPE  H11B19288   3.700   0.693   6.299 -2.3564 -1.1840 -2.4717
  171SOPE     P19289   3.912   0.782   6.446 -0.0108 -0.1453 -0.0164
  171SOPE   O1319290   3.898   0.928   6.429 -0.2008  0.1619 -0.1418
  171SOPE   O1419291   4.029   0.730   6.520 -0.7854 -0.2063 -0.6500
  171SOPE   O1219292   3.913   0.710   6.302 -0.4824  0.8535 -0.0387
  171SOPE   O1119293   3.781   0.723   6.523  0.3120 -0.2869  0.4254
  171SOPE    C119294   3.675   0.799   6.583  0.1660 -0.5960 -0.6571
  171SOPE    HA19295   3.580   0.747   6.559 -0.1221 -1.5778  2.2863
  171SOPE    HB19296   3.668   0.904   6.545  0.6788 -0.9397 -1.7541
  171SOPE    C219297   3.670   0.795   6.736 -0.7457  0.1108  0.1165
  171SOPE    HS19298   3.593   0.866   6.774 -1.1336 -0.1569 -0.1522
  171SOPE   O2119299   3.795   0.835   6.791  0.5407 -0.0554 -0.5228
  171SOPE   C2119300   3.828   0.960   6.787 -0.2168 -0.0246  0.1631
  171SOPE   O2219301   3.760   1.060   6.769  0.2788  0.5431  0.5823
  171SOPE   C2219302   3.980   0.948   6.829 -0.7788 -0.5111 -0.4228
  171SOPE   H2R19303   4.025   0.856   6.785  1.1255  0.1616  0.0649
  171SOPE   H2S19304   3.972   0.931   6.938  0.4115  0.9145 -0.0862
  171SOPE    C319305   3.643   0.654   6.793 -0.7856  0.5585  0.3127
  171SOPE    HX19306   3.738   0.597   6.777 -0.9720  0.7269 -1.5840
  171SOPE    HY19307   3.558   0.607   6.741 -1.3336  2.4027 -0.5202
  171SOPE   O3119308   3.609   0.669   6.933  0.3181  0.5856 -0.1846
  171SOPE   C3119309   3.700   0.656   7.028  0.7314  0.8682  0.1153
  171SOPE   O3219310   3.818   0.620   7.011 -0.2565 -0.1844 -0.0245
  171SOPE   C3219311   3.636   0.680   7.159 -0.0660  0.3080  0.0611
  171SOPE   H2X19312   3.548   0.612   7.166  0.1657 -0.1727 -1.4587
  171SOPE   H2Y19313   3.606   0.786   7.146 -1.0581  0.1423  0.8741
  171SOPE   C2319314   4.065   1.080   6.799 -0.3994  0.7373 -0.5764
  171SOPE   H3R19315   4.006   1.167   6.835  1.4642  1.4348  0.9744
  171SOPE   H3S19316   4.080   1.074   6.689 -0.9282 -0.7344 -0.5931
  171SOPE   C2419317   4.204   1.092   6.870  0.1482  0.4718  0.5110
  171SOPE   H4R19318   4.253   0.992   6.865  0.1665  0.5207 -0.3108
  171SOPE   H4S19319   4.264   1.170   6.819 -0.5365 -0.3840 -1.7013
  171SOPE   C2519320   4.195   1.151   7.013  0.0944 -0.4377 -0.1116
  171SOPE   H5R19321   4.151   1.253   7.006  2.1618  0.4631 -0.9171
  171SOPE   H5S19322   4.141   1.090   7.089 -0.2924 -1.2309 -1.0100
  171SOPE   C2619323   4.339   1.171   7.076  0.6921  0.6571  0.4734
  171SOPE   H6R19324   4.386   1.070   7.071  1.4064  1.0329 -0.9671
  171SOPE   H6S19325   4.385   1.247   7.010 -0.5988  0.5004 -0.6405
  171SOPE   C2719326   4.323   1.215   7.219 -0.0521  0.2230 -1.0536
  171SOPE   H7R19327   4.276   1.316   7.223  2.3542  1.3751  2.3549
  171SOPE   H7S19328   4.256   1.147   7.276  0.2174 -0.0517 -1.0633
  171SOPE   C2819329   4.453   1.218   7.306  0.7244 -0.2342  0.2919
  171SOPE   H8R19330   4.485   1.111   7.299  0.8073 -0.1722 -0.3768
  171SOPE   H8S19331   4.529   1.281   7.255 -1.0164  0.0552 -2.1350
  171SOPE   C2919332   4.428   1.261   7.448  0.3583 -1.0277  0.5194
  171SOPE   H9119333   4.351   1.339   7.457  2.6249  1.4158 -0.0804
  171SOPE  C21019334   4.493   1.210   7.546  0.0096  0.0808 -0.3361
  171SOPE  H10119335   4.473   1.248   7.647 -1.0265  0.9233 -0.8326
  171SOPE  C21119336   4.602   1.095   7.540  0.7511  0.0862  0.5434
  171SOPE  H11R19337   4.633   1.075   7.435  1.0156  0.4853  0.5472
  171SOPE  H11S19338   4.557   0.997   7.569  1.3051 -0.1326  0.6781
  171SOPE  C21219339   4.733   1.112   7.614 -0.3237 -0.1423  0.1132
  171SOPE  H12R19340   4.788   1.208   7.611  0.0749 -0.3783 -2.7318
  171SOPE  H12S19341   4.806   1.045   7.565  2.2891  2.7351 -0.2782
  171SOPE  C21319342   4.725   1.071   7.764  0.3173 -0.0259  0.8097
  171SOPE  H13R19343   4.678   0.971   7.765 -1.0328  0.5915  1.2534
  171SOPE  H13S19344   4.655   1.142   7.812 -0.6535  2.0108 -3.1326
  171SOPE  C21419345   4.858   1.066   7.829 -0.6351 -0.0903  0.2336
  171SOPE  H14R19346   4.941   1.038   7.761 -1.1253 -0.3643 -0.2587
  171SOPE  H14S19347   4.858   0.993   7.913  0.8738 -1.4463 -0.8884
  171SOPE  C21519348   4.907   1.204   7.888 -0.0983  0.0062  0.1032
  171SOPE  H15R19349   4.903   1.269   7.798  0.3133  0.9688  0.7588
  171SOPE  H15S19350   5.013   1.209   7.919 -0.3768  0.5376  1.0343
  171SOPE  C21619351   4.821   1.281   7.984 -0.3883 -0.9157  0.2756
  171SOPE  H16R19352   4.732   1.321   7.931 -0.1339 -0.1707  0.3922
  171SOPE  H16S19353   4.889   1.365   8.011 -0.3451 -1.1749  0.9996
  171SOPE  C21719354   4.782   1.200   8.113 -0.0573 -0.0781 -0.5714
  171SOPE  H17R19355   4.813   1.095   8.098 -0.4676 -0.0781 -1.4647
  171SOPE  H17S19356   4.672   1.207   8.126  0.0938  1.0976  0.2343
  171SOPE  C21819357   4.856   1.236   8.243 -0.9208  0.2844 -0.5380
  171SOPE  H18R19358   4.833   1.152   8.312 -1.5488  0.1317 -0.9300
  171SOPE  H18S19359   4.816   1.328   8.292  1.3110  0.1337  1.7963
  171SOPE  H18T19360   4.966   1.247   8.235 -0.6099 -0.1152  2.2344
  171SOPE   C3319361   3.739   0.662   7.273 -0.2618  0.4638 -0.4195
  171SOPE   H3X19362   3.815   0.743   7.279  0.7097 -0.4784  0.4499
  171SOPE   H3Y19363   3.794   0.568   7.249  0.7078  0.6135  1.0193
  171SOPE   C3419364   3.681   0.646   7.421  0.1865  0.8085 -0.2332
  171SOPE   H4X19365   3.581   0.601   7.400  0.8321 -1.2272  0.8410
  171SOPE   H4Y19366   3.661   0.740   7.478 -2.3463  1.1904 -1.5902
  171SOPE   C3519367   3.764   0.547   7.494 -0.5434 -0.0266  0.5588
  171SOPE   H5X19368   3.867   0.588   7.491 -0.0333 -1.2947  0.0890
  171SOPE   H5Y19369   3.760   0.452   7.437 -0.3570 -0.3780  1.1263
  171SOPE   C3619370   3.735   0.540   7.641  0.0437  0.6953  0.3608
  171SOPE   H6X19371   3.665   0.458   7.667 -0.6388  0.7558 -1.1969
  171SOPE   H6Y19372   3.684   0.631   7.678 -0.2618 -0.5085  3.2460
  171SOPE   C3719373   3.863   0.513   7.719  0.1767  0.4440  0.6829
  171SOPE   H7X19374   3.921   0.608   7.715 -0.4949  0.8263 -1.6884
  171SOPE   H7Y19375   3.914   0.422   7.683  1.1634  0.5077  1.8420
  171SOPE   C3819376   3.835   0.469   7.864  0.7487  0.0389 -0.4624
  171SOPE   H8X19377   3.782   0.372   7.855  0.8978  0.0833 -2.0659
  171SOPE   H8Y19378   3.762   0.545   7.900  0.7515 -1.0501  2.0286
  171SOPE   C3919379   3.952   0.478   7.961  1.0605 -0.3969 -0.2081
  171SOPE   H9X19380   3.987   0.582   7.944  0.6259 -0.2227 -0.0563
  171SOPE   H9Y19381   4.029   0.409   7.922  1.5227 -0.4871  0.8493
  171SOPE  C31019382   3.925   0.453   8.107  0.4787 -0.2550 -0.3444
  171SOPE  H10X19383   3.865   0.542   8.137 -1.8771 -1.5417 -1.0674
  171SOPE  H10Y19384   4.024   0.453   8.157  1.1408 -1.2619 -1.6094
  171SOPE  C31119385   3.857   0.318   8.149  0.2137  0.3773  0.0747
  171SOPE  H11X19386   3.756   0.331   8.106  0.1804 -0.8980 -0.2833
  171SOPE  H11Y19387   3.849   0.324   8.259  1.2802 -0.7669  0.2417
  171SOPE  C31219388   3.924   0.187   8.101  0.3504 -0.0836  0.2380
  171SOPE  H12X19389   3.947   0.212   7.995  0.6106 -0.6465  0.1562
  171SOPE  H12Y19390   3.847   0.106   8.100 -0.6851  0.8699 -0.2559
  171SOPE  C31319391   4.051   0.150   8.175  0.3230 -1.0541 -0.0352
  171SOPE  H13X19392   4.127   0.229   8.191  1.5382 -2.6315  2.6232
  171SOPE  H13Y19393   4.108   0.072   8.119  0.9474 -1.5630  1.2747
  171SOPE  C31419394   4.025   0.084   8.308  0.2761  0.2102  0.1882
  171SOPE  H14X19395   3.921   0.045   8.309 -0.6827  2.2874 -3.4125
  171SOPE  H14Y19396   4.031   0.160   8.389 -2.3755  0.2218  0.4541
  171SOPE  C31519397   4.117  -0.028   8.352  0.5979  0.4591 -0.7074
  171SOPE  H15X19398   4.216  -0.006   8.308  1.7734 -2.3711  0.2831
  171SOPE  H15Y19399   4.074  -0.119   8.305 -0.7899  0.3121  0.7358
  171SOPE  C31619400   4.123  -0.053   8.507 -0.0245  0.6194 -0.5957
  171SOPE  H16X19401   4.176  -0.149   8.524 -0.4404  0.5319  0.2981
  171SOPE  H16Y19402   4.026  -0.076   8.557  0.6538 -0.2668  0.3551
  171SOPE  C31719403   4.196   0.059   8.592 -0.0296 -0.2153 -0.0779
  171SOPE  H17X19404   4.161   0.161   8.566 -1.6038 -0.9966 -1.1638
  171SOPE  H17Y19405   4.303   0.063   8.561  0.7489  0.4473  2.4510
  171SOPE  C31819406   4.198   0.041   8.743  0.6767  0.0115 -0.2559
  171SOPE  H18X19407   4.284   0.084   8.800  2.2507 -0.2396 -2.3248
  171SOPE  H18Y19408   4.224  -0.067   8.751  1.7064  0.3192  0.8913
  171SOPE  H18Z19409   4.110   0.067   8.806  0.0534  0.2048 -1.1902
  172SOPE     N19410   5.089   0.881   6.508 -0.3973 -0.5680 -0.2068
  172SOPE   HN119411   5.089   0.879   6.612 -1.3103  2.4074 -0.0529
  172SOPE   HN219412   5.029   0.959   6.474 -1.0372  1.4071  4.5685
  172SOPE   HN319413   5.065   0.785   6.477  3.2941 -1.8124  0.3196
  172SOPE   C1219414   5.227   0.919   6.455 -0.3450  0.3660 -0.2132
  172SOPE  H12A19415   5.259   1.017   6.496  0.1169  0.0507  0.1848
  172SOPE  H12B19416   5.213   0.917   6.345 -1.4855  0.9278 -0.0895
  172SOPE   C1119417   5.323   0.803   6.481  0.2699 -0.6276 -0.2012
  172SOPE  H11A19418   5.331   0.798   6.592 -4.6158 -0.8009  0.3197
  172SOPE  H11B19419   5.423   0.829   6.440  0.0965 -1.0201 -0.8754
  172SOPE     P19420   5.372   0.576   6.377  0.2610  0.4104  0.3843
  172SOPE   O1319421   5.430   0.630   6.253  0.1721 -0.1098  0.4857
  172SOPE   O1419422   5.312   0.440   6.376 -0.1580 -0.5455 -0.2923
  172SOPE   O1219423   5.268   0.679   6.439  0.2330  0.1766 -0.4081
  172SOPE   O1119424   5.483   0.573   6.487 -0.0716 -0.1639 -0.0409
  172SOPE    C119425   5.483   0.476   6.593  0.3197  0.2928 -0.6138
  172SOPE    HA19426   5.551   0.396   6.558 -1.4501 -0.8565 -1.6041
  172SOPE    HB19427   5.385   0.427   6.613  0.5512 -0.7030 -1.7495
  172SOPE    C219428   5.523   0.541   6.730  0.3891 -0.1134  0.4722
  172SOPE    HS19429   5.464   0.634   6.743  0.8344 -0.2273  4.1034
  172SOPE   O2119430   5.662   0.570   6.731  0.3817  0.1131  0.0009
  172SOPE   C2119431   5.700   0.676   6.804 -0.1917 -0.3446 -0.4906
  172SOPE   O2219432   5.624   0.741   6.873  0.2730  0.1084  0.0680
  172SOPE   C2219433   5.848   0.701   6.782  0.3167 -0.1454  0.3839
  172SOPE   H2R19434   5.855   0.781   6.705  1.2275  0.5214  1.1342
  172SOPE   H2S19435   5.916   0.620   6.747  1.4436  0.7579  0.4289
  172SOPE    C319436   5.489   0.443   6.843 -0.8936  0.0386  0.3308
  172SOPE    HX19437   5.545   0.353   6.812 -1.2307  0.2969 -1.1412
  172SOPE    HY19438   5.380   0.421   6.834 -1.2308  1.4204  0.7276
  172SOPE   O3119439   5.511   0.487   6.972  0.0578  0.1181 -0.0120
  172SOPE   C3119440   5.433   0.588   7.013  0.3371 -0.0605 -0.1330
  172SOPE   O3219441   5.333   0.636   6.955 -0.0975 -0.0888  0.1374
  172SOPE   C3219442   5.488   0.632   7.150 -1.0392  0.3246 -0.3994
  172SOPE   H2X19443   5.416   0.711   7.182 -1.6639 -0.3444 -0.1116
  172SOPE   H2Y19444   5.589   0.676   7.138 -0.2663 -1.5933 -1.2356
  172SOPE   C2319445   5.908   0.762   6.909  0.7203 -0.0303 -0.2800
  172SOPE   H3R19446   5.844   0.849   6.936  0.1825 -0.0747 -1.3565
  172SOPE   H3S19447   6.012   0.799   6.897  1.3523 -1.5568  0.2160
  172SOPE   C2419448   5.912   0.665   7.032 -0.3308 -0.2615 -0.1254
  172SOPE   H4R19449   5.810   0.620   7.036 -1.0999  1.3275 -1.1256
  172SOPE   H4S19450   5.981   0.582   7.005  0.8431  0.4723  0.5508
  172SOPE   C2519451   5.944   0.723   7.173 -0.5460  0.6198 -0.1196
  172SOPE   H5R19452   6.008   0.813   7.169 -0.9339  0.9134  0.1567
  172SOPE   H5S19453   5.852   0.756   7.226 -0.2943 -1.4586  1.7409
  172SOPE   C2619454   5.995   0.614   7.270 -0.5593 -0.1591 -0.7955
  172SOPE   H6R19455   5.951   0.512   7.264  0.2120 -0.4355 -2.1323
  172SOPE   H6S19456   6.103   0.594   7.250 -0.2674 -1.3786  1.5828
  172SOPE   C2719457   6.011   0.668   7.422 -0.9382 -0.2448  0.2393
  172SOPE   H7R19458   6.082   0.753   7.409 -0.7797 -0.5605 -1.1496
  172SOPE   H7S19459   5.914   0.714   7.450 -0.7885  0.1049  0.1993
  172SOPE   C2819460   6.066   0.567   7.523 -0.4824 -0.0517 -0.6500
  172SOPE   H8R19461   6.138   0.506   7.465  2.6590  2.5525  0.2312
  172SOPE   H8S19462   6.136   0.616   7.593 -0.9609 -0.7244  0.3205
  172SOPE   C2919463   5.964   0.483   7.598 -0.1186 -0.2977 -0.3837
  172SOPE   H9119464   5.890   0.433   7.535 -2.0856  1.9408 -0.0033
  172SOPE  C21019465   5.954   0.466   7.733 -0.1909  0.0128  0.0025
  172SOPE  H10119466   5.868   0.414   7.778 -2.0718  2.6948 -0.2572
  172SOPE  C21119467   6.037   0.533   7.838 -0.1349  0.0683  0.4406
  172SOPE  H11R19468   5.983   0.571   7.926 -2.6057 -0.3359 -0.8204
  172SOPE  H11S19469   6.078   0.629   7.800 -0.6304  0.5601  1.1233
  172SOPE  C21219470   6.153   0.445   7.884  0.3676 -0.2711 -0.1585
  172SOPE  H12R19471   6.232   0.430   7.806  0.0070 -0.4784 -0.4876
  172SOPE  H12S19472   6.106   0.349   7.915  0.7615  0.1374  1.8189
  172SOPE  C21319473   6.218   0.505   8.009 -0.0493  0.3591 -0.9777
  172SOPE  H13R19474   6.286   0.425   8.044  0.3125  0.6137 -1.0925
  172SOPE  H13S19475   6.145   0.527   8.090  0.3115 -3.1359  0.4535
  172SOPE  C21419476   6.309   0.617   7.974  0.4164  0.0498  0.2385
  172SOPE  H14R19477   6.254   0.679   7.900 -0.0302 -0.6662 -0.0355
  172SOPE  H14S19478   6.395   0.566   7.924 -1.2804 -1.4694 -1.2481
  172SOPE  C21519479   6.362   0.704   8.096  0.1058  0.3398  0.1057
  172SOPE  H15R19480   6.280   0.751   8.155 -0.6283  0.2670 -0.8168
  172SOPE  H15S19481   6.420   0.792   8.059  1.0314 -0.4629 -0.3849
  172SOPE  C21619482   6.443   0.623   8.201 -0.1157 -0.2356 -0.4255
  172SOPE  H16R19483   6.545   0.595   8.167  1.1336  0.6534  2.2986
  172SOPE  H16S19484   6.387   0.539   8.247  0.8841 -0.5823  0.1702
  172SOPE  C21719485   6.481   0.722   8.319 -0.7288  0.1764  0.2716
  172SOPE  H17R19486   6.381   0.761   8.350 -1.8795 -0.7545 -2.0067
  172SOPE  H17S19487   6.543   0.806   8.283 -0.3519  0.8057  2.2641
  172SOPE  C21819488   6.557   0.654   8.435  0.7723  0.6627 -0.2532
  172SOPE  H18R19489   6.510   0.554   8.444 -3.5636  2.6041  1.1434
  172SOPE  H18S19490   6.539   0.704   8.532 -1.2954  2.0186 -1.2760
  172SOPE  H18T19491   6.665   0.648   8.410  0.5740  0.2523 -1.0554
  172SOPE   C3319492   5.506   0.522   7.254  0.1651 -0.0517 -0.0754
  172SOPE   H3X19493   5.563   0.434   7.220 -0.1082 -0.6160  0.8917
  172SOPE   H3Y19494   5.408   0.472   7.269  0.9337 -1.1187  1.7415
  172SOPE   C3419495   5.560   0.583   7.387 -0.4684  0.2742  0.0528
  172SOPE   H4X19496   5.492   0.663   7.422 -1.5431 -0.1389 -1.0404
  172SOPE   H4Y19497   5.651   0.636   7.352 -0.6842  0.4022 -0.3167
  172SOPE   C3519498   5.603   0.475   7.488 -0.0087 -0.5251  0.6505
  172SOPE   H5X19499   5.630   0.510   7.590  2.0824 -1.3251  0.4125
  172SOPE   H5Y19500   5.693   0.429   7.442 -0.4790  1.6039 -2.7986
  172SOPE   C3619501   5.490   0.373   7.505 -0.0663  0.1564 -0.2330
  172SOPE   H6X19502   5.462   0.319   7.412  1.9327  1.1794 -1.5150
  172SOPE   H6Y19503   5.401   0.432   7.537  0.0806 -0.0148  0.5042
  172SOPE   C3719504   5.506   0.289   7.630 -0.3614  0.2334  0.5687
  172SOPE   H7X19505   5.539   0.349   7.717  0.6156  0.6522 -0.0698
  172SOPE   H7Y19506   5.584   0.212   7.609 -0.7911 -0.8636  2.7428
  172SOPE   C3819507   5.377   0.219   7.671 -0.2210  0.3766 -0.2676
  172SOPE   H8X19508   5.327   0.172   7.583 -1.1685  1.5354 -0.3742
  172SOPE   H8Y19509   5.299   0.287   7.711 -0.9352 -0.0552 -0.8936
  172SOPE   C3919510   5.395   0.105   7.779 -0.3661 -0.7564  0.1093
  172SOPE   H9X19511   5.302   0.064   7.824 -1.8511  1.1497 -1.0211
  172SOPE   H9Y19512   5.437   0.160   7.866 -1.2088  0.8498 -0.4492
  172SOPE  C31019513   5.476  -0.020   7.736 -0.2634 -0.5931  0.4225
  172SOPE  H10X19514   5.572   0.001   7.685 -0.9429  0.5934 -0.4068
  172SOPE  H10Y19515   5.425  -0.069   7.650  0.8544  1.1990 -1.3655
  172SOPE  C31119516   5.521  -0.098   7.862 -0.3762  0.7752  0.2398
  172SOPE  H11X19517   5.604  -0.050   7.918  1.2450 -0.6360 -0.8303
  172SOPE  H11Y19518   5.577  -0.180   7.812  0.1105  0.7184  0.8664
  172SOPE  C31219519   5.406  -0.167   7.950 -0.2161  0.0441  0.5405
  172SOPE  H12X19520   5.351  -0.226   7.874 -0.8951  1.6746 -0.3048
  172SOPE  H12Y19521   5.338  -0.087   7.987 -2.1076 -1.5326  0.6005
  172SOPE  C31319522   5.453  -0.256   8.064  0.2401 -0.0521  0.5646
  172SOPE  H13X19523   5.518  -0.341   8.033  0.8431  0.4649  0.3672
  172SOPE  H13Y19524   5.367  -0.300   8.118  0.7545 -0.2392  1.2464
  172SOPE  C31419525   5.537  -0.187   8.164 -0.3593 -0.7162 -0.9688
  172SOPE  H14X19526   5.638  -0.164   8.124 -0.3450  2.9604  0.7540
  172SOPE  H14Y19527   5.561  -0.246   8.255  1.1076 -1.4938 -1.8044
  172SOPE  C31519528   5.470  -0.053   8.196  0.2209  0.9658 -0.8642
  172SOPE  H15X19529   5.361  -0.072   8.202  0.2405  1.2227  1.3376
  172SOPE  H15Y19530   5.483   0.021   8.114 -1.4832  2.1372 -0.1386
  172SOPE  C31619531   5.509   0.005   8.333 -0.2509 -0.3064 -0.0896
  172SOPE  H16X19532   5.616   0.033   8.344  0.3962 -2.4859 -0.3310
  172SOPE  H16Y19533   5.505  -0.080   8.405  1.8261 -1.1231 -0.8280
  172SOPE  C31719534   5.410   0.121   8.370 -0.1787 -0.1378 -0.9978
  172SOPE  H17X19535   5.418   0.197   8.290 -1.8014  0.4500 -0.6444
  172SOPE  H17Y19536   5.438   0.174   8.464 -0.6599 -0.8736 -0.4258
  172SOPE  C31819537   5.264   0.077   8.397 -0.1111 -0.2877 -0.5185
  172SOPE  H18X19538   5.197   0.162   8.421  0.1894  0.7057 -2.8979
  172SOPE  H18Y19539   5.258   0.006   8.482 -2.7541 -0.5630 -0.8756
  172SOPE  H18Z19540   5.216   0.039   8.304 -0.8923 -2.2465  0.6344
  173SAPI   C1219541   5.752   6.646  10.882  0.5628 -0.1680 -0.0714
  173SAPI    H219542   5.780   6.715  10.800 -0.4122  1.5841  1.0113
  173SAPI    O219543   5.740   6.736  11.000 -0.1958  0.7002  0.1780
  173SAPI   HO219544   5.750   6.823  10.961  0.8604  0.2219 -0.6841
  173SAPI   C1319545   5.629   6.568  10.844  0.4975  0.4161  0.2363
  173SAPI    H319546   5.662   6.509  10.756  2.3492  2.7116 -0.6991
  173SAPI    O319547   5.526   6.656  10.791 -0.0670  0.1155 -0.8312
  173SAPI   HO319548   5.485   6.700  10.865  2.0271 -3.2695  2.7071
  173SAPI   C1419549   5.578   6.490  10.969 -0.2278  0.3543 -0.2659
  173SAPI    H419550   5.572   6.568  11.048  1.0249  1.3271 -1.1066
  173SAPI    O419551   5.447   6.429  10.957  0.0769 -0.0604  0.6702
  173SAPI   HO419552   5.443   6.374  10.878 -0.6996  2.1162 -0.9084
  173SAPI   C1519553   5.691   6.388  11.009 -0.2382  0.2282  0.3841
  173SAPI    H519554   5.692   6.315  10.926 -0.9302  1.3347 -0.6240
  173SAPI    O519555   5.652   6.315  11.128 -0.1739 -0.6594  0.0005
  173SAPI   HO519556   5.591   6.245  11.103 -1.6423  0.1631  1.1587
  173SAPI   C1619557   5.825   6.452  11.022  0.8169 -0.0583  0.3174
  173SAPI    H619558   5.810   6.514  11.113 -1.5111 -2.4576  1.7143
  173SAPI    O619559   5.923   6.357  11.053  0.0525  0.6642  0.1685
  173SAPI   HO619560   5.988   6.350  10.982 -0.0628  0.1925  0.1079
  173SAPI   C1119561   5.860   6.541  10.903 -0.2238  0.8064 -0.1623
  173SAPI    H119562   5.869   6.479  10.811 -0.1388  0.9198 -0.2310
  173SAPI     P19563   6.117   6.578  10.854 -0.4949  0.1575 -0.3095
  173SAPI   O1319564   6.141   6.434  10.888 -0.0760 -0.2099 -0.1488
  173SAPI   O1419565   6.220   6.676  10.890  0.0965 -0.0603  0.1786
  173SAPI   O1219566   5.975   6.618  10.933  0.5098 -0.8545  0.1865
  173SAPI   O1119567   6.069   6.581  10.707 -0.2274 -0.6650 -0.7449
  173SAPI    C119568   6.026   6.700  10.632  0.1944  0.0349 -0.3687
  173SAPI    HA19569   5.938   6.681  10.567 -0.0159 -0.3638  0.0250
  173SAPI    HB19570   6.003   6.781  10.704 -0.7157 -0.0136 -0.5858
  173SAPI    C219571   6.136   6.745  10.538 -0.5220  0.4098  0.5694
  173SAPI    HS19572   6.090   6.768  10.439 -0.2927 -3.5642 -0.6457
  173SAPI   O2119573   6.239   6.647  10.506  0.0256 -0.2650 -0.3603
  173SAPI   C2119574   6.190   6.543  10.453 -0.3555  1.1986  0.4881
  173SAPI   O2219575   6.076   6.517  10.414  0.0047  0.3584 -0.1283
  173SAPI   C2219576   6.310   6.446  10.458  0.5660 -0.0893  0.3294
  173SAPI   H2R19577   6.375   6.474  10.544  1.4836 -1.3195  0.0607
  173SAPI   H2S19578   6.269   6.343  10.465  1.6232 -0.5886 -0.5741
  173SAPI    C319579   6.212   6.867  10.598 -0.1280 -0.2722  0.1642
  173SAPI    HX19580   6.260   6.831  10.691  1.6167 -3.3925 -1.7612
  173SAPI    HY19581   6.143   6.944  10.638 -2.4814 -0.7205 -2.6611
  173SAPI   O3119582   6.309   6.931  10.508  0.0871 -0.6185  0.2618
  173SAPI   C3119583   6.268   6.984  10.395 -0.0527 -0.3027  0.0195
  173SAPI   O3219584   6.151   6.993  10.360 -0.1694  0.4555 -0.1724
  173SAPI   C3219585   6.384   7.026  10.314 -0.0863 -0.5512  0.3045
  173SAPI   H2X19586   6.463   6.949  10.302  0.8022  0.1790  1.2994
  173SAPI   H2Y19587   6.430   7.104  10.378  1.1072 -1.4565  0.5762
  173SAPI   C2319588   6.395   6.455  10.328 -0.1317  0.3742 -0.0881
  173SAPI   H3R19589   6.483   6.393  10.355 -1.3350 -1.9007 -1.0960
  173SAPI   H3S19590   6.438   6.556  10.308 -0.4000  0.2727 -1.2676
  173SAPI   C2419591   6.335   6.391  10.190 -0.7753 -0.1899  0.1251
  173SAPI   H4R19592   6.279   6.299  10.216 -1.6720  0.8084  1.9409
  173SAPI   H4S19593   6.429   6.362  10.140 -1.9624 -2.6294 -0.8327
  173SAPI   C2519594   6.261   6.479  10.103 -0.0232 -0.3592  0.0937
  173SAPI   H5R19595   6.326   6.565  10.077  1.3502 -0.5136  2.6540
  173SAPI   C2619596   6.136   6.471  10.048 -0.4829  0.6636 -0.7688
  173SAPI   H6R19597   6.093   6.550   9.985 -2.7017  0.3588  0.2618
  173SAPI   C2719598   6.033   6.365  10.079  0.1332 -0.5224 -0.4237
  173SAPI   H7R19599   5.933   6.411  10.068  0.6423  0.2376 -2.2812
  173SAPI   H7S19600   6.034   6.331  10.185 -0.8862 -0.9807 -0.5558
  173SAPI   C2819601   6.059   6.238   9.999 -0.1108  0.0120  0.3812
  173SAPI   H8R19602   6.149   6.180  10.025 -0.3002 -0.4422  0.0302
  173SAPI   C2919603   5.988   6.199   9.890  0.5092  0.2561 -0.2049
  173SAPI   H9R19604   6.018   6.109   9.835  1.2353  1.0144 -1.0642
  173SAPI  C21019605   5.862   6.263   9.827 -1.0545  0.3937  0.1216
  173SAPI  H10R19606   5.895   6.349   9.764 -0.1999 -0.2707 -0.3741
  173SAPI  H10S19607   5.814   6.325   9.905 -1.7602 -1.4989  1.2441
  173SAPI  C21119608   5.760   6.170   9.775  0.9230  0.8264  0.1640
  173SAPI  H11R19609   5.687   6.121   9.841  0.1426 -1.9776 -2.5011
  173SAPI  C21219610   5.741   6.158   9.642  0.0670 -0.1223 -0.4369
  173SAPI  H12R19611   5.672   6.082   9.602 -0.4538 -0.0713  0.3479
  173SAPI  C21319612   5.817   6.229   9.535 -0.2277 -0.4818 -0.0483
  173SAPI  H13R19613   5.830   6.335   9.564 -0.5118 -0.6853  0.8498
  173SAPI  H13S19614   5.754   6.221   9.445 -0.2852  1.7849 -0.2696
  173SAPI  C21419615   5.956   6.171   9.506  0.3586  0.5727 -0.5339
  173SAPI  H14R19616   5.992   6.104   9.585  2.4709  0.8045 -1.2289
  173SAPI  C21519617   6.036   6.192   9.401  0.3648  0.6240 -1.0299
  173SAPI  H15R19618   6.138   6.153   9.414  0.1467  0.0332 -1.0609
  173SAPI  C21619619   5.995   6.268   9.280 -0.3069  0.7305  0.0384
  173SAPI  H16R19620   6.081   6.320   9.232 -1.1704  1.2051 -1.0395
  173SAPI  H16S19621   5.921   6.348   9.304  1.8984  2.4738  1.4591
  173SAPI  C21719622   5.936   6.173   9.168  0.3805 -0.0567 -0.0699
  173SAPI  H17R19623   5.855   6.117   9.220  0.1807  0.5095  0.2278
  173SAPI  H17S19624   6.013   6.101   9.130  1.2980  1.0455 -0.3650
  173SAPI  C21819625   5.887   6.253   9.051  0.3854 -0.0068 -0.2841
  173SAPI  H18R19626   5.820   6.336   9.081  0.5555  0.9374 -2.3654
  173SAPI  H18S19627   5.825   6.190   8.983  1.7501 -0.2896 -1.3096
  173SAPI  C21919628   5.984   6.344   8.972 -0.6879 -0.7172  0.1928
  173SAPI  H19R19629   6.063   6.274   8.936 -0.1779  1.3412 -3.1211
  173SAPI  H19S19630   6.031   6.421   9.038  0.7055 -0.1117 -1.4445
  173SAPI  C22019631   5.929   6.414   8.845 -0.2812 -0.0867  0.0032
  173SAPI  H20R19632   5.860   6.497   8.872 -0.9835 -0.8887  0.7247
  173SAPI  H20S19633   5.866   6.335   8.799  0.3332 -2.3658  2.7334
  173SAPI  H20T19634   6.004   6.449   8.771 -0.7042 -1.9856 -1.3846
  173SAPI   C3319635   6.348   7.080  10.174 -0.3937 -0.2305 -0.3358
  173SAPI   H3X19636   6.441   7.129  10.138  0.4889  0.0010  2.1208
  173SAPI   H3Y19637   6.263   7.152  10.177 -1.0274 -0.9471 -0.7594
  173SAPI   C3419638   6.317   6.958  10.082 -0.5536 -0.2490  0.1417
  173SAPI   H4X19639   6.214   6.926  10.106 -1.0898  1.0575 -0.3367
  173SAPI   H4Y19640   6.385   6.872  10.101 -1.0821 -0.3820  1.5907
  173SAPI   C3519641   6.304   6.995   9.936 -0.0973 -0.2877 -0.5190
  173SAPI   H5X19642   6.377   7.075   9.913 -0.2693 -0.3899 -1.4434
  173SAPI   H5Y19643   6.205   7.041   9.912 -1.0331 -1.8666  0.1843
  173SAPI   C3619644   6.323   6.881   9.838  0.4417  0.3533 -0.0361
  173SAPI   H6X19645   6.233   6.816   9.847  0.7208  0.2128  2.9029
  173SAPI   H6Y19646   6.414   6.831   9.878 -0.7050 -0.1197  2.1521
  173SAPI   C3719647   6.341   6.944   9.702 -0.4494 -0.5743  0.0719
  173SAPI   H7X19648   6.422   7.020   9.711 -1.9593  1.1601 -0.4320
  173SAPI   H7Y19649   6.250   6.999   9.671  0.2920  2.9396  3.3454
  173SAPI   C3819650   6.370   6.838   9.590 -0.1149 -0.1015  0.0139
  173SAPI   H8X19651   6.306   6.748   9.582  0.6793 -0.6003 -1.0394
  173SAPI   H8Y19652   6.478   6.812   9.597 -0.0743 -0.1538 -0.7764
  173SAPI   C3919653   6.379   6.904   9.448  0.5671  0.7095  0.1097
  173SAPI   H9X19654   6.450   6.989   9.458  2.0200 -0.4703  0.0936
  173SAPI   H9Y19655   6.280   6.948   9.420  0.1934  0.8290  1.5281
  173SAPI  C31019656   6.429   6.804   9.345  0.6249 -0.6047 -0.1032
  173SAPI  H10X19657   6.379   6.706   9.361 -0.1784  0.0418  1.5386
  173SAPI  H10Y19658   6.534   6.784   9.374 -0.3139 -2.8276  2.1846
  173SAPI  C31119659   6.429   6.841   9.200 -0.2324 -0.0363 -0.6227
  173SAPI  H11X19660   6.471   6.940   9.175  0.1010 -0.2292 -0.8266
  173SAPI  H11Y19661   6.326   6.831   9.158 -2.7318  3.0274  3.8788
  173SAPI  C31219662   6.506   6.726   9.127  0.4303  0.0708 -0.2218
  173SAPI  H12X19663   6.438   6.642   9.103  0.4280 -0.1346  0.4935
  173SAPI  H12Y19664   6.588   6.680   9.186  0.4120 -0.4997 -0.6294
  173SAPI  C31319665   6.552   6.760   8.985  0.2012 -0.1944 -0.5295
  173SAPI  H13X19666   6.631   6.838   8.988  2.1639 -2.0499 -1.1714
  173SAPI  H13Y19667   6.476   6.806   8.918 -0.1672 -1.6439 -1.1476
  173SAPI  C31419668   6.619   6.640   8.917 -0.4196 -0.0759  0.3319
  173SAPI  H14X19669   6.681   6.585   8.991  2.4873  2.8922  0.2967
  173SAPI  H14Y19670   6.684   6.687   8.841  1.7815  1.9961  3.2900
  173SAPI  C31519671   6.526   6.546   8.845  0.4913  0.8008  0.3504
  173SAPI  H15X19672   6.446   6.533   8.921  0.5863  2.0885  0.6923
  173SAPI  H15Y19673   6.582   6.454   8.818 -0.0028 -0.2617  2.7100
  173SAPI  C31619674   6.462   6.596   8.713  0.5912  0.3798  0.0462
  173SAPI  H16X19675   6.535   6.603   8.629 -0.3015  0.1288 -0.7783
  173SAPI  H16Y19676   6.424   6.700   8.727  0.4437  0.6410 -1.9161
  173SAPI  C31719677   6.336   6.518   8.681 -0.9617 -0.0597 -0.4053
  173SAPI  H17X19678   6.297   6.482   8.779 -1.3873 -3.5441 -1.7273
  173SAPI  H17Y19679   6.365   6.426   8.626  2.2262 -0.5788  1.8755
  173SAPI  C31819680   6.236   6.606   8.607  0.1300  0.0044  0.3069
  173SAPI  H18X19681   6.288   6.662   8.526 -0.1399 -2.1141 -1.4280
  173SAPI  H18Y19682   6.189   6.685   8.669 -2.0067 -0.5194 -0.5567
  173SAPI  H18Z19683   6.149   6.551   8.564  0.4676 -1.0150  0.8916
  174SAPI   C1219684   3.193   0.600  10.911 -0.2692 -0.4586  0.1909
  174SAPI    H219685   3.171   0.653  10.816  1.9425  0.4747  0.1474
  174SAPI    O219686   3.220   0.463  10.888  0.6971  0.0700 -0.5679
  174SAPI   HO219687   3.134   0.421  10.895  0.7731 -0.0950 -0.6428
  174SAPI   C1319688   3.303   0.680  10.980 -0.7340  0.0581  0.3726
  174SAPI    H319689   3.279   0.788  10.978 -2.4353 -0.3064 -0.2777
  174SAPI    O319690   3.428   0.662  10.907  0.1429 -0.1998 -0.6704
  174SAPI   HO319691   3.431   0.568  10.886 -1.5812 -0.2424 -0.8696
  174SAPI   C1419692   3.324   0.636  11.123 -0.3522  0.3235  0.2372
  174SAPI    H419693   3.365   0.532  11.127  0.5451  0.7011  1.3122
  174SAPI    O419694   3.423   0.717  11.182  0.1863 -0.0400  0.0046
  174SAPI   HO419695   3.506   0.705  11.135 -0.6896 -2.9831 -0.9783
  174SAPI   C1519696   3.190   0.651  11.202 -0.8822  0.4766 -0.2597
  174SAPI    H519697   3.150   0.753  11.180 -0.2295  0.4706 -1.5447
  174SAPI    O519698   3.211   0.642  11.340  0.6334  0.1602  0.5182
  174SAPI   HO519699   3.243   0.554  11.363 -1.6948 -0.9571 -0.1822
  174SAPI   C1619700   3.081   0.561  11.141 -0.0851 -0.5871 -0.0759
  174SAPI    H619701   3.119   0.457  11.131  0.9171 -0.1816 -0.5408
  174SAPI    O619702   2.963   0.557  11.229 -0.2503 -0.6406  0.1178
  174SAPI   HO619703   2.918   0.642  11.224 -0.0383 -0.3663  2.0047
  174SAPI   C1119704   3.065   0.613  10.997 -0.1080 -0.0645  1.0404
  174SAPI    H119705   3.043   0.722  11.005 -0.0426 -0.1487  2.7999
  174SAPI     P19706   2.849   0.615  10.840 -0.2184 -0.1309  0.0940
  174SAPI   O1319707   2.826   0.751  10.883  0.2858 -0.3804  0.3545
  174SAPI   O1419708   2.734   0.517  10.845  0.0404 -0.2119  1.0302
  174SAPI   O1219709   2.959   0.538  10.937  0.0485  0.0128 -0.3188
  174SAPI   O1119710   2.925   0.606  10.704 -0.2221 -0.1144  0.5071
  174SAPI    C119711   2.926   0.481  10.634 -0.2310  0.5237  0.6487
  174SAPI    HA19712   2.910   0.391  10.697  1.2156  0.2057  0.5982
  174SAPI    HB19713   2.845   0.490  10.559  0.3384  1.6103  0.1437
  174SAPI    C219714   3.052   0.455  10.546  0.1547  0.0931 -0.0990
  174SAPI    HS19715   3.148   0.460  10.602  2.1498 -0.7112 -3.1902
  174SAPI   O2119716   3.061   0.561  10.445  0.0670  0.2318  0.3943
  174SAPI   C2119717   3.174   0.594  10.386 -0.4427  0.2460 -0.2119
  174SAPI   O2219718   3.283   0.544  10.416  0.5408 -0.0534  0.0782
  174SAPI   C2219719   3.155   0.704  10.282  0.0867 -0.8334 -0.7614
  174SAPI   H2R19720   3.056   0.719  10.233  0.5587 -1.5062 -1.9814
  174SAPI   H2S19721   3.169   0.792  10.348  1.9663 -2.1161  0.6833
  174SAPI    C319722   3.045   0.316  10.482 -0.2840  0.1882 -0.2461
  174SAPI    HX19723   2.948   0.309  10.428 -1.0420 -0.3002  1.1498
  174SAPI    HY19724   3.039   0.239  10.561 -0.5505 -0.0553 -0.5043
  174SAPI   O3119725   3.145   0.292  10.382  0.3382  0.9488  0.5919
  174SAPI   C3119726   3.262   0.257  10.414  0.1564  0.2254  0.6176
  174SAPI   O3219727   3.307   0.253  10.526 -0.8645  0.0282 -0.2688
  174SAPI   C3219728   3.344   0.222  10.288 -0.2768  0.4809  0.0298
  174SAPI   H2X19729   3.371   0.312  10.230  0.1989  0.0519 -0.4291
  174SAPI   H2Y19730   3.277   0.159  10.226 -1.6527  0.7669  1.1840
  174SAPI   C2319731   3.245   0.699  10.163 -0.2122 -0.0271  0.4780
  174SAPI   H3R19732   3.341   0.645  10.178  0.7596  1.2274 -0.8871
  174SAPI   H3S19733   3.265   0.800  10.120  0.3999 -0.8684 -1.3251
  174SAPI   C2419734   3.187   0.623  10.040 -0.4851  1.1095  0.1629
  174SAPI   H4R19735   3.250   0.641   9.950 -1.9159 -1.1339 -1.3848
  174SAPI   H4S19736   3.081   0.655  10.023 -0.4632  2.2955  1.9168
  174SAPI   C2519737   3.191   0.468  10.048  0.6580 -0.3947  0.2782
  174SAPI   H5R19738   3.155   0.423  10.142  0.0968 -1.3649 -0.3903
  174SAPI   C2619739   3.252   0.385   9.963 -0.1083 -1.2466 -0.0148
  174SAPI   H6R19740   3.246   0.278   9.988  2.2684 -1.1227  1.3893
  174SAPI   C2719741   3.335   0.398   9.839 -0.0361 -0.5727 -0.3679
  174SAPI   H7R19742   3.438   0.366   9.862 -0.4304 -0.4092  1.9056
  174SAPI   H7S19743   3.341   0.502   9.800 -3.2261 -1.0788 -2.5962
  174SAPI   C2819744   3.265   0.317   9.733 -0.0840  0.6727 -0.3038
  174SAPI   H8R19745   3.205   0.233   9.771  0.2819  0.9703  1.0212
  174SAPI   C2919746   3.283   0.319   9.602  0.2483 -0.0897  0.0416
  174SAPI   H9R19747   3.220   0.254   9.539 -0.0500  0.1101  0.1305
  174SAPI  C21019748   3.365   0.420   9.523  0.2320  0.1885  0.5516
  174SAPI  H10R19749   3.422   0.488   9.590 -1.4723  0.6017  1.6429
  174SAPI  H10S19750   3.287   0.484   9.476 -0.0591  0.9171  1.9809
  174SAPI  C21119751   3.455   0.347   9.429 -0.4727  0.1903  0.4423
  174SAPI  H11R19752   3.550   0.305   9.464 -1.9284 -1.9150  2.0971
  174SAPI  C21219753   3.435   0.310   9.298 -0.0314 -0.0363 -0.4905
  174SAPI  H12R19754   3.519   0.261   9.247 -0.2984  0.2765 -1.2387
  174SAPI  C21319755   3.305   0.325   9.219  0.6008  0.4459 -0.4639
  174SAPI  H13R19756   3.213   0.317   9.280  1.0791 -0.8546  0.1377
  174SAPI  H13S19757   3.305   0.235   9.153  1.8453 -0.8057  1.1245
  174SAPI  C21419758   3.290   0.452   9.143 -0.4450 -0.1962  0.2757
  174SAPI  H14R19759   3.321   0.539   9.203 -2.4028 -0.1940  1.3755
  174SAPI  C21519760   3.253   0.464   9.010 -0.1963 -0.9303 -0.6360
  174SAPI  H15R19761   3.241   0.565   8.967 -0.5979 -0.4427  0.5716
  174SAPI  C21619762   3.224   0.355   8.910  0.0524  0.0580 -0.1095
  174SAPI  H16R19763   3.114   0.339   8.903  0.1257 -0.4437 -0.1628
  174SAPI  H16S19764   3.267   0.261   8.951  2.8408  1.1145 -0.3830
  174SAPI  C21719765   3.284   0.375   8.770  0.2300 -0.1375  0.0160
  174SAPI  H17R19766   3.394   0.388   8.782 -0.2377  2.0939  3.2311
  174SAPI  H17S19767   3.223   0.458   8.727  0.0953  0.1298  0.7051
  174SAPI  C21819768   3.254   0.251   8.691 -0.1136  0.4624  0.3164
  174SAPI  H18R19769   3.151   0.217   8.715 -0.7538  1.5478 -0.7456
  174SAPI  H18S19770   3.325   0.169   8.715 -0.9079 -0.4102 -0.2603
  174SAPI  C21919771   3.262   0.268   8.543 -0.5402 -0.0459  0.7509
  174SAPI  H19R19772   3.208   0.360   8.512  1.4122  1.1724  0.7590
  174SAPI  H19S19773   3.217   0.174   8.504 -2.2175  1.1243 -0.2472
  174SAPI  C22019774   3.404   0.267   8.488  0.1102  0.4578 -0.4064
  174SAPI  H20R19775   3.449   0.171   8.522 -1.1849  0.5031  1.5976
  174SAPI  H20S19776   3.467   0.348   8.530 -0.6433  1.3096 -0.8912
  174SAPI  H20T19777   3.413   0.272   8.377 -0.1195 -0.0692 -0.4522
  174SAPI   C3319778   3.476   0.141  10.317 -0.4220  0.0268 -0.3659
  174SAPI   H3X19779   3.472   0.045  10.373  1.9662  0.5277  0.8500
  174SAPI   H3Y19780   3.532   0.205  10.389 -3.0076  1.8682  0.1524
  174SAPI   C3419781   3.571   0.121  10.199  1.0304  0.3412 -0.1533
  174SAPI   H4X19782   3.657   0.053  10.221  0.7236 -0.3357 -1.0128
  174SAPI   H4Y19783   3.604   0.220  10.160  0.4630  1.7211  2.5786
  174SAPI   C3519784   3.507   0.048  10.077  0.6184 -0.3408 -0.4772
  174SAPI   H5X19785   3.412   0.100  10.051  1.0948  0.0817 -1.4321
  174SAPI   H5Y19786   3.476  -0.050  10.120  1.8918 -0.8863 -0.7453
  174SAPI   C3619787   3.603   0.054   9.957  0.0010 -0.0654 -0.3016
  174SAPI   H6X19788   3.692  -0.002   9.994  0.0036 -0.5027 -0.9449
  174SAPI   H6Y19789   3.641   0.152   9.920  1.9731 -1.0020 -0.9523
  174SAPI   C3719790   3.534  -0.017   9.834  0.3770  0.0797 -0.3936
  174SAPI   H7X19791   3.443   0.040   9.804  0.8464  0.1827 -1.6879
  174SAPI   H7Y19792   3.494  -0.115   9.868  1.4520 -0.6268 -1.1128
  174SAPI   C3819793   3.609  -0.022   9.701 -0.5722 -0.4155  0.3022
  174SAPI   H8X19794   3.681  -0.107   9.707 -1.0735 -1.1462 -2.4609
  174SAPI   H8Y19795   3.676   0.066   9.688  0.6303 -1.0641  1.7663
  174SAPI   C3919796   3.530  -0.057   9.578 -0.4808  0.2088  0.7305
  174SAPI   H9X19797   3.463   0.025   9.544  1.0887  0.6873 -1.3815
  174SAPI   H9Y19798   3.467  -0.142   9.610 -1.4941 -0.1900 -2.1086
  174SAPI  C31019799   3.613  -0.083   9.452  0.5928  0.6141 -0.3797
  174SAPI  H10X19800   3.685  -0.163   9.480  0.2442  0.4084 -0.0566
  174SAPI  H10Y19801   3.684  -0.003   9.424  1.5321  0.6917  2.0032
  174SAPI  C31119802   3.536  -0.140   9.332 -0.4502  0.6559 -0.2226
  174SAPI  H11X19803   3.447  -0.080   9.303 -0.8993  0.1571  0.1047
  174SAPI  H11Y19804   3.505  -0.243   9.360 -0.3331  1.0635  1.4683
  174SAPI  C31219805   3.634  -0.163   9.210  0.1746 -0.8000 -0.8192
  174SAPI  H12X19806   3.605  -0.253   9.152 -2.6156  0.0650 -0.9332
  174SAPI  H12Y19807   3.739  -0.175   9.244 -0.4283  1.0718  2.0988
  174SAPI  C31319808   3.637  -0.039   9.118 -0.3846  0.4831  0.0420
  174SAPI  H13X19809   3.656   0.052   9.179  0.2330  1.0770 -1.0019
  174SAPI  H13Y19810   3.533  -0.031   9.078 -1.7395 -2.0103  2.6727
  174SAPI  C31419811   3.746  -0.047   9.007  1.0589 -0.2761 -0.0454
  174SAPI  H14X19812   3.744  -0.150   8.965  0.9465  0.6532 -2.5210
  174SAPI  H14Y19813   3.848  -0.054   9.051 -0.7459 -1.5995  4.5341
  174SAPI  C31519814   3.738   0.067   8.897 -0.2853  0.5518  0.0367
  174SAPI  H15X19815   3.816   0.143   8.920 -2.1337  2.4084  0.5667
  174SAPI  H15Y19816   3.648   0.130   8.916  0.4101  1.1881  1.3857
  174SAPI  C31619817   3.752  -0.005   8.767  0.6130 -0.0332 -0.2476
  174SAPI  H16X19818   3.679  -0.088   8.763  0.3628  0.1252  0.7373
  174SAPI  H16Y19819   3.852  -0.052   8.757 -0.2130 -2.5626  2.1885
  174SAPI  C31719820   3.728   0.087   8.643 -0.1662  0.2294  0.0932
  174SAPI  H17X19821   3.821   0.145   8.625  0.8506 -1.4548 -0.3225
  174SAPI  H17Y19822   3.642   0.155   8.661  0.7895  1.8849 -1.2369
  174SAPI  C31819823   3.705   0.014   8.518  0.2402 -0.6231  0.6101
  174SAPI  H18X19824   3.602  -0.027   8.505  0.1777 -0.5191  0.7683
  174SAPI  H18Y19825   3.770  -0.075   8.507 -0.9158 -1.3922 -0.3443
  174SAPI  H18Z19826   3.721   0.083   8.433 -1.1839 -1.3053 -0.2537
  175SAPI   C1219827   5.824   4.679   6.023  0.2270  0.3844  0.5024
  175SAPI    H219828   5.743   4.609   5.995  2.0189 -1.7461  0.3215
  175SAPI    O219829   5.953   4.627   5.984 -0.4715  0.2740  0.0108
  175SAPI   HO219830   5.940   4.534   5.965 -1.7781  0.4827 -0.2101
  175SAPI   C1319831   5.795   4.798   5.923 -0.2716  1.0117 -0.7248
  175SAPI    H319832   5.688   4.824   5.939 -0.6249  0.2419 -1.7504
  175SAPI    O319833   5.802   4.755   5.785  0.2095  0.5510 -0.4409
  175SAPI   HO319834   5.894   4.732   5.768  0.2155 -1.5832  2.0096
  175SAPI   C1419835   5.888   4.908   5.951  0.4229 -0.0437 -0.3729
  175SAPI    H419836   5.990   4.876   5.921  1.0462  0.7063  0.8392
  175SAPI    O419837   5.842   5.016   5.877 -0.5375  0.2844  0.3354
  175SAPI   HO419838   5.912   5.081   5.883 -0.3299 -0.0395  2.7784
  175SAPI   C1519839   5.875   4.953   6.100 -0.4496  0.0805  0.1703
  175SAPI    H519840   5.767   4.973   6.114 -0.7072 -0.6767 -0.6328
  175SAPI    O519841   5.948   5.074   6.133 -0.8911  0.5936  0.4887
  175SAPI   HO519842   6.038   5.068   6.100 -0.7304  1.1613  0.8058
  175SAPI   C1619843   5.919   4.834   6.190  0.7088 -0.5791  0.5345
  175SAPI    H619844   6.023   4.804   6.166  1.2876  0.5565  1.5161
  175SAPI    O619845   5.926   4.880   6.322  0.2318 -0.6096  0.1962
  175SAPI   HO619846   5.909   4.975   6.321 -0.6101 -0.7506 -0.2388
  175SAPI   C1119847   5.820   4.719   6.168 -0.7910 -0.0563 -0.0580
  175SAPI    H119848   5.721   4.757   6.200 -0.0451  2.5420 -0.6025
  175SAPI     P19849   5.750   4.498   6.287  0.0836  0.4593 -0.2818
  175SAPI   O1319850   5.826   4.369   6.316  0.0248 -0.3050  0.1026
  175SAPI   O1419851   5.656   4.495   6.176  0.4002  0.0230  0.1543
  175SAPI   O1219852   5.861   4.611   6.251  0.8926 -0.6540  0.3279
  175SAPI   O1119853   5.674   4.554   6.418 -0.0819  0.6845  0.1811
  175SAPI    C119854   5.705   4.668   6.500  0.5572  0.2967  0.7508
  175SAPI    HA19855   5.714   4.759   6.438  2.0440 -0.4384 -0.1718
  175SAPI    HB19856   5.633   4.679   6.583  0.6121 -1.5713  1.1002
  175SAPI    C219857   5.839   4.646   6.570 -0.1099 -0.5798  1.0019
  175SAPI    HS19858   5.913   4.655   6.488  2.7109 -1.5039  3.2824
  175SAPI   O2119859   5.841   4.514   6.630 -0.1584 -0.7202  0.3719
  175SAPI   C2119860   5.950   4.451   6.675 -0.1088 -0.0006  0.0305
  175SAPI   O2219861   6.068   4.481   6.653 -0.1796  0.2752  0.3536
  175SAPI   C2219862   5.914   4.325   6.749  0.5299  0.2634 -0.3143
  175SAPI   H2R19863   6.006   4.271   6.782 -0.3025  1.0225  3.7765
  175SAPI   H2S19864   5.856   4.355   6.839  1.7490 -2.0868  1.3664
  175SAPI    C319865   5.866   4.761   6.667 -0.0551  0.0094  0.3532
  175SAPI    HX19866   5.878   4.862   6.622 -0.7749  0.1045  0.3614
  175SAPI    HY19867   5.967   4.756   6.712  0.6624 -1.4684 -1.3094
  175SAPI   O3119868   5.761   4.764   6.767 -0.0669  0.2169  0.5555
  175SAPI   C3119869   5.736   4.884   6.823 -0.7448  0.1421 -0.0013
  175SAPI   O3219870   5.777   4.990   6.787 -0.6273  0.0820  0.5438
  175SAPI   C3219871   5.636   4.869   6.932 -0.1834  0.6457 -0.1005
  175SAPI   H2X19872   5.620   4.760   6.948  2.3097  0.3010  0.5274
  175SAPI   H2Y19873   5.540   4.905   6.890  1.2429  0.6237 -3.6755
  175SAPI   C2319874   5.825   4.228   6.663 -0.2004  0.5649  0.2860
  175SAPI   H3R19875   5.888   4.172   6.591  0.1887  2.0069 -0.5334
  175SAPI   H3S19876   5.760   4.281   6.590  2.0669  0.4047 -1.9607
  175SAPI   C2419877   5.752   4.126   6.748 -0.1893 -0.1977 -0.0610
  175SAPI   H4R19878   5.682   4.080   6.676  0.4263  0.8528 -1.3911
  175SAPI   H4S19879   5.677   4.165   6.821 -0.9577  0.3143 -1.0971
  175SAPI   C2519880   5.857   4.026   6.806  0.0437 -0.6824 -0.1407
  175SAPI   H5R19881   5.922   3.974   6.733  0.7258  1.3336 -1.0602
  175SAPI   C2619882   5.889   4.009   6.933  0.1294 -0.5277 -0.8604
  175SAPI   H6R19883   5.962   3.935   6.968 -0.7330 -1.5671 -1.2421
  175SAPI   C2719884   5.814   4.085   7.049  0.1247  0.3532  0.9863
  175SAPI   H7R19885   5.709   4.109   7.021  0.1088 -1.9163 -1.2977
  175SAPI   H7S19886   5.871   4.179   7.066  1.0597 -0.1899  0.9360
  175SAPI   C2819887   5.833   4.025   7.183 -0.1721  0.5852 -0.0709
  175SAPI   H8R19888   5.924   3.966   7.200 -0.7250 -0.5289 -0.8010
  175SAPI   C2919889   5.740   4.011   7.283  0.0397  0.1417  0.3873
  175SAPI   H9R19890   5.776   3.954   7.370 -0.1902 -0.3498  0.1580
  175SAPI  C21019891   5.592   4.057   7.275  0.4708  0.3919  0.1470
  175SAPI  H10R19892   5.569   4.131   7.195 -0.7710 -0.3549 -0.2204
  175SAPI  H10S19893   5.575   4.105   7.374 -0.8718 -0.3719  0.3090
  175SAPI  C21119894   5.506   3.933   7.261  0.7577  0.5228  0.0814
  175SAPI  H11R19895   5.486   3.886   7.358 -0.7935 -1.6110 -1.1951
  175SAPI  C21219896   5.436   3.898   7.147  0.1907 -0.3978 -0.0245
  175SAPI  H12R19897   5.364   3.816   7.159  0.5216 -0.6543  0.1852
  175SAPI  C21319898   5.437   3.978   7.021 -0.1986  0.1968  0.2795
  175SAPI  H13R19899   5.544   3.979   6.991 -0.0036  1.9195  0.9091
  175SAPI  H13S19900   5.393   4.078   7.042 -0.3223  0.3960 -0.8259
  175SAPI  C21419901   5.362   3.909   6.908 -0.8549 -0.6664 -0.0292
  175SAPI  H14R19902   5.388   3.805   6.884 -1.1838 -1.0714  1.2806
  175SAPI  C21519903   5.264   3.966   6.837 -0.1494 -0.0847 -0.1421
  175SAPI  H15R19904   5.217   3.906   6.759  0.0776 -1.1281  0.4978
  175SAPI  C21619905   5.210   4.108   6.857 -0.9174  0.8056 -0.3660
  175SAPI  H16R19906   5.182   4.150   6.758  1.4310  1.8561 -0.6478
  175SAPI  H16S19907   5.304   4.164   6.875 -0.4236  0.3639 -1.4611
  175SAPI  C21719908   5.117   4.128   6.977 -0.6043 -0.5700 -0.3340
  175SAPI  H17R19909   5.085   4.234   6.987  2.0126  0.1400  1.4926
  175SAPI  H17S19910   5.172   4.098   7.069  0.5771 -0.5581 -1.0022
  175SAPI  C21819911   4.982   4.056   6.978  0.0408 -0.3922 -0.5067
  175SAPI  H18R19912   5.005   3.947   6.985  0.5808 -0.2681 -0.2634
  175SAPI  H18S19913   4.916   4.078   6.892  0.4694  0.7871 -0.5472
  175SAPI  C21919914   4.884   4.068   7.106  0.0324 -0.1014 -0.1050
  175SAPI  H19R19915   4.857   4.173   7.127  2.3670  0.1240  2.2312
  175SAPI  H19S19916   4.936   4.024   7.193  2.8530 -0.8725 -2.0341
  175SAPI  C22019917   4.757   3.983   7.074 -0.0963  0.1334 -0.3505
  175SAPI  H20R19918   4.782   3.875   7.083 -3.3890 -0.5930  1.5208
  175SAPI  H20S19919   4.717   4.005   6.974  0.2023 -0.1292 -0.5319
  175SAPI  H20T19920   4.681   3.999   7.153 -1.2452  2.5500 -1.8602
  175SAPI   C3319921   5.667   4.936   7.073  0.3350  0.1773 -0.1300
  175SAPI   H3X19922   5.581   4.912   7.140  0.6439 -1.8869 -0.4096
  175SAPI   H3Y19923   5.667   5.045   7.053  0.2994 -0.0309 -1.3202
  175SAPI   C3419924   5.795   4.894   7.148  0.2181 -0.0986 -0.5916
  175SAPI   H4X19925   5.890   4.931   7.103  1.4414  0.0156  1.9319
  175SAPI   H4Y19926   5.799   4.783   7.139  0.8688 -0.1530  0.2787
  175SAPI   C3519927   5.788   4.924   7.295 -0.0192  0.0203  0.2023
  175SAPI   H5X19928   5.704   4.866   7.337 -1.1062 -0.5563 -2.5391
  175SAPI   H5Y19929   5.765   5.030   7.319 -0.7925 -0.1591  0.2688
  175SAPI   C3619930   5.926   4.896   7.359  0.2944  0.2524 -0.0366
  175SAPI   H6X19931   6.009   4.939   7.299  0.3057 -0.2625 -0.4056
  175SAPI   H6Y19932   5.937   4.785   7.362 -0.5582  0.0597 -2.1126
  175SAPI   C3719933   5.950   4.952   7.509  0.4350 -0.0736  0.7961
  175SAPI   H7X19934   5.908   5.054   7.499 -3.3111 -1.5356  0.1527
  175SAPI   H7Y19935   6.056   4.966   7.541  0.3608  5.3799 -0.3763
  175SAPI   C3819936   5.863   4.873   7.610  0.0464  0.0018 -0.0578
  175SAPI   H8X19937   5.759   4.873   7.571 -0.2984 -1.4298  0.7952
  175SAPI   H8Y19938   5.859   4.919   7.711  1.7413  2.3555 -0.9831
  175SAPI   C3919939   5.923   4.731   7.644 -0.0380  0.9456  0.4843
  175SAPI   H9X19940   6.034   4.729   7.654  0.0349 -1.0918 -0.1990
  175SAPI   H9Y19941   5.885   4.663   7.565 -1.6764  0.7615  1.3927
  175SAPI  C31019942   5.872   4.676   7.781 -0.7632 -1.4579  0.3577
  175SAPI  H10X19943   5.765   4.650   7.778 -1.2614  0.4999 -0.6869
  175SAPI  H10Y19944   5.884   4.755   7.859  0.3206 -1.4380  0.1842
  175SAPI  C31119945   5.948   4.547   7.826 -0.1558 -0.0589 -0.7833
  175SAPI  H11X19946   6.055   4.575   7.818 -0.0555  0.8495  2.4692
  175SAPI  H11Y19947   5.921   4.466   7.755 -0.3266 -1.5701  0.9596
  175SAPI  C31219948   5.909   4.509   7.969  0.5102 -0.6699  0.7757
  175SAPI  H12X19949   5.957   4.409   7.973 -1.1929 -1.8307 -3.0862
  175SAPI  H12Y19950   5.800   4.488   7.972  0.5990 -1.6161 -1.2671
  175SAPI  C31319951   5.941   4.609   8.081  0.5039  0.3174 -0.8793
  175SAPI  H13X19952   5.891   4.706   8.058 -1.2444 -0.8490 -2.1800
  175SAPI  H13Y19953   6.048   4.638   8.095  0.2517  0.8988 -0.0645
  175SAPI  C31419954   5.894   4.558   8.218  0.4532  0.0100  0.4377
  175SAPI  H14X19955   5.945   4.468   8.259 -0.4701 -1.4645 -1.5032
  175SAPI  H14Y19956   5.783   4.545   8.218  0.6250 -1.7099 -0.3606
  175SAPI  C31519957   5.934   4.656   8.326  0.1871 -0.1731  0.1960
  175SAPI  H15X19958   5.908   4.759   8.294  0.8477 -0.4634 -1.3496
  175SAPI  H15Y19959   6.044   4.663   8.336  0.3590  0.0645 -1.6110
  175SAPI  C31619960   5.854   4.671   8.466 -0.2312 -0.1183  0.1876
  175SAPI  H16X19961   5.822   4.569   8.497  1.4895 -1.3120 -1.6637
  175SAPI  H16Y19962   5.765   4.730   8.437 -0.4075 -0.4995 -0.0562
  175SAPI  C31719963   5.915   4.755   8.579  0.5151 -0.0758  0.2804
  175SAPI  H17X19964   5.950   4.849   8.531 -1.6670  0.6062 -0.0949
  175SAPI  H17Y19965   5.999   4.697   8.624  1.3365  1.0302  0.2148
  175SAPI  C31819966   5.818   4.797   8.687 -0.3271 -0.4312 -0.0556
  175SAPI  H18X19967   5.862   4.853   8.772 -1.6424 -0.9115  0.9861
  175SAPI  H18Y19968   5.766   4.712   8.738  0.3435 -0.1617  1.1113
  175SAPI  H18Z19969   5.742   4.863   8.640  0.4325  0.3621 -0.1706
  176SAPI   C1219970   3.428   3.641   6.489 -0.5843 -0.7091  0.1796
  176SAPI    H219971   3.454   3.708   6.573  2.1393 -1.1042 -0.2516
  176SAPI    O219972   3.521   3.689   6.391  0.1663  0.1260 -0.1035
  176SAPI   HO219973   3.476   3.749   6.332 -0.8094 -0.8353 -0.3856
  176SAPI   C1319974   3.448   3.502   6.526 -0.3942  0.7556 -0.0636
  176SAPI    H319975   3.363   3.476   6.593 -0.7084  0.3691 -0.6061
  176SAPI    O319976   3.566   3.470   6.599  0.2885  0.3460 -0.3566
  176SAPI   HO319977   3.597   3.406   6.533 -0.6005  1.2296 -1.6900
  176SAPI   C1419978   3.422   3.419   6.398 -0.2663 -0.6061  0.7251
  176SAPI    H419979   3.493   3.444   6.316  1.5084 -1.3266  1.9764
  176SAPI    O419980   3.429   3.280   6.429  0.0575  0.4856 -0.0515
  176SAPI   HO419981   3.358   3.245   6.483  1.0488 -0.0430  0.9677
  176SAPI   C1519982   3.279   3.447   6.343 -0.2456  0.5069  0.1703
  176SAPI    H519983   3.215   3.401   6.421  0.1606  3.7923  2.6289
  176SAPI    O519984   3.256   3.368   6.228  0.3068  0.8269  0.4268
  176SAPI   HO519985   3.171   3.325   6.239  1.0496 -0.5582  0.9177
  176SAPI   C1619986   3.258   3.591   6.315 -0.3473 -0.0555 -0.4248
  176SAPI    H619987   3.328   3.626   6.235  0.7123  0.5232  0.7276
  176SAPI    O619988   3.125   3.613   6.278 -0.2882  0.5138  0.2367
  176SAPI   HO619989   3.073   3.665   6.340 -2.6616 -1.6378  0.2106
  176SAPI   C1119990   3.291   3.681   6.442 -0.1802 -0.4108  0.3965
  176SAPI    H119991   3.221   3.642   6.519  0.1052 -1.3223  0.2156
  176SAPI     P19992   3.139   3.902   6.463 -0.3612 -0.0071  0.1120
  176SAPI   O1319993   3.024   3.806   6.461 -0.4060  0.1245  0.1525
  176SAPI   O1419994   3.118   4.022   6.383 -0.2326  0.0047 -0.2444
  176SAPI   O1219995   3.283   3.824   6.416  0.0533 -0.5200 -0.6564
  176SAPI   O1119996   3.176   3.944   6.610  0.5869 -0.0794 -0.1978
  176SAPI    C119997   3.298   4.015   6.634 -0.1654  0.0951  0.1698
  176SAPI    HA19998   3.374   3.939   6.664 -0.0934  0.1697  0.1773
  176SAPI    HB19999   3.328   4.076   6.547 -2.1118  1.2622  0.2664
  176SAPI    C220000   3.286   4.127   6.738  0.7470 -0.1173 -0.2740
  176SAPI    HS20001   3.388   4.172   6.737  0.3052  0.9064 -1.2845
  176SAPI   O2120002   3.257   4.064   6.860 -0.7003 -0.2088 -0.0584
  176SAPI   C2120003   3.354   4.015   6.930 -0.7317  0.2856 -0.3680
  176SAPI   O2220004   3.476   4.030   6.909 -0.2165  0.9283 -0.3985
  176SAPI   C2220005   3.288   3.938   7.039  0.3904 -0.5289  0.1859
  176SAPI   H2R20006   3.241   4.004   7.115  2.3036  1.3111 -0.1514
  176SAPI   H2S20007   3.214   3.871   6.990  1.4775 -1.5013 -0.1745
  176SAPI    C320008   3.181   4.234   6.688 -0.2113 -0.0901  0.6141
  176SAPI    HX20009   3.085   4.191   6.725  0.4573 -0.7441  1.6485
  176SAPI    HY20010   3.181   4.236   6.577 -0.7332  1.3702  0.6218
  176SAPI   O3120011   3.210   4.370   6.739 -0.3586  0.5189 -0.2724
  176SAPI   C3120012   3.128   4.460   6.693 -0.5124 -0.4273  0.4467
  176SAPI   O3220013   3.032   4.435   6.623  0.7173  0.5373 -0.2878
  176SAPI   C3220014   3.158   4.599   6.750 -0.0435 -0.0622  0.1707
  176SAPI   H2X20015   3.056   4.642   6.739 -1.0301 -2.4205 -0.5807
  176SAPI   H2Y20016   3.228   4.647   6.679  0.2520 -0.2187  0.3503
  176SAPI   C2320017   3.387   3.829   7.108  0.1592 -0.1999  0.4417
  176SAPI   H3R20018   3.428   3.899   7.184  0.7050  0.4558 -0.4362
  176SAPI   H3S20019   3.471   3.805   7.039  0.3275 -3.0625  1.5271
  176SAPI   C2420020   3.310   3.710   7.162  0.5426  0.4799 -0.0478
  176SAPI   H4R20021   3.267   3.653   7.078  0.7748  2.7915 -1.8493
  176SAPI   H4S20022   3.222   3.730   7.226 -0.9709 -2.3076 -1.1166
  176SAPI   C2520023   3.405   3.626   7.241 -0.5705  0.0069  0.2122
  176SAPI   H5R20024   3.464   3.555   7.181 -2.0826 -1.1734  0.0402
  176SAPI   C2620025   3.438   3.641   7.370  0.0444  0.4935  0.3810
  176SAPI   H6R20026   3.488   3.564   7.431  2.7179  1.9690  0.1995
  176SAPI   C2720027   3.390   3.754   7.453  0.2253 -0.8772 -0.5764
  176SAPI   H7R20028   3.322   3.723   7.535  1.6201 -0.9378  0.5832
  176SAPI   H7S20029   3.324   3.826   7.400  1.7594  3.1243  2.3796
  176SAPI   C2820030   3.502   3.827   7.515 -0.2488 -0.1616 -0.2765
  176SAPI   H8R20031   3.566   3.884   7.447  2.6260 -0.5878  1.8558
  176SAPI   C2920032   3.548   3.827   7.644 -0.0787  0.4788 -0.6153
  176SAPI   H9R20033   3.643   3.879   7.662  0.6888 -0.3064 -2.2090
  176SAPI  C21020034   3.477   3.752   7.755  0.4081  0.6420 -0.0789
  176SAPI  H10R20035   3.558   3.714   7.822 -0.6387  0.1138  0.9288
  176SAPI  H10S20036   3.430   3.657   7.721 -1.6419 -0.5728  5.1445
  176SAPI  C21120037   3.386   3.848   7.819  0.1489  0.0435 -0.0902
  176SAPI  H11R20038   3.293   3.873   7.767 -0.2230 -2.0261 -0.4814
  176SAPI  C21220039   3.421   3.909   7.932  0.0293 -0.0637  0.4505
  176SAPI  H12R20040   3.349   3.968   7.991 -0.0096  4.2920 -3.3880
  176SAPI  C21320041   3.551   3.894   8.016 -0.1036  0.1140 -0.2963
  176SAPI  H13R20042   3.601   3.795   8.012 -2.3211 -1.1277  1.0258
  176SAPI  H13S20043   3.520   3.907   8.122  1.1858  0.7787  0.0181
  176SAPI  C21420044   3.657   3.991   7.966 -0.0474  0.5466  1.0593
  176SAPI  H14R20045   3.667   4.014   7.859 -0.3793  0.8732  1.0984
  176SAPI  C21520046   3.745   4.055   8.041  0.2748 -0.9369  0.0030
  176SAPI  H15R20047   3.818   4.119   7.990 -1.1213  0.6318 -0.1202
  176SAPI  C21620048   3.758   4.036   8.191 -0.1106  0.1145  0.2227
  176SAPI  H16R20049   3.858   4.084   8.206 -0.1395  0.2422  0.0139
  176SAPI  H16S20050   3.765   3.929   8.217  2.5490 -0.2698 -1.6790
  176SAPI  C21720051   3.646   4.115   8.260  0.0917 -0.0075  0.1621
  176SAPI  H17R20052   3.543   4.077   8.244  0.7406 -2.5254  1.4773
  176SAPI  H17S20053   3.647   4.218   8.218 -1.0913 -0.6882 -1.6790
  176SAPI  C21820054   3.666   4.114   8.416 -0.1932 -0.3113 -0.3202
  176SAPI  H18R20055   3.770   4.130   8.449  0.1086 -1.1023 -0.8400
  176SAPI  H18S20056   3.636   4.012   8.449  0.1209 -0.5027 -0.6130
  176SAPI  C21920057   3.583   4.223   8.489  0.2158 -0.2106  0.0386
  176SAPI  H19R20058   3.564   4.200   8.596  1.1037  3.3913  1.0952
  176SAPI  H19S20059   3.476   4.232   8.461 -0.5524  0.1045  2.7515
  176SAPI  C22020060   3.637   4.365   8.477 -0.6486  0.0893  0.1882
  176SAPI  H20R20061   3.583   4.450   8.525 -0.0405  1.3201 -1.2155
  176SAPI  H20S20062   3.649   4.399   8.372  2.4677 -1.1220  0.0576
  176SAPI  H20T20063   3.743   4.381   8.507 -0.2326 -1.5139 -0.3517
  176SAPI   C3320064   3.214   4.614   6.896 -0.6929  0.1522  0.1696
  176SAPI   H3X20065   3.252   4.718   6.899  0.0678 -0.1438  1.9413
  176SAPI   H3Y20066   3.298   4.542   6.899 -0.1227  0.8135  0.4073
  176SAPI   C3420067   3.111   4.598   7.005 -0.5576 -0.5321  0.4188
  176SAPI   H4X20068   3.015   4.646   6.975 -0.9407 -0.6750  1.4025
  176SAPI   H4Y20069   3.151   4.661   7.087  3.3248 -0.7736 -1.0715
  176SAPI   C3520070   3.086   4.455   7.050  0.1919 -0.5407  0.5812
  176SAPI   H5X20071   3.179   4.404   7.082  0.8147  1.0892  1.4977
  176SAPI   H5Y20072   3.055   4.397   6.960  1.8332 -1.2772  0.4692
  176SAPI   C3620073   2.997   4.438   7.175  0.0957  1.0501 -0.1370
  176SAPI   H6X20074   3.027   4.334   7.196  1.9101  1.0979 -2.1492
  176SAPI   H6Y20075   2.889   4.452   7.154 -0.4750  2.2707  3.1017
  176SAPI   C3720076   3.033   4.530   7.293  0.0193 -0.5588 -0.2945
  176SAPI   H7X20077   2.982   4.625   7.268  0.3312  0.0110  1.1366
  176SAPI   H7Y20078   3.143   4.541   7.304 -0.1551  2.5047 -0.8791
  176SAPI   C3820079   2.986   4.462   7.421 -0.4585  0.1775  0.2033
  176SAPI   H8X20080   3.028   4.360   7.437 -1.9389 -0.9521 -2.3411
  176SAPI   H8Y20081   2.877   4.446   7.404 -0.1749 -0.8833 -0.7647
  176SAPI   C3920082   3.015   4.555   7.540 -0.2571  0.1907  0.0244
  176SAPI   H9X20083   2.977   4.656   7.514 -0.6535 -0.0198 -0.2355
  176SAPI   H9Y20084   3.125   4.553   7.553 -0.3660  1.0669  1.2153
  176SAPI  C31020085   2.933   4.507   7.661  0.1817 -0.1765 -0.8309
  176SAPI  H10X20086   2.929   4.397   7.675 -1.4077  0.0455  0.9134
  176SAPI  H10Y20087   2.827   4.533   7.641  0.4721  1.8447 -0.0100
  176SAPI  C31120088   2.974   4.585   7.791  0.6896 -0.3610 -0.0396
  176SAPI  H11X20089   2.978   4.691   7.759 -1.2722  0.0509  0.9223
  176SAPI  H11Y20090   3.079   4.558   7.815  0.6281  0.3139  1.0963
  176SAPI  C31220091   2.893   4.546   7.913 -0.2997  0.0621 -0.6162
  176SAPI  H12X20092   2.903   4.435   7.915 -1.7427 -0.0835  0.9355
  176SAPI  H12Y20093   2.788   4.581   7.904 -0.6510 -1.0369 -0.9398
  176SAPI  C31320094   2.972   4.584   8.041 -0.0456 -0.0694  0.4865
  176SAPI  H13X20095   3.002   4.691   8.036  0.0878 -0.1059  0.4962
  176SAPI  H13Y20096   3.065   4.524   8.038  2.4329  3.3893  1.2147
  176SAPI  C31420097   2.893   4.577   8.174  0.8718  0.2665 -0.0803
  176SAPI  H14X20098   2.896   4.472   8.211  1.0905  0.7025  1.1744
  176SAPI  H14Y20099   2.792   4.607   8.138 -0.3573 -3.7829 -0.4455
  176SAPI  C31520100   2.937   4.678   8.276 -0.1268 -0.7250  0.4348
  176SAPI  H15X20101   2.887   4.642   8.368  0.1240 -1.9464  0.1051
  176SAPI  H15Y20102   2.886   4.773   8.248  1.7507 -0.1460 -1.3206
  176SAPI  C31620103   3.087   4.689   8.295 -0.4319 -0.2856 -0.0657
  176SAPI  H16X20104   3.135   4.743   8.211  1.0315  0.3859  1.1502
  176SAPI  H16Y20105   3.131   4.587   8.291  1.9190  0.7015 -2.0155
  176SAPI  C31720106   3.136   4.767   8.421 -0.3101 -0.1584 -1.0335
  176SAPI  H17X20107   3.095   4.712   8.508  1.1190 -1.3090 -1.0571
  176SAPI  H17Y20108   3.099   4.872   8.421  0.3354  0.0794 -2.2955
  176SAPI  C31820109   3.287   4.771   8.447  0.1580 -0.0524 -0.0485
  176SAPI  H18X20110   3.323   4.668   8.464 -1.1667 -0.4359  0.5581
  176SAPI  H18Y20111   3.302   4.842   8.531  1.4181  0.9946 -1.1063
  176SAPI  H18Z20112   3.344   4.811   8.360 -0.5785  0.0646 -0.4873
  177SLPC     N20113   4.173   2.510  11.414  0.4245 -0.4398  0.4550
  177SLPC   C1320114   4.038   2.473  11.470  0.1659  0.0187 -0.2848
  177SLPC  H13A20115   4.039   2.372  11.510 -0.9718 -0.1284 -0.6010
  177SLPC  H13B20116   4.014   2.539  11.551  1.0134  0.5316 -0.4356
  177SLPC  H13C20117   3.971   2.478  11.385  3.3699  0.6040 -3.0252
  177SLPC   C1420118   4.284   2.485  11.522  0.1419  0.0183 -0.3410
  177SLPC  H14A20119   4.379   2.526  11.491  0.8816 -0.0594  1.6428
  177SLPC  H14B20120   4.262   2.535  11.616  0.7616  2.1600 -1.2733
  177SLPC  H14C20121   4.285   2.379  11.539 -0.6327  0.3914  2.7364
  177SLPC   C1520122   4.178   2.651  11.376 -1.2679 -0.2001  0.1184
  177SLPC  H15A20123   4.093   2.685  11.318 -0.9720  1.2414  0.4718
  177SLPC  H15B20124   4.184   2.720  11.459  2.8092  2.5513 -2.1037
  177SLPC  H15C20125   4.268   2.680  11.324 -0.0649 -0.4119  1.9709
  177SLPC   C1220126   4.202   2.425  11.287 -0.4518  0.2047 -0.4433
  177SLPC  H12A20127   4.201   2.321  11.315  0.7900  0.7733  2.0608
  177SLPC  H12B20128   4.306   2.451  11.273  0.3668 -2.1156  0.7794
  177SLPC   C1120129   4.124   2.434  11.157 -0.6651 -0.1209  0.1933
  177SLPC  H11A20130   4.015   2.413  11.167 -0.8746  0.1870 -1.2108
  177SLPC  H11B20131   4.166   2.355  11.092 -0.0559  0.0894  0.3286
  177SLPC     P20132   4.271   2.615  11.022  0.0437 -0.2238 -0.1648
  177SLPC   O1320133   4.259   2.763  11.018 -0.5241  0.1906 -0.0914
  177SLPC   O1420134   4.389   2.549  11.089  0.2018 -0.5647 -0.1753
  177SLPC   O1220135   4.140   2.560  11.091 -0.6347  0.1033  0.4624
  177SLPC   O1120136   4.267   2.550  10.873  0.1664  0.0441  0.4525
  177SLPC    C120137   4.142   2.563  10.801 -0.2014  0.1250  0.2170
  177SLPC    HA20138   4.123   2.461  10.761 -1.1094  0.3178  0.1345
  177SLPC    HB20139   4.053   2.593  10.859  0.5976  2.2818  0.4079
  177SLPC    C220140   4.157   2.663  10.678  0.2114  0.3208  0.4065
  177SLPC    HS20141   4.051   2.684  10.650  0.3773  0.9179  0.2222
  177SLPC   O2120142   4.230   2.599  10.573 -0.1970  0.5889  0.1278
  177SLPC   C2120143   4.146   2.519  10.508 -1.1840  0.1208 -0.3822
  177SLPC   O2220144   4.033   2.492  10.541  0.4726 -0.2356 -0.7450
  177SLPC   C2220145   4.200   2.483  10.369 -0.5011  0.0898  0.0893
  177SLPC   H2R20146   4.160   2.557  10.296 -1.1021  0.2932  0.6230
  177SLPC   H2S20147   4.311   2.495  10.375 -0.6636  3.2212 -1.2513
  177SLPC    C320148   4.229   2.797  10.715 -0.1698  0.2497  0.4402
  177SLPC    HX20149   4.319   2.764  10.772 -2.0318 -1.2358  2.6642
  177SLPC    HY20150   4.173   2.842  10.799  0.7546 -0.3061  1.3722
  177SLPC   O3120151   4.248   2.876  10.595  0.3313  0.1597  0.2569
  177SLPC   C3120152   4.366   2.874  10.532  0.1495 -0.0725  0.3478
  177SLPC   O3220153   4.464   2.811  10.562 -0.8546 -0.0487 -0.5823
  177SLPC   C3220154   4.345   2.939  10.403  0.4403 -0.0152  0.6977
  177SLPC   H2X20155   4.409   3.028  10.386  1.4860 -0.8717 -0.0131
  177SLPC   H2Y20156   4.240   2.971  10.390  0.2149 -1.1828 -0.6420
  177SLPC   C2320157   4.144   2.344  10.324 -0.0444  0.3967  0.1710
  177SLPC   H3R20158   4.116   2.289  10.417 -0.9405 -1.7748 -1.2902
  177SLPC   H3S20159   4.233   2.291  10.284  0.2292  1.3332 -0.4781
  177SLPC   C2420160   4.025   2.351  10.230 -0.3986  0.9350  0.1923
  177SLPC   H4R20161   3.948   2.421  10.268 -0.4827  0.6196  0.6085
  177SLPC   H4S20162   3.977   2.255  10.202  1.4494  0.9302 -3.7725
  177SLPC   C2520163   4.062   2.401  10.088  0.0778 -0.1131  0.7404
  177SLPC   H5R20164   4.147   2.345  10.044 -0.2673 -0.6861  0.8019
  177SLPC   H5S20165   4.090   2.507  10.104  0.7370 -0.1126 -0.3405
  177SLPC   C2620166   3.952   2.413   9.989  0.4137  0.3114  0.5493
  177SLPC   H6R20167   3.880   2.489  10.026  0.9056  0.9450  0.2396
  177SLPC   H6S20168   3.886   2.325  10.000 -0.1753  0.6043 -0.5088
  177SLPC   C2720169   4.001   2.447   9.844  0.7356  0.0487  0.6949
  177SLPC   H7R20170   4.076   2.377   9.802 -0.3275 -0.2671 -0.7409
  177SLPC   H7S20171   4.041   2.551   9.848 -1.4378  0.9946 -0.4981
  177SLPC   C2820172   3.884   2.456   9.742 -0.2049  0.5009 -0.6158
  177SLPC   H8R20173   3.922   2.520   9.660  0.0465  0.0672 -0.8397
  177SLPC   H8S20174   3.798   2.514   9.783 -0.2870 -0.5013  0.6597
  177SLPC   C2920175   3.823   2.329   9.675 -0.1448 -0.8265 -0.1795
  177SLPC   H9R20176   3.801   2.250   9.749  2.1819  0.0621  1.6139
  177SLPC  C21020177   3.795   2.315   9.547  0.6447 -0.2387  0.6795
  177SLPC  H10R20178   3.732   2.233   9.510 -2.3645  2.0655  0.2154
  177SLPC  C21120179   3.820   2.419   9.440 -0.7484  0.7112  0.0962
  177SLPC  H11R20180   3.728   2.422   9.378 -0.7211 -0.3536 -0.0132
  177SLPC  H11S20181   3.832   2.522   9.481  1.2457  0.0853  1.1961
  177SLPC  C21220182   3.935   2.377   9.351  0.5337  0.2262  0.8295
  177SLPC  H12R20183   4.035   2.418   9.371  0.4738 -0.1065  1.8585
  177SLPC  C21320184   3.923   2.299   9.241  0.0967  0.2729 -0.4770
  177SLPC  H13R20185   4.017   2.265   9.194 -1.0094 -0.4193 -2.3180
  177SLPC  C21420186   3.796   2.226   9.199  0.1412  0.2653  0.4643
  177SLPC  H14R20187   3.712   2.241   9.270 -1.7703 -0.3549 -1.5458
  177SLPC  H14S20188   3.798   2.115   9.203 -1.5934 -0.0042 -2.7892
  177SLPC  C21520189   3.764   2.269   9.055 -0.0968 -0.3077  0.1986
  177SLPC  H15R20190   3.747   2.379   9.048  0.2735 -0.3643 -2.8681
  177SLPC  H15S20191   3.660   2.236   9.036 -0.4272  0.1854  1.1001
  177SLPC  C21620192   3.854   2.211   8.947  0.7983 -0.3770  0.5878
  177SLPC  H16R20193   3.850   2.100   8.947 -0.1531 -0.3469  0.9064
  177SLPC  H16S20194   3.962   2.234   8.964  0.5497  1.3033  0.1555
  177SLPC  C21720195   3.819   2.265   8.806 -0.3873  0.1411  0.2884
  177SLPC  H17R20196   3.773   2.365   8.814 -0.6058  0.0974 -0.3698
  177SLPC  H17S20197   3.753   2.194   8.751  1.2922 -0.4782 -1.0110
  177SLPC  C21820198   3.953   2.285   8.714 -0.1140  0.2576 -0.0427
  177SLPC  H18R20199   4.019   2.200   8.742  2.3086  1.7497 -0.9454
  177SLPC  H18S20200   4.001   2.384   8.728  1.0986 -0.2980 -0.1867
  177SLPC  H18T20201   3.925   2.249   8.613  1.5955 -0.9926 -0.1295
  177SLPC   C3320202   4.376   2.848  10.288 -0.1516 -0.2112 -0.0573
  177SLPC   H3X20203   4.311   2.760  10.306 -0.1563 -0.4512 -1.1517
  177SLPC   H3Y20204   4.479   2.806  10.292  0.4642  1.2717  0.5022
  177SLPC   C3420205   4.336   2.918  10.158 -0.4027 -0.4736  0.4098
  177SLPC   H4X20206   4.414   2.995  10.140  1.6981 -2.2746  1.3824
  177SLPC   H4Y20207   4.237   2.970  10.157 -0.6557 -0.7824 -3.6263
  177SLPC   C3520208   4.343   2.827  10.032 -0.3076 -0.6379 -0.0570
  177SLPC   H5X20209   4.253   2.763  10.027  0.5974 -1.9887  0.3309
  177SLPC   H5Y20210   4.430   2.758  10.025  1.0414  1.0148 -0.3233
  177SLPC   C3620211   4.322   2.908   9.904  0.1380  0.3813  0.0557
  177SLPC   H6X20212   4.411   2.971   9.886 -0.0085  1.5408  2.8651
  177SLPC   H6Y20213   4.235   2.974   9.929 -0.3371 -1.3452  3.5782
  177SLPC   C3720214   4.284   2.825   9.781  0.2132 -0.3584 -0.2591
  177SLPC   H7X20215   4.185   2.780   9.801 -0.0767  0.2577 -0.2692
  177SLPC   H7Y20216   4.364   2.752   9.757 -0.3857 -1.1363  0.0732
  177SLPC   C3820217   4.272   2.922   9.661  0.4733  0.9976  0.0074
  177SLPC   H8X20218   4.369   2.975   9.663  0.9050  0.2143  1.9256
  177SLPC   H8Y20219   4.190   2.989   9.697  0.8221  1.1316  0.5566
  177SLPC   C3920220   4.272   2.854   9.521 -1.1166 -0.0729  0.1325
  177SLPC   H9X20221   4.379   2.828   9.509 -1.2355 -0.5821  0.1405
  177SLPC   H9Y20222   4.236   2.927   9.446  0.9917  0.5707 -0.2934
  177SLPC  C31020223   4.191   2.725   9.508  0.3649 -0.5420  0.5440
  177SLPC  H10X20224   4.088   2.757   9.535  0.1124  0.4479 -1.4118
  177SLPC  H10Y20225   4.225   2.644   9.576  1.5472 -0.2479  0.3181
  177SLPC  C31120226   4.186   2.669   9.356  0.0358 -0.0949  0.0894
  177SLPC  H11X20227   4.138   2.570   9.344  0.5673 -0.5213  1.3739
  177SLPC  H11Y20228   4.293   2.659   9.332 -0.4182 -3.7934 -0.9339
  177SLPC  C31220229   4.122   2.767   9.258 -0.3111 -0.4810 -0.0267
  177SLPC  H12X20230   4.075   2.852   9.312 -0.2732 -0.8201  0.5588
  177SLPC  H12Y20231   4.043   2.709   9.205 -2.2906  0.2722  1.9150
  177SLPC  C31320232   4.212   2.843   9.155  0.0932  0.4401  0.0709
  177SLPC  H13X20233   4.293   2.769   9.134 -1.9384 -1.5438 -1.2118
  177SLPC  H13Y20234   4.257   2.928   9.211 -0.2655  0.7372 -0.0900
  177SLPC  C31420235   4.148   2.885   9.024  1.0211  0.0365 -0.5041
  177SLPC  H14X20236   4.219   2.953   8.972 -0.5376  3.8134  1.8529
  177SLPC  H14Y20237   4.056   2.945   9.043  0.0956 -0.7089 -2.3694
  177SLPC  C31520238   4.102   2.769   8.945  0.2840  0.3976  0.0113
  177SLPC  H15X20239   4.031   2.708   9.004 -0.0092 -0.0376 -0.7813
  177SLPC  H15Y20240   4.190   2.710   8.911 -0.0427 -0.9356  1.3492
  177SLPC  C31620241   4.030   2.816   8.816  0.4690  0.0168  0.0301
  177SLPC  H16X20242   4.077   2.897   8.755  1.2293 -1.0454 -0.8354
  177SLPC  H16Y20243   3.933   2.858   8.850  0.6710  0.7112 -0.2296
  177SLPC  C31720244   4.012   2.692   8.716  0.0901 -0.1190  0.3355
  177SLPC  H17X20245   3.940   2.619   8.757  1.2103 -1.1354  0.5592
  177SLPC  H17Y20246   4.110   2.641   8.701 -0.6758 -1.4090 -0.4636
  177SLPC  C31820247   3.965   2.734   8.576 -0.8684  0.2086 -0.0811
  177SLPC  H18X20248   3.915   2.648   8.528 -3.3388  1.6589 -0.3099
  177SLPC  H18Y20249   4.050   2.761   8.510 -1.0100 -3.2274 -1.9001
  177SLPC  H18Z20250   3.900   2.825   8.578  1.0259  1.6210  0.3134
  178SLPC     N20251   0.500   2.092  11.068  0.2514 -0.3553 -0.4595
  178SLPC   C1320252   0.402   2.189  11.128  1.1077  0.2714  0.1353
  178SLPC  H13A20253   0.336   2.234  11.055 -0.2552  2.0140  2.3433
  178SLPC  H13B20254   0.337   2.134  11.195  1.7092  2.1995  2.4241
  178SLPC  H13C20255   0.440   2.269  11.189 -2.9492  2.6058 -0.0491
  178SLPC   C1420256   0.434   1.963  11.026  0.3206  0.2862  1.1313
  178SLPC  H14A20257   0.407   1.905  11.112 -4.1108  1.5039  0.8082
  178SLPC  H14B20258   0.349   1.998  10.968  1.6968  2.7462  0.4753
  178SLPC  H14C20259   0.497   1.905  10.959 -0.7902  1.4202 -1.0187
  178SLPC   C1520260   0.615   2.064  11.162  0.4373 -0.1296  0.2161
  178SLPC  H15A20261   0.578   2.059  11.263  0.7042 -0.0461  0.3197
  178SLPC  H15B20262   0.672   1.975  11.141  1.9881  0.6322  1.0251
  178SLPC  H15C20263   0.689   2.143  11.155  0.0801  0.4139  2.0683
  178SLPC   C1220264   0.566   2.146  10.936  0.1895 -0.0938 -0.1735
  178SLPC  H12A20265   0.640   2.072  10.906  1.1199  1.7640 -2.8283
  178SLPC  H12B20266   0.620   2.233  10.969 -1.1497  0.7270 -0.1173
  178SLPC   C1120267   0.479   2.181  10.811  0.4374  0.0092 -0.4487
  178SLPC  H11A20268   0.418   2.093  10.781  1.4250 -0.4969 -1.0259
  178SLPC  H11B20269   0.561   2.194  10.736 -1.0804  0.4134 -2.1105
  178SLPC     P20270   0.462   2.444  10.807 -0.3420  0.2274 -0.2057
  178SLPC   O1320271   0.370   2.539  10.869 -0.1010 -0.3253 -0.3590
  178SLPC   O1420272   0.603   2.439  10.851 -0.5694  0.4592  0.2623
  178SLPC   O1220273   0.402   2.298  10.834  0.1194  0.2945  0.2927
  178SLPC   O1120274   0.462   2.465  10.649 -0.2681 -0.1462  0.0352
  178SLPC    C120275   0.328   2.449  10.579  0.2382 -0.0162 -0.3055
  178SLPC    HA20276   0.244   2.441  10.651 -0.1765 -2.2823 -0.9526
  178SLPC    HB20277   0.312   2.532  10.507  1.8237  0.5997  0.0103
  178SLPC    C220278   0.321   2.322  10.493 -0.2763 -0.4924 -0.5402
  178SLPC    HS20279   0.375   2.251  10.560  0.2757 -0.4114 -0.8954
  178SLPC   O2120280   0.381   2.347  10.369  0.6277  0.0491  0.1467
  178SLPC   C2120281   0.511   2.329  10.359  0.3970  0.4615  0.2060
  178SLPC   O2220282   0.579   2.284  10.450 -0.2198 -0.0231 -0.5012
  178SLPC   C2220283   0.556   2.377  10.220 -0.5237  0.1145 -0.5987
  178SLPC   H2R20284   0.465   2.391  10.159 -0.9863 -1.1275 -0.2129
  178SLPC   H2S20285   0.609   2.473  10.240  1.2418 -0.8711 -0.3242
  178SLPC    C320286   0.176   2.265  10.472 -0.2433 -0.0198  0.3730
  178SLPC    HX20287   0.122   2.246  10.567 -1.3500  1.4478  0.0617
  178SLPC    HY20288   0.192   2.169  10.418 -0.3870  0.2917 -0.2344
  178SLPC   O3120289   0.097   2.358  10.390  0.2254  0.2363  0.2830
  178SLPC   C3120290   0.084   2.321  10.260 -0.5592 -0.0459 -1.0449
  178SLPC   O3220291   0.141   2.225  10.209 -0.1819 -0.6469  0.6169
  178SLPC   C3220292   0.004   2.427  10.181 -0.1152 -0.2912  0.2719
  178SLPC   H2X20293   0.046   2.527  10.205 -2.0435  0.4991  0.5910
  178SLPC   H2Y20294  -0.099   2.430  10.223  0.8244  0.2701  2.7026
  178SLPC   C2320295   0.651   2.283  10.147  0.3058  0.2742  0.9667
  178SLPC   H3R20296   0.724   2.252  10.224  1.8503 -0.2495 -0.6373
  178SLPC   H3S20297   0.701   2.335  10.062  0.8273 -1.0998  0.4118
  178SLPC   C2420298   0.578   2.160  10.097 -0.0219  1.0119 -0.5397
  178SLPC   H4R20299   0.528   2.109  10.182  1.6455  1.9127  1.0564
  178SLPC   H4S20300   0.654   2.091  10.054 -1.1962  0.3399 -1.5922
  178SLPC   C2520301   0.473   2.182   9.994  0.4548  0.3692 -0.3969
  178SLPC   H5R20302   0.383   2.230  10.036  0.3032  0.5114 -0.8797
  178SLPC   H5S20303   0.441   2.085   9.951  2.0911 -0.4109  0.0612
  178SLPC   C2620304   0.514   2.264   9.871  0.0782 -0.9178 -0.8497
  178SLPC   H6R20305   0.609   2.235   9.822 -0.7132 -0.8622 -2.4774
  178SLPC   H6S20306   0.519   2.367   9.913 -5.1899 -1.1323  1.0054
  178SLPC   C2720307   0.395   2.262   9.774  0.0430  0.1362  0.0181
  178SLPC   H7R20308   0.302   2.272   9.833 -0.6163  2.4775 -1.3105
  178SLPC   H7S20309   0.402   2.165   9.720 -2.8370  0.4737 -1.1253
  178SLPC   C2820310   0.404   2.377   9.674  0.0818 -0.4831  0.6947
  178SLPC   H8R20311   0.502   2.366   9.623  0.6818  2.5718  1.0152
  178SLPC   H8S20312   0.410   2.471   9.734 -3.8823  0.3622  0.0784
  178SLPC   C2920313   0.278   2.395   9.589 -0.3580  0.7923 -0.2151
  178SLPC   H9R20314   0.192   2.432   9.647 -0.2706 -1.2064  1.2777
  178SLPC  C21020315   0.282   2.381   9.454  0.5977  0.1433  0.1603
  178SLPC  H10R20316   0.190   2.396   9.395 -0.0269 -0.7581  0.8815
  178SLPC  C21120317   0.396   2.343   9.362  0.1308 -0.0161  0.0572
  178SLPC  H11R20318   0.494   2.364   9.412 -0.3446  0.7787  0.6980
  178SLPC  H11S20319   0.385   2.395   9.265  0.3511  1.7902  0.9491
  178SLPC  C21220320   0.402   2.196   9.353  0.0683  0.4191 -0.2648
  178SLPC  H12R20321   0.397   2.141   9.448 -0.1899 -0.3225 -0.6947
  178SLPC  C21320322   0.435   2.131   9.241 -0.3829  1.2138 -0.0923
  178SLPC  H13R20323   0.431   2.022   9.228  0.7057  1.2033 -0.4419
  178SLPC  C21420324   0.480   2.209   9.114 -0.9644  0.1997  0.5813
  178SLPC  H14R20325   0.535   2.301   9.140  0.5309  0.1573 -2.0668
  178SLPC  H14S20326   0.390   2.238   9.055  0.2198 -0.8082 -1.8722
  178SLPC  C21520327   0.569   2.131   9.016 -0.0978 -0.3487 -0.2775
  178SLPC  H15R20328   0.507   2.052   8.969 -0.2027 -0.9241  0.7892
  178SLPC  H15S20329   0.658   2.085   9.065 -1.1276 -1.7185  0.3690
  178SLPC  C21620330   0.607   2.231   8.903 -0.4034 -0.3380  0.3499
  178SLPC  H16R20331   0.660   2.321   8.941 -1.1400  0.5586 -0.6912
  178SLPC  H16S20332   0.507   2.270   8.876 -0.9969 -1.7788  0.3727
  178SLPC  C21720333   0.688   2.163   8.794  0.3875  0.6198  0.1114
  178SLPC  H17R20334   0.630   2.084   8.742 -1.0485  1.4823  0.3464
  178SLPC  H17S20335   0.767   2.115   8.856 -0.9542  0.6021  1.8835
  178SLPC  C21820336   0.736   2.270   8.694  0.3461  0.0704 -0.4526
  178SLPC  H18R20337   0.788   2.211   8.615  0.0865 -0.9185  0.1084
  178SLPC  H18S20338   0.795   2.346   8.749  0.5593  0.6046 -1.3877
  178SLPC  H18T20339   0.647   2.320   8.649 -0.3824  0.3509  1.2198
  178SLPC   C3320340   0.010   2.390  10.030 -0.5495  0.6816 -0.3283
  178SLPC   H3X20341  -0.031   2.288  10.014  0.2780  0.5473 -1.7434
  178SLPC   H3Y20342   0.119   2.398  10.012 -0.3327 -1.9535 -0.5603
  178SLPC   C3420343  -0.068   2.485   9.946 -0.3393  0.1224  0.6504
  178SLPC   H4X20344  -0.016   2.583   9.938 -0.1288 -0.0818 -0.8465
  178SLPC   H4Y20345  -0.167   2.491   9.996 -1.1311  2.4988 -1.0468
  178SLPC   C3520346  -0.079   2.454   9.796  0.9053  0.1749 -0.0823
  178SLPC   H5X20347  -0.163   2.381   9.791  1.9127 -1.0455  0.3499
  178SLPC   H5Y20348   0.012   2.399   9.762 -0.8309 -2.2382 -1.0941
  178SLPC   C3620349  -0.100   2.568   9.695  0.5676  0.0213  0.1177
  178SLPC   H6X20350  -0.019   2.645   9.702 -0.3089  1.0747 -0.9776
  178SLPC   H6Y20351  -0.197   2.621   9.708  0.8391  0.9215 -1.2989
  178SLPC   C3720352  -0.100   2.514   9.551 -0.1452  0.2307  0.3278
  178SLPC   H7X20353  -0.184   2.442   9.536  0.1457  0.1975 -1.3471
  178SLPC   H7Y20354  -0.005   2.459   9.531 -1.2179 -1.5840 -0.0309
  178SLPC   C3820355  -0.123   2.623   9.447  0.2652  0.6699 -0.0176
  178SLPC   H8X20356  -0.096   2.724   9.485 -0.0329  0.1775  1.5562
  178SLPC   H8Y20357  -0.232   2.625   9.428  0.3290  0.0999 -0.4817
  178SLPC   C3920358  -0.053   2.588   9.313 -0.1075 -0.0999 -0.2103
  178SLPC   H9X20359  -0.090   2.486   9.291 -0.2143 -0.4850  1.5592
  178SLPC   H9Y20360   0.053   2.578   9.342  0.2171  0.7870 -1.0367
  178SLPC  C31020361  -0.066   2.695   9.200  0.2027 -0.5050 -0.1505
  178SLPC  H10X20362  -0.032   2.793   9.240  0.0566 -0.5677  0.1290
  178SLPC  H10Y20363  -0.172   2.704   9.169  0.4903  1.7382 -0.6694
  178SLPC  C31120364   0.027   2.660   9.076  0.2748  0.0920  0.0157
  178SLPC  H11X20365   0.133   2.671   9.109  0.1590  0.7230  0.2006
  178SLPC  H11Y20366   0.001   2.739   9.002  0.4147 -0.7019 -0.9032
  178SLPC  C31220367   0.016   2.521   9.014  0.2010  0.0518  0.3076
  178SLPC  H12X20368  -0.088   2.504   8.979 -0.1626  1.8384  0.4530
  178SLPC  H12Y20369   0.039   2.441   9.088  2.0439 -0.6277 -0.9090
  178SLPC  C31320370   0.106   2.491   8.889  0.7327  0.1091 -0.3000
  178SLPC  H13X20371   0.073   2.396   8.841 -1.1124  1.8583 -2.7825
  178SLPC  H13Y20372   0.212   2.482   8.919  0.5532  0.3470  0.4219
  178SLPC  C31420373   0.106   2.595   8.769  0.2972 -0.1420 -0.2272
  178SLPC  H14X20374   0.168   2.547   8.690 -2.7742  0.2610 -3.1040
  178SLPC  H14Y20375   0.159   2.683   8.810  0.4005 -0.3328  0.0601
  178SLPC  C31520376  -0.033   2.631   8.712  0.6594 -0.2547 -0.1599
  178SLPC  H15X20377  -0.071   2.557   8.639  2.4500 -1.2947 -0.0903
  178SLPC  H15Y20378  -0.112   2.621   8.789  2.6672 -0.9927  1.9229
  178SLPC  C31620379  -0.043   2.771   8.638  0.0874  0.1055 -0.2788
  178SLPC  H16X20380   0.042   2.773   8.567  1.2550  0.8778  1.0898
  178SLPC  H16Y20381  -0.010   2.848   8.711  1.4003 -1.8409  1.2826
  178SLPC  C31720382  -0.178   2.801   8.571 -0.6884  0.6223 -0.0943
  178SLPC  H17X20383  -0.223   2.718   8.511 -1.9211  1.5267 -0.4652
  178SLPC  H17Y20384  -0.158   2.885   8.501 -2.9368  2.2505  1.0815
  178SLPC  C31820385  -0.273   2.853   8.671 -0.2819 -0.0613  0.5185
  178SLPC  H18X20386  -0.238   2.948   8.715 -1.8256  0.6006  0.3723
  178SLPC  H18Y20387  -0.280   2.790   8.763  0.1372  0.0938  0.6608
  178SLPC  H18Z20388  -0.372   2.869   8.624  1.1725 -0.5853 -3.0686
  179SLPC     N20389   6.636   0.145  10.757  0.3681 -0.4776  0.1935
  179SLPC   C1320390   6.599   0.134  10.903 -0.1718 -0.4444  0.8929
  179SLPC  H13A20391   6.498   0.174  10.909  0.0012  0.1585  0.0036
  179SLPC  H13B20392   6.604   0.030  10.933  0.9248 -1.3823 -2.1781
  179SLPC  H13C20393   6.661   0.197  10.965 -1.7917  1.3032  0.8378
  179SLPC   C1420394   6.542   0.061  10.679  0.8099  0.5128  1.0261
  179SLPC  H14A20395   6.542  -0.043  10.710 -0.5164  0.7784  2.0384
  179SLPC  H14B20396   6.441   0.098  10.669 -0.4356 -2.8789 -1.0506
  179SLPC  H14C20397   6.577   0.058  10.577  1.2672 -1.1718  1.1925
  179SLPC   C1520398   6.773   0.094  10.735  0.3928 -0.0610  0.3151
  179SLPC  H15A20399   6.832   0.107  10.825  0.6811 -0.2306  0.1514
  179SLPC  H15B20400   6.770  -0.014  10.725 -0.7970 -0.0682  0.5128
  179SLPC  H15C20401   6.821   0.144  10.653  0.9365 -1.1654 -0.0580
  179SLPC   C1220402   6.628   0.293  10.721 -0.1300  0.0288  0.0313
  179SLPC  H12A20403   6.669   0.352  10.802 -0.5886  2.3326 -1.3239
  179SLPC  H12B20404   6.524   0.318  10.706 -0.2904 -0.7691 -0.2830
  179SLPC   C1120405   6.708   0.340  10.596 -0.8616  0.1939  0.7867
  179SLPC  H11A20406   6.667   0.434  10.554  0.5943  0.3357 -0.4069
  179SLPC  H11B20407   6.707   0.259  10.520  0.7101  0.0639  0.8678
  179SLPC     P20408   6.904   0.482  10.702 -0.1492 -0.1143  0.0394
  179SLPC   O1320409   6.835   0.482  10.831 -0.1896 -0.5005  0.2107
  179SLPC   O1420410   7.053   0.492  10.710  0.2328 -0.1054  0.0904
  179SLPC   O1220411   6.849   0.355  10.621 -0.5392  0.3281  0.1344
  179SLPC   O1120412   6.846   0.602  10.624  0.1749  0.3368 -0.0431
  179SLPC    C120413   6.882   0.613  10.480 -0.9434  0.3050 -0.4351
  179SLPC    HA20414   6.976   0.561  10.453  0.0559  1.6781  0.2848
  179SLPC    HB20415   6.799   0.573  10.417  0.5420 -0.2953 -2.1032
  179SLPC    C220416   6.901   0.761  10.440 -0.1311  0.5171  0.9687
  179SLPC    HS20417   6.977   0.802  10.509  0.8624  1.0563 -0.4077
  179SLPC   O2120418   6.774   0.821  10.461  0.0311  0.2799  0.6296
  179SLPC   C2120419   6.777   0.955  10.483  0.8773 -0.2788 -0.4903
  179SLPC   O2220420   6.871   1.027  10.498  0.5526  0.2514 -0.1350
  179SLPC   C2220421   6.634   0.994  10.504 -0.2026 -0.2456  0.0685
  179SLPC   H2R20422   6.601   0.946  10.599  1.1199 -2.0596 -0.3256
  179SLPC   H2S20423   6.634   1.103  10.526  0.6082 -0.0269 -0.9743
  179SLPC    C320424   6.950   0.760  10.298 -0.4323  0.3278  0.2651
  179SLPC    HX20425   6.863   0.723  10.241 -0.8536 -0.2914  1.2806
  179SLPC    HY20426   7.036   0.691  10.286  0.7006  1.3498  2.0225
  179SLPC   O3120427   6.993   0.889  10.249  0.7803 -0.1304  0.4642
  179SLPC   C3120428   7.105   0.930  10.295  0.0107  0.4601  0.3482
  179SLPC   O3220429   7.174   0.866  10.380  0.1839  0.2253 -0.2531
  179SLPC   C3220430   7.144   1.069  10.238  0.6023 -0.6845  0.4276
  179SLPC   H2X20431   7.252   1.079  10.258  0.9972 -2.0180 -0.8531
  179SLPC   H2Y20432   7.088   1.152  10.286  1.2270  0.0284 -0.0432
  179SLPC   C2320433   6.554   0.976  10.376  0.6346 -0.2548  0.4466
  179SLPC   H3R20434   6.448   0.990  10.404  0.2684  0.8300 -1.3242
  179SLPC   H3S20435   6.551   0.873  10.334 -3.1844  0.5273 -1.6555
  179SLPC   C2420436   6.598   1.073  10.263  0.4999  0.6978  0.1850
  179SLPC   H4R20437   6.673   1.148  10.296  0.1685  0.6019  1.2119
  179SLPC   H4S20438   6.514   1.122  10.209 -0.4943 -0.0617  0.9822
  179SLPC   C2520439   6.686   0.986  10.166 -0.3446  0.0335  0.4213
  179SLPC   H5R20440   6.644   0.883  10.161  0.0109 -0.0740 -2.8642
  179SLPC   H5S20441   6.783   0.976  10.219 -1.7725  3.2011  4.0722
  179SLPC   C2620442   6.687   1.043  10.022 -0.1726 -0.1572  0.4118
  179SLPC   H6R20443   6.766   1.122  10.024 -0.4768  0.1448  0.6137
  179SLPC   H6S20444   6.590   1.090   9.993 -0.3552 -0.8520 -0.1440
  179SLPC   C2720445   6.730   0.939   9.919 -0.3439  0.3548  0.1235
  179SLPC   H7R20446   6.644   0.879   9.882  0.4567 -2.2907  2.2165
  179SLPC   H7S20447   6.781   0.853   9.968 -1.6671 -0.7023 -0.2771
  179SLPC   C2820448   6.818   0.999   9.811 -0.2680 -0.3965 -0.0269
  179SLPC   H8R20449   6.915   1.043   9.842  1.0038 -1.6797 -1.9288
  179SLPC   H8S20450   6.759   1.083   9.768 -1.2874 -0.4005  1.3012
  179SLPC   C2920451   6.849   0.901   9.693 -0.2701 -0.1400 -0.3128
  179SLPC   H9R20452   6.912   0.817   9.725  1.7458  1.8722  1.2603
  179SLPC  C21020453   6.806   0.914   9.564  0.1039 -0.0800 -0.7550
  179SLPC  H10R20454   6.852   0.845   9.491  0.2004  1.7278 -2.4994
  179SLPC  C21120455   6.724   1.029   9.501  0.2130  0.1651  0.0970
  179SLPC  H11R20456   6.654   1.064   9.580 -1.3770 -0.6131 -0.9228
  179SLPC  H11S20457   6.654   0.987   9.426 -0.3936 -1.6224  1.5726
  179SLPC  C21220458   6.803   1.145   9.452 -0.4083  0.3237  0.5158
  179SLPC  H12R20459   6.840   1.218   9.526 -0.1685  1.0769 -0.3291
  179SLPC  C21320460   6.847   1.157   9.325  0.9367 -0.4351 -0.2554
  179SLPC  H13R20461   6.905   1.246   9.297  3.1655 -1.9005 -0.5224
  179SLPC  C21420462   6.826   1.069   9.205  0.3496 -0.1805  0.0753
  179SLPC  H14R20463   6.813   0.966   9.245  1.0071 -1.1542 -2.0388
  179SLPC  H14S20464   6.914   1.066   9.137 -1.0561  0.5805 -1.8842
  179SLPC  C21520465   6.701   1.113   9.113  0.0117  0.5019 -0.1233
  179SLPC  H15R20466   6.607   1.128   9.170  0.6884  1.4974  0.7666
  179SLPC  H15S20467   6.680   1.032   9.040 -0.7979  2.8152 -2.5795
  179SLPC  C21620468   6.725   1.236   9.027 -0.4635 -1.2589  0.6138
  179SLPC  H16R20469   6.801   1.207   8.952 -0.8676 -0.8680  0.0430
  179SLPC  H16S20470   6.774   1.316   9.087 -2.2963  0.0032  0.5027
  179SLPC  C21720471   6.599   1.294   8.957 -0.8617  0.2709 -0.5654
  179SLPC  H17R20472   6.541   1.336   9.042  0.4328 -1.2712  1.1787
  179SLPC  H17S20473   6.546   1.205   8.916 -2.2890  1.0131 -0.3874
  179SLPC  C21820474   6.621   1.397   8.846 -0.3836  0.4464  0.9597
  179SLPC  H18R20475   6.710   1.369   8.785 -0.0426 -0.4078  1.8207
  179SLPC  H18S20476   6.649   1.497   8.885  0.0555  0.7009  0.0088
  179SLPC  H18T20477   6.532   1.411   8.781  0.9503 -0.2428 -1.1020
  179SLPC   C3320478   7.124   1.080  10.084 -0.0223 -0.4235 -0.1843
  179SLPC   H3X20479   7.015   1.071  10.065 -0.3810  1.0806  1.0138
  179SLPC   H3Y20480   7.158   0.992  10.024  0.0545  1.0405 -2.4091
  179SLPC   C3420481   7.187   1.204  10.017 -0.4101 -0.4751 -0.1920
  179SLPC   H4X20482   7.181   1.295  10.081  0.2386  0.0262 -0.8211
  179SLPC   H4Y20483   7.125   1.228   9.927 -2.6709 -0.4910  1.2906
  179SLPC   C3520484   7.334   1.186   9.967  0.0589  0.3736  0.7057
  179SLPC   H5X20485   7.388   1.148  10.056 -1.0612 -0.1782  1.1678
  179SLPC   H5Y20486   7.366   1.288   9.939 -2.8148  1.2518  0.2781
  179SLPC   C3620487   7.358   1.100   9.845  0.0498 -0.3229 -0.3746
  179SLPC   H6X20488   7.294   1.137   9.763  3.1297 -1.4488 -3.5316
  179SLPC   H6Y20489   7.340   0.994   9.872  0.6417 -0.2492  0.3820
  179SLPC   C3720490   7.501   1.113   9.801 -0.4890  0.3983  0.2272
  179SLPC   H7X20491   7.568   1.109   9.890  0.6526  3.2462 -0.3979
  179SLPC   H7Y20492   7.514   1.215   9.761  1.0902 -0.3666 -1.3411
  179SLPC   C3820493   7.526   1.005   9.696 -0.2547 -0.0386  0.1492
  179SLPC   H8X20494   7.443   1.001   9.622 -0.0792  1.3296 -0.1467
  179SLPC   H8Y20495   7.539   0.907   9.747 -0.0435 -0.0964 -0.0081
  179SLPC   C3920496   7.659   1.009   9.621 -0.0289  0.0082 -0.2356
  179SLPC   H9X20497   7.749   0.964   9.671 -0.1171 -1.4415 -1.3129
  179SLPC   H9Y20498   7.688   1.115   9.608  2.6442 -0.2955  2.0607
  179SLPC  C31020499   7.641   0.951   9.482  0.2832 -0.4847 -0.4165
  179SLPC  H10X20500   7.537   0.989   9.468  0.3281  0.6918  1.9557
  179SLPC  H10Y20501   7.632   0.842   9.464  1.0082 -0.3887 -1.4685
  179SLPC  C31120502   7.738   1.022   9.378  0.2475  0.7741  0.4185
  179SLPC  H11X20503   7.838   0.975   9.380 -0.5233 -0.9159  0.6258
  179SLPC  H11Y20504   7.746   1.131   9.400 -1.7300  0.8134  1.1198
  179SLPC  C31220505   7.677   1.002   9.237 -0.0613 -0.5914 -0.2955
  179SLPC  H12X20506   7.580   1.056   9.237  0.9899  1.4996  2.2577
  179SLPC  H12Y20507   7.657   0.894   9.218  0.8120 -0.8592  0.2490
  179SLPC  C31320508   7.767   1.040   9.123 -0.6992 -0.4533  0.4377
  179SLPC  H13X20509   7.851   0.968   9.113  1.0655  1.2434  2.0513
  179SLPC  H13Y20510   7.806   1.144   9.134 -1.9580  0.1860 -0.8297
  179SLPC  C31420511   7.689   1.047   8.990 -0.0892 -0.3407 -0.5070
  179SLPC  H14X20512   7.673   1.155   8.968  1.4781  0.3116  1.2204
  179SLPC  H14Y20513   7.597   0.987   9.009 -1.4960  1.4330 -1.4506
  179SLPC  C31520514   7.764   0.997   8.866  0.0263  0.0617 -0.0130
  179SLPC  H15X20515   7.766   0.887   8.880  1.3480 -0.2130 -1.9209
  179SLPC  H15Y20516   7.870   1.030   8.865  0.6086 -1.6465  1.3161
  179SLPC  C31620517   7.694   1.043   8.738  0.2847  1.1084  0.9043
  179SLPC  H16X20518   7.691   1.152   8.713  0.8829  0.2457 -3.7898
  179SLPC  H16Y20519   7.586   1.019   8.742  0.2105  1.0864 -0.6652
  179SLPC  C31720520   7.743   0.970   8.612 -0.0943 -0.0315  0.0582
  179SLPC  H17X20521   7.749   0.860   8.630  2.9130 -0.1267 -0.9417
  179SLPC  H17Y20522   7.852   0.991   8.616  0.0517 -0.8687  0.8368
  179SLPC  C31820523   7.681   1.008   8.478  0.7573 -0.4753 -0.3972
  179SLPC  H18X20524   7.583   0.957   8.465  0.8242 -1.0102  1.0352
  179SLPC  H18Y20525   7.745   0.987   8.389 -1.0613 -0.7380 -1.7054
  179SLPC  H18Z20526   7.653   1.115   8.484 -1.7642 -1.1509  1.5465
  180SLPC     N20527   3.476   4.236  10.914 -0.4609 -0.2452 -0.1087
  180SLPC   C1320528   3.588   4.210  11.016  0.5417 -0.1412 -0.5398
  180SLPC  H13A20529   3.565   4.127  11.081  0.2446  1.6905  1.7865
  180SLPC  H13B20530   3.684   4.186  10.972  0.9075  1.1070 -0.4454
  180SLPC  H13C20531   3.597   4.291  11.086  1.7595 -0.2191 -0.5819
  180SLPC   C1420532   3.494   4.379  10.880  0.3485  0.5156 -0.8604
  180SLPC  H14A20533   3.426   4.406  10.800  0.3453 -0.9877 -1.3930
  180SLPC  H14B20534   3.462   4.441  10.962 -0.7121  0.0514 -0.9074
  180SLPC  H14C20535   3.595   4.404  10.850  1.0507 -1.5985 -0.4103
  180SLPC   C1520536   3.347   4.207  10.973  0.1327 -0.2601  0.3096
  180SLPC  H15A20537   3.340   4.249  11.072 -0.2745  0.5843 -0.0650
  180SLPC  H15B20538   3.263   4.238  10.911  0.2110 -0.5853  0.0358
  180SLPC  H15C20539   3.340   4.099  10.979 -1.0157 -0.1364  1.5887
  180SLPC   C1220540   3.502   4.154  10.787  0.1556  0.0280  0.4112
  180SLPC  H12A20541   3.419   4.172  10.721  0.1374  0.3586  0.5238
  180SLPC  H12B20542   3.494   4.051  10.820  2.4945 -0.4175 -0.2520
  180SLPC   C1120543   3.638   4.149  10.716  0.4848 -0.5663  0.9253
  180SLPC  H11A20544   3.673   4.252  10.694  0.3702 -0.5556  0.7869
  180SLPC  H11B20545   3.626   4.096  10.619  0.9109  1.7412 -0.4678
  180SLPC     P20546   3.791   3.944  10.790 -0.0313  0.0494 -0.2947
  180SLPC   O1320547   3.920   3.944  10.863  0.3565  0.5606  0.1160
  180SLPC   O1420548   3.682   3.856  10.841  0.1827 -0.3770 -0.0775
  180SLPC   O1220549   3.739   4.098  10.798 -0.3034  0.4599  0.4767
  180SLPC   O1120550   3.811   3.918  10.634 -0.7277 -0.5267 -0.5251
  180SLPC    C120551   3.936   3.952  10.579 -0.4877 -0.0835 -0.3380
  180SLPC    HA20552   3.959   4.060  10.590  1.7308 -0.5957  0.6079
  180SLPC    HB20553   4.013   3.893  10.633 -1.1023  0.6428  1.3956
  180SLPC    C220554   3.930   3.898  10.437 -0.2567  0.2062  0.1647
  180SLPC    HS20555   3.882   3.798  10.435 -1.3091  0.6903  0.4608
  180SLPC   O2120556   4.065   3.898  10.393 -0.1921 -0.3523 -0.0956
  180SLPC   C2120557   4.095   3.812  10.295  0.5485 -0.5698  0.2844
  180SLPC   O2220558   4.023   3.732  10.240 -0.4416 -0.1774 -0.6395
  180SLPC   C2220559   4.241   3.830  10.256  0.3602  0.1676 -0.0741
  180SLPC   H2R20560   4.295   3.840  10.352  1.3164  2.0189 -0.7563
  180SLPC   H2S20561   4.268   3.738  10.199  0.6344 -0.1984  0.6412
  180SLPC    C320562   3.842   3.992  10.340  0.1991 -0.5471  0.1265
  180SLPC    HX20563   3.881   4.095  10.355 -3.1231  1.0253 -0.9985
  180SLPC    HY20564   3.739   3.984  10.381 -0.3631  0.5537 -0.9874
  180SLPC   O3120565   3.854   3.965  10.204  0.4433 -0.7263  0.3156
  180SLPC   C3120566   3.763   3.875  10.159  0.0503  0.1402  0.8931
  180SLPC   O3220567   3.659   3.831  10.205 -0.6902 -0.1280  0.0260
  180SLPC   C3220568   3.790   3.851  10.009  0.0025 -0.5605 -0.7532
  180SLPC   H2X20569   3.856   3.933   9.972 -2.4829  1.3972 -1.1375
  180SLPC   H2Y20570   3.696   3.873   9.954  0.9077  3.4997 -1.0199
  180SLPC   C2320571   4.261   3.947  10.158  0.7400  0.4653 -0.8796
  180SLPC   H3R20572   4.369   3.945  10.132  0.7666  1.9309 -0.9641
  180SLPC   H3S20573   4.241   4.041  10.212  1.8104 -0.3041  0.9603
  180SLPC   C2420574   4.168   3.944  10.029  0.0360  0.1176 -0.1347
  180SLPC   H4R20575   4.076   3.995  10.065  0.5478  1.5305 -0.7421
  180SLPC   H4S20576   4.138   3.843   9.995  0.2291 -0.0553  0.1995
  180SLPC   C2520577   4.216   4.030   9.910  0.4619 -0.4583  0.3847
  180SLPC   H5R20578   4.295   3.978   9.853  0.4764  0.9770 -0.9771
  180SLPC   H5S20579   4.252   4.127   9.949 -0.5780 -0.9729  2.8189
  180SLPC   C2620580   4.090   4.064   9.817 -0.0439 -0.6935 -0.4020
  180SLPC   H6R20581   4.012   4.104   9.885  1.4426  0.4530  0.6825
  180SLPC   H6S20582   4.045   3.977   9.765 -1.1190 -1.6185  1.9454
  180SLPC   C2720583   4.105   4.184   9.721  0.0727  0.1726  0.2850
  180SLPC   H7R20584   4.168   4.153   9.635 -3.7593 -1.9984 -2.0187
  180SLPC   H7S20585   4.151   4.269   9.776 -2.7887  1.6460  0.6277
  180SLPC   C2820586   3.969   4.226   9.656  0.1082  0.3797  0.7442
  180SLPC   H8R20587   3.985   4.312   9.587  0.0654  0.1983  0.5053
  180SLPC   H8S20588   3.911   4.251   9.747  0.3916 -0.6802  1.2348
  180SLPC   C2920589   3.896   4.120   9.579  0.8467  0.7113  0.0220
  180SLPC   H9R20590   3.841   4.048   9.641 -1.1588  1.8812 -0.3382
  180SLPC  C21020591   3.886   4.106   9.449 -0.4283  0.3417  0.0775
  180SLPC  H10R20592   3.828   4.015   9.424  0.7071 -0.4304  0.1727
  180SLPC  C21120593   3.949   4.183   9.337  0.3411 -0.2302  0.1274
  180SLPC  H11R20594   3.916   4.289   9.334 -0.3286 -0.4325 -0.1008
  180SLPC  H11S20595   3.897   4.158   9.242 -0.3321 -2.3583  0.9912
  180SLPC  C21220596   4.101   4.178   9.340  0.0519 -0.1546 -0.1382
  180SLPC  H12R20597   4.143   4.213   9.435  0.8539 -2.6600  0.4948
  180SLPC  C21320598   4.179   4.136   9.239  0.3365 -0.0991 -0.0535
  180SLPC  H13R20599   4.288   4.151   9.239  0.3395 -0.0792 -1.3598
  180SLPC  C21420600   4.133   4.078   9.112 -0.1214 -0.1652 -0.0097
  180SLPC  H14R20601   4.033   4.031   9.127  0.6771 -1.8064  0.4804
  180SLPC  H14S20602   4.209   4.010   9.068  0.9902  1.4329 -0.6363
  180SLPC  C21520603   4.103   4.168   8.992 -0.8758  0.0798 -0.4375
  180SLPC  H15R20604   4.202   4.210   8.964 -1.3592 -0.2538 -2.8227
  180SLPC  H15S20605   4.029   4.248   9.014  0.2733  1.1038 -0.1627
  180SLPC  C21620606   4.061   4.082   8.872 -0.1420 -0.2502  0.3015
  180SLPC  H16R20607   3.979   4.010   8.895  1.5737 -2.4634 -0.1054
  180SLPC  H16S20608   4.152   4.025   8.842  2.0253  2.4644  1.2839
  180SLPC  C21720609   4.011   4.168   8.756 -0.6952 -0.5131  0.1239
  180SLPC  H17R20610   4.080   4.253   8.737  0.5963 -1.5386  0.1005
  180SLPC  H17S20611   3.917   4.215   8.790  0.1125  1.5951 -0.4104
  180SLPC  C21820612   3.978   4.090   8.632 -0.4056 -0.1779 -0.1112
  180SLPC  H18R20613   4.067   4.029   8.604  0.4346  1.8901 -2.2628
  180SLPC  H18S20614   3.952   4.162   8.552 -0.7069 -0.9738 -0.7408
  180SLPC  H18T20615   3.891   4.023   8.650  0.3300 -0.7657  1.5279
  180SLPC   C3320616   3.840   3.711   9.976  0.3277 -0.0187  0.4354
  180SLPC   H3X20617   3.758   3.635   9.982  1.0711 -1.0715 -1.7398
  180SLPC   H3Y20618   3.923   3.670  10.037 -0.2441 -1.4017  0.3285
  180SLPC   C3420619   3.899   3.698   9.837  0.1047 -0.0148 -0.1906
  180SLPC   H4X20620   3.948   3.599   9.827 -1.6128 -0.6834 -3.8949
  180SLPC   H4Y20621   3.968   3.784   9.827  0.7957 -0.4055  1.0449
  180SLPC   C3520622   3.795   3.706   9.722  0.3220  0.1736 -0.8066
  180SLPC   H5X20623   3.722   3.788   9.739 -1.1698 -1.2982  0.1721
  180SLPC   H5Y20624   3.740   3.610   9.728  1.3888 -0.3580  2.4868
  180SLPC   C3620625   3.870   3.717   9.588  0.5670  0.5089 -0.0021
  180SLPC   H6X20626   3.905   3.612   9.574 -1.0246 -0.0210 -0.3079
  180SLPC   H6Y20627   3.948   3.795   9.587  0.5741  0.5089 -1.2049
  180SLPC   C3720628   3.788   3.732   9.461  0.3246 -0.1693  0.5595
  180SLPC   H7X20629   3.727   3.825   9.455  0.4664 -0.1250 -0.3969
  180SLPC   H7Y20630   3.720   3.644   9.459 -1.2570  0.9554  1.7433
  180SLPC   C3820631   3.878   3.723   9.333 -0.0440  0.2221  0.5130
  180SLPC   H8X20632   3.918   3.620   9.316  0.8669  0.6807 -0.2437
  180SLPC   H8Y20633   3.975   3.775   9.347  0.5872 -0.3989 -1.3522
  180SLPC   C3920634   3.795   3.781   9.208 -0.0035 -0.0956  0.2451
  180SLPC   H9X20635   3.775   3.885   9.241  1.6985 -0.0141  1.1617
  180SLPC   H9Y20636   3.696   3.732   9.196 -0.4886  1.0066 -0.3598
  180SLPC  C31020637   3.870   3.777   9.078  0.2739  0.0936  0.3509
  180SLPC  H10X20638   3.973   3.817   9.084 -1.0251  4.7398 -2.4801
  180SLPC  H10Y20639   3.814   3.846   9.010  1.1620 -0.2276 -0.7361
  180SLPC  C31120640   3.878   3.634   9.012  0.1877  1.0860  0.4879
  180SLPC  H11X20641   3.777   3.597   8.981  0.3350  2.3958 -1.7826
  180SLPC  H11Y20642   3.909   3.565   9.093 -3.8474 -0.1997  1.1764
  180SLPC  C31220643   3.963   3.630   8.884 -0.5541  0.0295 -0.0926
  180SLPC  H12X20644   3.917   3.703   8.814  0.8289  1.6218  0.5942
  180SLPC  H12Y20645   3.952   3.531   8.835 -1.4549  0.6538 -1.2158
  180SLPC  C31320646   4.116   3.654   8.908  0.3476 -0.1146 -0.1613
  180SLPC  H13X20647   4.147   3.591   8.994 -0.4542  2.1657  1.9149
  180SLPC  H13Y20648   4.137   3.756   8.945 -2.1622  0.7361 -0.8301
  180SLPC  C31420649   4.203   3.629   8.786 -0.1287  0.2629 -0.6971
  180SLPC  H14X20650   4.148   3.665   8.697  0.2842  0.5835 -0.8254
  180SLPC  H14Y20651   4.221   3.521   8.767 -1.5915  0.0886 -1.1499
  180SLPC  C31520652   4.336   3.704   8.793  0.1005 -0.0327 -0.5093
  180SLPC  H15X20653   4.396   3.677   8.882 -2.0517  0.3834  1.1336
  180SLPC  H15Y20654   4.313   3.812   8.804  0.9661  0.0686  0.5431
  180SLPC  C31620655   4.434   3.672   8.679  0.9586 -0.1794  0.0431
  180SLPC  H16X20656   4.460   3.564   8.684  2.2601  0.1369  0.6590
  180SLPC  H16Y20657   4.536   3.716   8.688  0.5735  0.3601  2.6563
  180SLPC  C31720658   4.368   3.706   8.539  0.0077 -0.1120  0.4511
  180SLPC  H17X20659   4.277   3.642   8.531  0.2539 -0.6134  1.4886
  180SLPC  H17Y20660   4.430   3.664   8.456 -1.3503 -1.8119  0.2338
  180SLPC  C31820661   4.336   3.851   8.524 -0.1276  0.3407 -0.0431
  180SLPC  H18X20662   4.275   3.864   8.432  0.0231  2.5330  0.0993
  180SLPC  H18Y20663   4.429   3.910   8.511  0.6758 -0.7211  0.7318
  180SLPC  H18Z20664   4.287   3.887   8.617 -1.2223  0.2171 -0.5604
  181SLPC     N20665   2.893   2.716  11.281 -0.6833 -0.4469 -0.1407
  181SLPC   C1320666   2.867   2.750  11.427  0.8142  0.2826  0.2991
  181SLPC  H13A20667   2.825   2.849  11.435 -0.3150 -0.2974  1.9635
  181SLPC  H13B20668   2.786   2.694  11.471 -0.8112  3.0719  1.0633
  181SLPC  H13C20669   2.959   2.746  11.484  0.7105  1.6434  0.5772
  181SLPC   C1420670   2.968   2.837  11.228  0.2314  0.1464 -0.2728
  181SLPC  H14A20671   2.974   2.828  11.120 -1.0485  0.0990 -0.3545
  181SLPC  H14B20672   2.900   2.915  11.258  0.7568  0.3482  0.4137
  181SLPC  H14C20673   3.063   2.848  11.278 -0.6840 -0.9244  1.7948
  181SLPC   C1520674   2.757   2.709  11.222  0.6449  0.3436  0.4708
  181SLPC  H15A20675   2.714   2.617  11.256  0.1399 -0.2421 -1.6028
  181SLPC  H15B20676   2.697   2.794  11.253  0.0494  0.4098 -0.7998
  181SLPC  H15C20677   2.760   2.705  11.114  0.7101  0.8514  0.4485
  181SLPC   C1220678   2.978   2.591  11.263  0.4303 -0.6581 -0.3941
  181SLPC  H12A20679   2.945   2.515  11.333 -0.2938  0.6448  0.7234
  181SLPC  H12B20680   3.072   2.614  11.312 -1.4821  1.6508  2.5828
  181SLPC   C1120681   2.994   2.534  11.120  0.0291 -0.2577 -0.5580
  181SLPC  H11A20682   2.894   2.506  11.080 -0.7211 -0.5124  1.3702
  181SLPC  H11B20683   3.048   2.436  11.122  0.8577  0.1943 -0.3764
  181SLPC     P20684   3.198   2.585  10.956  0.4760  0.1921 -0.2704
  181SLPC   O1320685   3.260   2.711  10.908  0.1434  0.2977 -0.2594
  181SLPC   O1420686   3.280   2.497  11.042  0.2754  0.0127  0.5138
  181SLPC   O1220687   3.058   2.626  11.025 -0.0110  0.6049  0.0977
  181SLPC   O1120688   3.148   2.505  10.830 -0.2396  0.1306  0.4211
  181SLPC    C120689   3.031   2.563  10.762  0.0650  0.1087  0.0481
  181SLPC    HA20690   2.941   2.557  10.826  0.2809 -2.3454  0.2346
  181SLPC    HB20691   3.053   2.669  10.736 -0.7150  0.2800  0.0645
  181SLPC    C220692   2.995   2.486  10.630 -0.0041  0.0456  0.5319
  181SLPC    HS20693   2.961   2.383  10.651 -0.7529  0.4458  1.3328
  181SLPC   O2120694   3.117   2.473  10.544  0.6056 -0.1210 -0.0958
  181SLPC   C2120695   3.126   2.371  10.457  0.4598 -0.2079  0.6567
  181SLPC   O2220696   3.058   2.271  10.461  0.0452 -0.3455  0.7230
  181SLPC   C2220697   3.228   2.405  10.349 -0.2817 -0.1168 -0.7829
  181SLPC   H2R20698   3.238   2.515  10.343  0.6237  0.0197  1.8628
  181SLPC   H2S20699   3.325   2.371  10.390 -1.0570 -0.5934  0.7593
  181SLPC    C320700   2.878   2.550  10.552 -0.0205 -0.6227  0.4594
  181SLPC    HX20701   2.906   2.656  10.533 -2.0166  0.6605  3.8780
  181SLPC    HY20702   2.795   2.560  10.625  0.6836  1.6181  1.0389
  181SLPC   O3120703   2.849   2.475  10.433  0.2600 -0.1731  0.4006
  181SLPC   C3120704   2.782   2.367  10.450  0.1328 -0.2575  0.4087
  181SLPC   O3220705   2.728   2.323  10.552  0.0519 -0.3592  0.7469
  181SLPC   C3220706   2.794   2.295  10.315 -0.8308 -0.3137  0.1511
  181SLPC   H2X20707   2.898   2.271  10.285 -0.9047 -0.2162 -0.1813
  181SLPC   H2Y20708   2.756   2.369  10.242 -0.3578 -0.4936 -0.2835
  181SLPC   C2320709   3.182   2.343  10.220 -0.6555  0.4490 -0.0398
  181SLPC   H3R20710   3.141   2.242  10.240  1.3005 -0.8876 -2.2716
  181SLPC   H3S20711   3.271   2.324  10.156 -0.1165  0.3648  0.7250
  181SLPC   C2420712   3.089   2.436  10.150  0.4120  0.2115  0.3221
  181SLPC   H4R20713   3.153   2.513  10.102  0.9342 -1.2075 -1.3482
  181SLPC   H4S20714   3.016   2.483  10.220 -0.8398 -1.1096 -0.0751
  181SLPC   C2520715   3.007   2.358  10.041 -0.0410  0.4906 -0.1694
  181SLPC   H5R20716   2.909   2.405  10.017 -0.8457 -1.2263 -0.4159
  181SLPC   H5S20717   2.984   2.257  10.082 -0.6096  1.1206  1.1209
  181SLPC   C2620718   3.080   2.332   9.901  0.1065  0.9908  0.4146
  181SLPC   H6R20719   3.188   2.321   9.921  0.6641  1.4711 -1.9523
  181SLPC   H6S20720   3.075   2.433   9.854 -2.2271  1.3385  1.2723
  181SLPC   C2720721   3.023   2.221   9.804 -0.2668 -0.4232 -0.0113
  181SLPC   H7R20722   2.912   2.232   9.798 -0.1637  0.0874 -1.4765
  181SLPC   H7S20723   3.031   2.120   9.851  1.9217 -0.4759 -0.3826
  181SLPC   C2820724   3.100   2.204   9.667 -0.1782  0.6375  0.3235
  181SLPC   H8R20725   3.204   2.172   9.689 -0.2314 -0.3530 -0.7207
  181SLPC   H8S20726   3.099   2.304   9.618 -1.3524  0.8126  0.6713
  181SLPC   C2920727   3.028   2.113   9.573 -0.5418 -0.5791 -0.0344
  181SLPC   H9R20728   2.932   2.156   9.539  0.3734  1.7674  0.1128
  181SLPC  C21020729   3.061   1.992   9.527  0.5672  0.6302 -0.6339
  181SLPC  H10R20730   2.993   1.948   9.452  0.2407  0.7433 -0.4046
  181SLPC  C21120731   3.190   1.914   9.545  0.3373  0.8907  0.2542
  181SLPC  H11R20732   3.174   1.805   9.532 -1.7547  1.2608 -0.7679
  181SLPC  H11S20733   3.225   1.930   9.649 -0.4204  1.2061  0.4708
  181SLPC  C21220734   3.304   1.960   9.458  0.0509 -0.1547  0.1892
  181SLPC  H12R20735   3.351   2.057   9.480  0.3446  0.4744 -2.7138
  181SLPC  C21320736   3.349   1.892   9.352 -0.4609 -0.3157  0.0611
  181SLPC  H13R20737   3.422   1.938   9.285  0.8128 -1.9517  0.2543
  181SLPC  C21420738   3.307   1.763   9.290  0.0624 -0.5382 -0.3913
  181SLPC  H14R20739   3.227   1.715   9.352 -0.5560 -0.1647 -0.8914
  181SLPC  H14S20740   3.394   1.694   9.292  1.1994  0.8339 -1.2425
  181SLPC  C21520741   3.257   1.790   9.148  0.8136  0.0230  0.0678
  181SLPC  H15R20742   3.235   1.688   9.110  2.7604 -0.4684  0.1714
  181SLPC  H15S20743   3.335   1.829   9.079  0.0250  0.4077 -0.6315
  181SLPC  C21620744   3.134   1.882   9.138 -0.4461 -0.6791 -0.3326
  181SLPC  H16R20745   3.163   1.981   9.179 -0.2296 -0.9795  0.2462
  181SLPC  H16S20746   3.059   1.833   9.204 -0.2244  1.2282  1.4253
  181SLPC  C21720747   3.093   1.901   8.993  0.6846 -0.0926  0.4225
  181SLPC  H17R20748   3.039   1.808   8.963 -0.1685 -0.6648  3.3552
  181SLPC  H17S20749   3.184   1.920   8.932 -0.1673  2.5391 -0.1763
  181SLPC  C21820750   2.994   2.017   8.988  0.1219 -0.2367  0.9191
  181SLPC  H18R20751   3.052   2.107   9.020  0.2939 -0.2698  0.7076
  181SLPC  H18S20752   2.911   1.989   9.056 -2.3482 -1.9764 -2.5160
  181SLPC  H18T20753   2.954   2.033   8.886  2.8679 -2.0448 -0.5724
  181SLPC   C3320754   2.710   2.164  10.313  0.4897 -0.1698 -0.3500
  181SLPC   H3X20755   2.600   2.175  10.326  0.8187 -0.0838  3.4789
  181SLPC   H3Y20756   2.747   2.111  10.403 -0.9832 -0.8153 -0.0888
  181SLPC   C3420757   2.753   2.075  10.189  0.4938 -0.6066 -0.4637
  181SLPC   H4X20758   2.716   1.973  10.212 -0.5475  0.1027  1.2412
  181SLPC   H4Y20759   2.863   2.062  10.179  0.6236  1.1268 -1.7906
  181SLPC   C3520760   2.696   2.119  10.054  0.2263  0.1069 -0.4938
  181SLPC   H5X20761   2.745   2.214  10.023 -1.0993  0.5438 -1.3121
  181SLPC   H5Y20762   2.588   2.140  10.066  0.0660 -0.8968 -0.1582
  181SLPC   C3620763   2.704   2.020   9.940 -0.5130 -0.1164 -0.2724
  181SLPC   H6X20764   2.660   1.928   9.984 -0.4750  0.9093  2.0855
  181SLPC   H6Y20765   2.807   1.989   9.914 -0.3417 -0.5558  0.8614
  181SLPC   C3720766   2.637   2.076   9.818 -0.4535  1.9176  0.0063
  181SLPC   H7X20767   2.688   2.173   9.799  2.2225  0.8160  1.0812
  181SLPC   H7Y20768   2.528   2.095   9.834 -0.5780  0.9736  0.3467
  181SLPC   C3820769   2.651   1.976   9.704 -0.2515 -0.2782  0.2978
  181SLPC   H8X20770   2.584   1.889   9.719  1.1008 -1.2444  0.9638
  181SLPC   H8Y20771   2.755   1.942   9.686  0.6888  2.0606  0.9201
  181SLPC   C3920772   2.615   2.048   9.570  1.0770  0.3476  0.1694
  181SLPC   H9X20773   2.672   2.143   9.562  2.1719 -0.2982  0.0112
  181SLPC   H9Y20774   2.508   2.076   9.571  0.7073 -0.9959  0.5733
  181SLPC  C31020775   2.649   1.959   9.451 -0.7047 -0.5728  0.5373
  181SLPC  H10X20776   2.607   1.856   9.455  1.5063 -1.6144 -0.8214
  181SLPC  H10Y20777   2.758   1.939   9.462 -0.5642  0.8518  2.0312
  181SLPC  C31120778   2.630   2.024   9.310  0.4778  0.6375  0.7500
  181SLPC  H11X20779   2.665   2.130   9.305 -1.1505  1.1993  0.6533
  181SLPC  H11Y20780   2.523   2.036   9.283  0.5730  2.2339  0.9796
  181SLPC  C31220781   2.687   1.947   9.191  0.3365  0.1447  0.8036
  181SLPC  H12X20782   2.793   1.972   9.211 -0.3121  4.4014 -0.0902
  181SLPC  H12Y20783   2.653   1.996   9.097 -0.0286 -1.1151  0.2591
  181SLPC  C31320784   2.675   1.797   9.186  0.1152  0.1509 -0.8047
  181SLPC  H13X20785   2.568   1.767   9.184 -0.3051  1.1353  1.7812
  181SLPC  H13Y20786   2.720   1.747   9.275 -0.1851  0.2155 -0.6161
  181SLPC  C31420787   2.731   1.730   9.054  0.7216 -0.4475  0.3466
  181SLPC  H14X20788   2.842   1.723   9.057  0.8119  1.0108  2.7988
  181SLPC  H14Y20789   2.683   1.797   8.979  0.1746 -0.9590  0.2366
  181SLPC  C31520790   2.666   1.590   9.034  0.2575 -0.5460 -0.0952
  181SLPC  H15X20791   2.555   1.589   9.035  0.1984  1.6925 -0.0221
  181SLPC  H15Y20792   2.690   1.527   9.122 -1.3260 -2.4684 -0.9687
  181SLPC  C31620793   2.707   1.513   8.904 -0.4264  0.5850  0.1600
  181SLPC  H16X20794   2.660   1.413   8.892  1.0849 -0.2522  0.9792
  181SLPC  H16Y20795   2.816   1.493   8.906 -0.1184  2.1539  0.3393
  181SLPC  C31720796   2.669   1.591   8.781  0.2934  0.0947  0.4120
  181SLPC  H17X20797   2.732   1.682   8.765 -0.1361  0.0040 -2.0563
  181SLPC  H17Y20798   2.563   1.624   8.783 -0.0906 -1.0162 -0.6734
  181SLPC  C31820799   2.688   1.508   8.653 -0.1111  0.7160  0.7737
  181SLPC  H18X20800   2.639   1.555   8.565  1.3356 -1.5481 -1.3876
  181SLPC  H18Y20801   2.636   1.411   8.669  0.3724  0.2414 -0.3702
  181SLPC  H18Z20802   2.791   1.477   8.624  0.0844  0.9383  1.2224
  182SLPC     N20803   1.821   1.624  11.261  0.2012  0.3720  0.2064
  182SLPC   C1320804   1.745   1.548  11.357  0.2427 -0.5080 -0.4359
  182SLPC  H13A20805   1.758   1.443  11.336  1.8717 -0.5961  0.8304
  182SLPC  H13B20806   1.784   1.560  11.457  3.3613 -1.2980 -1.4201
  182SLPC  H13C20807   1.642   1.575  11.343  0.6243  2.3592  1.3764
  182SLPC   C1420808   1.967   1.589  11.278 -0.0823 -0.1026  0.1134
  182SLPC  H14A20809   2.000   1.582  11.381 -0.8731  0.7793  0.4393
  182SLPC  H14B20810   1.981   1.488  11.242 -0.3130 -0.4371  0.9155
  182SLPC  H14C20811   2.039   1.652  11.229 -0.5980 -1.6565 -2.9088
  182SLPC   C1520812   1.801   1.767  11.281  0.6650  0.6325 -0.7512
  182SLPC  H15A20813   1.699   1.801  11.276  1.3810  3.2712  0.6369
  182SLPC  H15B20814   1.841   1.803  11.375 -1.4373  0.0544  0.4315
  182SLPC  H15C20815   1.858   1.823  11.209 -0.9039  1.4756 -1.3895
  182SLPC   C1220816   1.787   1.603  11.122  0.3966 -0.1321 -0.3246
  182SLPC  H12A20817   1.686   1.636  11.102  0.3291  0.5695  1.0457
  182SLPC  H12B20818   1.797   1.496  11.113 -0.0923 -0.1992 -0.1060
  182SLPC   C1120819   1.875   1.670  11.008  0.6110  0.2364 -0.9122
  182SLPC  H11A20820   1.834   1.628  10.913  1.3584 -1.4464 -0.5285
  182SLPC  H11B20821   1.976   1.623  11.010  0.0997 -0.8874 -0.3780
  182SLPC     P20822   1.767   1.904  10.940 -0.0698  0.0623 -0.0011
  182SLPC   O1320823   1.640   1.826  10.951 -0.0103  0.1687 -0.3228
  182SLPC   O1420824   1.780   2.036  11.005  0.5248  0.2788 -0.2295
  182SLPC   O1220825   1.868   1.809  11.007 -0.2615  0.2647  0.0130
  182SLPC   O1120826   1.814   1.911  10.791  0.2498  0.0083 -0.1077
  182SLPC    C120827   1.953   1.909  10.756 -0.3537  0.0453  0.5760
  182SLPC    HA20828   2.018   1.855  10.828  2.2290  1.6445 -0.4285
  182SLPC    HB20829   1.963   1.862  10.656 -0.5699  3.0089 -0.9563
  182SLPC    C220830   1.999   2.050  10.750  0.3440 -0.2177 -0.2229
  182SLPC    HS20831   1.962   2.107  10.838  0.0879  0.9234 -1.0526
  182SLPC   O2120832   1.934   2.104  10.633 -0.0917 -0.4082  0.9348
  182SLPC   C2120833   1.948   2.232  10.619  0.5983 -0.4453 -0.3799
  182SLPC   O2220834   1.994   2.312  10.699  0.3858  0.4916  0.3350
  182SLPC   C2220835   1.891   2.278  10.482 -0.1644 -0.5032 -0.5060
  182SLPC   H2R20836   1.827   2.199  10.438 -1.2383 -0.5954  1.1686
  182SLPC   H2S20837   1.809   2.343  10.517  1.0078  1.4269 -1.2207
  182SLPC    C320838   2.155   2.066  10.738 -0.3680  0.3546  0.1387
  182SLPC    HX20839   2.207   2.009  10.818 -0.7623  0.9559  0.8337
  182SLPC    HY20840   2.187   2.172  10.751 -0.0522  0.4444 -1.2293
  182SLPC   O3120841   2.199   2.026  10.603  0.2711  0.0412  0.1468
  182SLPC   C3120842   2.245   1.900  10.578 -0.2521 -0.0342 -0.1061
  182SLPC   O3220843   2.279   1.822  10.664 -0.6033  0.4808 -0.3721
  182SLPC   C3220844   2.254   1.874  10.433  0.1927  0.2950 -0.5167
  182SLPC   H2X20845   2.150   1.867  10.395  0.6825  0.2783 -1.9122
  182SLPC   H2Y20846   2.296   1.773  10.414 -1.0780 -0.2469 -0.5294
  182SLPC   C2320847   1.979   2.364  10.391  0.5308 -0.5984 -0.5604
  182SLPC   H3R20848   2.087   2.376  10.416 -0.0533  2.3844  0.8790
  182SLPC   H3S20849   1.944   2.469  10.390  2.1505 -0.0065 -2.4410
  182SLPC   C2420850   1.968   2.317  10.241  0.1733 -0.4082  0.2567
  182SLPC   H4R20851   2.011   2.396  10.176 -2.0070  1.4556  0.9647
  182SLPC   H4S20852   1.858   2.307  10.228 -0.2001 -0.2912  2.8930
  182SLPC   C2520853   2.040   2.193  10.207 -0.7963  0.1245  0.9175
  182SLPC   H5R20854   2.002   2.103  10.258  1.7358 -1.5128  0.0911
  182SLPC   H5S20855   2.143   2.193  10.248 -0.2882  0.1637 -0.3174
  182SLPC   C2620856   2.052   2.167  10.056 -0.3107  0.4492  0.2133
  182SLPC   H6R20857   2.120   2.084  10.027  1.1720  1.4049  0.8611
  182SLPC   H6S20858   2.091   2.257  10.003  0.5925  0.0719  0.2225
  182SLPC   C2720859   1.918   2.142   9.983 -0.1451  0.0619 -0.3307
  182SLPC   H7R20860   1.854   2.233   9.988 -0.9390 -0.4932 -0.3389
  182SLPC   H7S20861   1.858   2.069  10.041 -0.0980 -1.6449 -2.3098
  182SLPC   C2820862   1.942   2.112   9.836 -0.1083 -0.7215 -0.0200
  182SLPC   H8R20863   2.026   2.172   9.797  2.6394 -3.6002  1.0340
  182SLPC   H8S20864   1.849   2.127   9.777 -1.3489 -0.3268  1.9242
  182SLPC   C2920865   1.978   1.969   9.822  0.0688  0.2430  0.1432
  182SLPC   H9R20866   1.924   1.890   9.877 -1.2420  0.0095 -1.3984
  182SLPC  C21020867   2.069   1.918   9.736 -0.0734 -0.0479 -0.0539
  182SLPC  H10R20868   2.087   1.811   9.720  1.9687  0.5726 -2.5629
  182SLPC  C21120869   2.143   2.011   9.646 -0.5457  0.8230  0.8430
  182SLPC  H11R20870   2.201   2.085   9.704  2.7935  0.0823 -1.2228
  182SLPC  H11S20871   2.075   2.062   9.574 -1.7784 -1.2397  0.4337
  182SLPC  C21220872   2.254   1.937   9.572 -0.3870  0.4611  0.1136
  182SLPC  H12R20873   2.347   1.941   9.630 -0.1873 -2.3528  0.1149
  182SLPC  C21320874   2.248   1.869   9.453 -0.0153  0.8012 -0.2660
  182SLPC  H13R20875   2.338   1.812   9.426 -0.2902  0.3539 -0.2389
  182SLPC  C21420876   2.124   1.848   9.361 -0.4382  0.1773 -0.4930
  182SLPC  H14R20877   2.034   1.893   9.409 -1.4325  0.4293 -2.4992
  182SLPC  H14S20878   2.094   1.741   9.359  1.1090 -0.3177  0.7012
  182SLPC  C21520879   2.155   1.900   9.225  0.4019 -0.5392  0.3280
  182SLPC  H15R20880   2.191   2.003   9.242 -0.6022  0.1477 -1.4214
  182SLPC  H15S20881   2.053   1.902   9.180  0.1878 -0.9434  0.7923
  182SLPC  C21620882   2.246   1.801   9.156  0.3344  0.0087  0.7951
  182SLPC  H16R20883   2.209   1.702   9.191  2.2949 -0.9230  0.3625
  182SLPC  H16S20884   2.352   1.809   9.190 -0.5787  0.5667  3.8693
  182SLPC  C21720885   2.249   1.810   9.003 -0.3025  0.2652 -0.3358
  182SLPC  H17R20886   2.148   1.787   8.962  0.6110 -2.7293 -1.1504
  182SLPC  H17S20887   2.302   1.725   8.956 -0.9917 -0.0066 -0.6362
  182SLPC  C21820888   2.305   1.937   8.946 -0.4404  0.0476  0.4357
  182SLPC  H18R20889   2.407   1.955   8.987  0.1583 -2.1634  0.0296
  182SLPC  H18S20890   2.225   2.013   8.964 -1.3106 -0.5086 -0.9123
  182SLPC  H18T20891   2.328   1.923   8.838 -2.0336  0.1991  0.0454
  182SLPC   C3320892   2.333   1.981  10.341 -0.5609 -0.9203  0.8349
  182SLPC   H3X20893   2.442   1.984  10.362  0.5236  1.8088 -3.7007
  182SLPC   H3Y20894   2.296   2.081  10.373  1.0164 -0.2523  0.6895
  182SLPC   C3420895   2.308   1.957  10.188  0.2282 -0.1178  0.3337
  182SLPC   H4X20896   2.315   2.047  10.124  0.1412  0.7926  1.5516
  182SLPC   H4Y20897   2.201   1.928  10.188  0.5184 -1.2726 -1.0801
  182SLPC   C3520898   2.392   1.848  10.116  0.1278 -0.1872  0.0864
  182SLPC   H5X20899   2.410   1.763  10.186 -0.6967 -1.3516 -1.0800
  182SLPC   H5Y20900   2.491   1.893  10.096 -0.6087  0.5003 -2.3873
  182SLPC   C3620901   2.322   1.810   9.986  0.8477 -0.0267 -0.8176
  182SLPC   H6X20902   2.295   1.901   9.929 -2.8124 -0.7132 -0.4250
  182SLPC   H6Y20903   2.222   1.767  10.007  0.7634  0.4343 -0.2414
  182SLPC   C3720904   2.413   1.711   9.912 -0.0646  0.0273  0.4745
  182SLPC   H7X20905   2.444   1.627   9.977 -0.1712 -0.3668  0.0237
  182SLPC   H7Y20906   2.511   1.753   9.880  0.4519 -0.9261  0.7644
  182SLPC   C3820907   2.355   1.642   9.785 -0.9866  0.0241  0.4652
  182SLPC   H8X20908   2.337   1.719   9.707  2.4868  0.6752  0.1658
  182SLPC   H8Y20909   2.265   1.586   9.820 -0.6650 -0.9620 -0.2536
  182SLPC   C3920910   2.453   1.541   9.721 -0.1693  0.7822  0.1894
  182SLPC   H9X20911   2.467   1.462   9.797 -3.5795  0.4836  0.6322
  182SLPC   H9Y20912   2.545   1.600   9.700 -0.5480  2.2859  2.3770
  182SLPC  C31020913   2.385   1.477   9.595 -0.2313  0.4989 -1.2931
  182SLPC  H10X20914   2.330   1.557   9.541 -0.4506  0.7640 -0.6884
  182SLPC  H10Y20915   2.317   1.391   9.616  0.6825 -0.7880 -3.3403
  182SLPC  C31120916   2.492   1.414   9.498 -0.4930  0.2859 -0.1570
  182SLPC  H11X20917   2.562   1.354   9.559  1.9202  0.4920 -2.5549
  182SLPC  H11Y20918   2.553   1.493   9.449  0.4775  0.3835  1.1637
  182SLPC  C31220919   2.443   1.323   9.390  0.3522 -0.3044 -0.2754
  182SLPC  H12X20920   2.363   1.256   9.428  2.3237 -0.9544  3.0669
  182SLPC  H12Y20921   2.526   1.273   9.337  0.9405 -2.5302  2.4973
  182SLPC  C31320922   2.374   1.415   9.275  0.5018 -0.3491 -0.1285
  182SLPC  H13X20923   2.436   1.502   9.245 -1.2984  1.7199  1.7134
  182SLPC  H13Y20924   2.283   1.458   9.323  1.2523  0.3934  0.6571
  182SLPC  C31420925   2.327   1.331   9.158 -0.1206 -0.3296  0.3680
  182SLPC  H14X20926   2.240   1.270   9.192  0.0944 -2.9418 -3.1485
  182SLPC  H14Y20927   2.404   1.262   9.118 -2.2481 -2.7709  0.1798
  182SLPC  C31520928   2.284   1.426   9.040  0.4994  0.4297  0.2472
  182SLPC  H15X20929   2.372   1.475   8.993  0.4331 -0.7332 -1.1864
  182SLPC  H15Y20930   2.219   1.501   9.090 -1.6807  0.2610 -2.0908
  182SLPC  C31620931   2.206   1.354   8.932 -0.2882  0.8754  0.7772
  182SLPC  H16X20932   2.241   1.254   8.900  1.5639  0.3292  4.0316
  182SLPC  H16Y20933   2.225   1.414   8.840 -2.7590 -1.7939 -1.6484
  182SLPC  C31720934   2.058   1.336   8.947 -1.2618 -0.2778 -0.6087
  182SLPC  H17X20935   2.009   1.436   8.956 -0.3372  0.3382 -1.9583
  182SLPC  H17Y20936   2.028   1.282   9.039  2.1005 -0.9260  0.2318
  182SLPC  C31820937   1.997   1.274   8.817 -0.9551  0.3629  0.3176
  182SLPC  H18X20938   1.888   1.274   8.839 -0.5632 -0.1350  2.3788
  182SLPC  H18Y20939   2.026   1.167   8.821 -0.1494  0.5982  0.7624
  182SLPC  H18Z20940   2.020   1.330   8.724  0.8529 -2.2288 -0.8941
  183SLPC     N20941   5.165   4.227  10.639 -0.5765  0.4241  0.1900
  183SLPC   C1320942   5.063   4.289  10.541  0.0414  0.7255 -0.5778
  183SLPC  H13A20943   5.111   4.355  10.470 -1.1838  1.3898 -0.8256
  183SLPC  H13B20944   5.008   4.216  10.484  2.0230 -0.3696 -1.1750
  183SLPC  H13C20945   4.995   4.350  10.598  0.3506 -0.2101  0.8345
  183SLPC   C1420946   5.100   4.155  10.752  0.2147 -0.0685 -0.3205
  183SLPC  H14A20947   5.179   4.112  10.812  0.4561 -0.1028 -0.6595
  183SLPC  H14B20948   5.052   4.219  10.824  1.7786  0.0899  0.6299
  183SLPC  H14C20949   5.032   4.077  10.721 -0.2784 -0.4557  1.6291
  183SLPC   C1520950   5.245   4.343  10.690  0.0743 -0.6180 -0.1990
  183SLPC  H15A20951   5.280   4.421  10.626 -2.2877  1.0271  0.3800
  183SLPC  H15B20952   5.178   4.397  10.755 -2.9376 -1.4511 -2.4009
  183SLPC  H15C20953   5.331   4.309  10.746  0.3465  2.0069  1.1044
  183SLPC   C1220954   5.245   4.129  10.555 -0.4384 -0.2359  0.0507
  183SLPC  H12A20955   5.330   4.093  10.611  0.3304 -1.3937 -1.7656
  183SLPC  H12B20956   5.304   4.188  10.486  3.1713 -2.0230  1.3249
  183SLPC   C1120957   5.185   4.001  10.492  0.4373 -0.0020 -0.1963
  183SLPC  H11A20958   5.255   3.931  10.440  0.9109 -2.4639  3.3986
  183SLPC  H11B20959   5.105   4.027  10.419 -0.6044 -2.2117  0.0441
  183SLPC     P20960   5.170   3.779  10.642 -0.0459 -0.0070  0.2603
  183SLPC   O1320961   5.314   3.772  10.678 -0.0369 -0.3841  0.0681
  183SLPC   O1420962   5.071   3.725  10.741 -0.4571 -0.1233  0.5961
  183SLPC   O1220963   5.122   3.924  10.599  0.2009 -0.0820  0.9979
  183SLPC   O1120964   5.158   3.692  10.516 -0.4035 -0.2042  0.0630
  183SLPC    C120965   5.033   3.647  10.458 -0.1019  0.7042 -0.9390
  183SLPC    HA20966   5.005   3.549  10.500 -0.8214 -0.2575 -3.4828
  183SLPC    HB20967   4.954   3.726  10.461 -1.5036 -0.6385 -1.2141
  183SLPC    C220968   5.046   3.619  10.304  0.3315 -0.1981 -0.1306
  183SLPC    HS20969   4.949   3.593  10.256 -1.3098 -0.7844  3.2327
  183SLPC   O2120970   5.149   3.530  10.273 -0.1138  0.9604  0.1840
  183SLPC   C2120971   5.103   3.408  10.235 -0.2609 -0.4904 -0.4401
  183SLPC   O2220972   4.989   3.380  10.221 -0.1096 -0.1575  0.2344
  183SLPC   C2220973   5.209   3.297  10.244 -0.9445  0.4221 -0.2791
  183SLPC   H2R20974   5.310   3.343  10.253  0.1172 -1.6013 -1.2120
  183SLPC   H2S20975   5.182   3.235  10.332 -2.0277 -1.3065 -1.7560
  183SLPC    C320976   5.085   3.757  10.252  0.4464 -0.0006  0.3056
  183SLPC    HX20977   5.180   3.783  10.302  1.3142 -1.1736 -0.6878
  183SLPC    HY20978   5.012   3.830  10.294 -0.3411 -0.5543 -0.0832
  183SLPC   O3120979   5.095   3.772  10.105 -0.3814 -0.2436  0.0244
  183SLPC   C3120980   4.982   3.786  10.043  0.0915  0.2672 -0.8666
  183SLPC   O3220981   4.876   3.816  10.094  0.5962 -0.2640  0.4788
  183SLPC   C3220982   4.998   3.746   9.898 -0.1125  0.3653  0.0120
  183SLPC   H2X20983   5.073   3.666   9.884 -1.5558 -1.6107  2.7653
  183SLPC   H2Y20984   5.034   3.836   9.842  1.4883 -1.1689 -1.5385
  183SLPC   C2320985   5.199   3.214  10.111 -0.2142  0.0940 -0.3774
  183SLPC   H3R20986   5.095   3.175  10.104 -0.4685  0.8929 -1.3757
  183SLPC   H3S20987   5.263   3.124  10.127 -0.5027  0.0136  0.3601
  183SLPC   C2420988   5.252   3.298   9.992  0.6149 -0.0872 -0.4530
  183SLPC   H4R20989   5.360   3.325   9.995  0.1552  2.0966 -1.5394
  183SLPC   H4S20990   5.203   3.397   9.997  2.3613  0.9015 -1.8079
  183SLPC   C2520991   5.222   3.228   9.865  0.2547  0.3430 -0.6922
  183SLPC   H5R20992   5.113   3.210   9.857  0.0458 -0.1269  2.0457
  183SLPC   H5S20993   5.270   3.128   9.879 -1.6247 -0.3004  2.1372
  183SLPC   C2620994   5.268   3.296   9.735  0.7045  0.0295 -0.0473
  183SLPC   H6R20995   5.372   3.312   9.772  0.6732  1.5563 -0.5444
  183SLPC   H6S20996   5.217   3.393   9.721 -2.1489 -0.8867  2.7914
  183SLPC   C2720997   5.279   3.215   9.606 -0.4507  1.3562  0.1302
  183SLPC   H7R20998   5.328   3.271   9.523  0.6087  0.1520 -0.0854
  183SLPC   H7S20999   5.173   3.192   9.585 -0.0476  0.8736 -1.4900
  183SLPC   C2821000   5.347   3.072   9.609  0.0401 -0.8739  0.0949
  183SLPC   H8R21001   5.324   3.024   9.512 -0.1537  1.7641 -1.2522
  183SLPC   H8S21002   5.308   3.009   9.692 -1.9998 -2.7777 -2.1466
  183SLPC   C2921003   5.490   3.091   9.645 -0.6976 -0.8335 -0.2482
  183SLPC   H9R21004   5.510   3.119   9.749  1.2373 -1.0264 -0.5406
  183SLPC  C21021005   5.589   3.094   9.563  0.2568 -0.3244 -0.4940
  183SLPC  H10R21006   5.688   3.111   9.606  0.1740  0.1319 -0.4736
  183SLPC  C21121007   5.603   3.074   9.413 -0.0186  0.0041  0.0400
  183SLPC  H11R21008   5.540   2.989   9.381 -1.2918  0.9215  0.0536
  183SLPC  H11S21009   5.708   3.051   9.385 -0.6147  1.0175 -3.4402
  183SLPC  C21221010   5.574   3.200   9.332  0.1352 -0.0205  0.2532
  183SLPC  H12R21011   5.601   3.296   9.379  0.5805 -0.2510  0.4691
  183SLPC  C21321012   5.539   3.204   9.201  0.8176 -0.0276  0.1042
  183SLPC  H13R21013   5.535   3.302   9.152 -2.1734 -1.7086 -3.4527
  183SLPC  C21421014   5.514   3.079   9.124  0.1660 -0.5174  0.2979
  183SLPC  H14R21015   5.555   2.994   9.183  1.3072 -0.8645 -0.9427
  183SLPC  H14S21016   5.553   3.087   9.021 -1.1426 -1.0867 -0.2657
  183SLPC  C21521017   5.363   3.065   9.102 -0.7730 -0.5050 -0.4285
  183SLPC  H15R21018   5.340   2.985   9.029  0.0166 -2.5343  1.4370
  183SLPC  H15S21019   5.316   3.154   9.054 -1.0387 -0.3749  0.0570
  183SLPC  C21621020   5.284   3.025   9.230  0.0020  0.4551  0.4932
  183SLPC  H16R21021   5.309   3.097   9.311 -1.7605  0.3646  1.1660
  183SLPC  H16S21022   5.315   2.922   9.259 -0.8666  0.0196 -0.0854
  183SLPC  C21721023   5.130   3.024   9.209 -0.7267  0.0403 -0.4484
  183SLPC  H17R21024   5.101   2.949   9.133 -1.6499  1.0513 -1.1165
  183SLPC  H17S21025   5.099   3.127   9.180 -0.0328  0.2184 -0.5832
  183SLPC  C21821026   5.066   3.011   9.352 -0.2870  0.4670  0.2945
  183SLPC  H18R21027   4.957   3.029   9.362 -0.4804 -0.5701  0.2510
  183SLPC  H18S21028   5.115   3.092   9.410  3.8002 -0.4722 -1.4987
  183SLPC  H18T21029   5.104   2.913   9.388 -3.4320 -1.2370 -0.6011
  183SLPC   C3321030   4.872   3.712   9.815  0.8012  0.7694 -0.2658
  183SLPC   H3X21031   4.793   3.786   9.839  0.4087  0.8923 -1.8742
  183SLPC   H3Y21032   4.847   3.617   9.867 -0.7912  1.6952  0.7709
  183SLPC   C3421033   4.882   3.707   9.665 -0.4143 -0.6823  0.4711
  183SLPC   H4X21034   4.892   3.805   9.613 -2.0713 -0.4347  0.5566
  183SLPC   H4Y21035   4.780   3.675   9.634 -0.3370 -0.7164  0.2486
  183SLPC   C3521036   4.999   3.623   9.608  0.1147  0.4754 -0.2838
  183SLPC   H5X21037   5.008   3.522   9.652  1.9011  0.3529 -0.8619
  183SLPC   H5Y21038   5.096   3.670   9.636  0.2087 -0.5320  1.2110
  183SLPC   C3621039   5.003   3.599   9.454  0.3043 -0.0168 -0.8015
  183SLPC   H6X21040   4.996   3.699   9.406  1.2891  1.3421  1.6917
  183SLPC   H6Y21041   4.916   3.542   9.413  0.8375  0.2859 -2.4294
  183SLPC   C3721042   5.135   3.535   9.413 -0.5158  0.3045  0.3436
  183SLPC   H7X21043   5.139   3.432   9.455  0.5697 -0.2509 -1.0682
  183SLPC   H7Y21044   5.225   3.584   9.455  1.8606 -1.3996 -2.4278
  183SLPC   C3821045   5.155   3.514   9.264  0.2482  0.1170  0.5729
  183SLPC   H8X21046   5.115   3.597   9.201 -1.2877 -2.4395 -2.0926
  183SLPC   H8Y21047   5.095   3.423   9.240 -2.3020  1.7084  0.5661
  183SLPC   C3921048   5.302   3.473   9.227  0.6463  0.1757 -0.5153
  183SLPC   H9X21049   5.297   3.408   9.137  1.6567 -2.4104  1.1850
  183SLPC   H9Y21050   5.339   3.407   9.308 -0.6626  1.1858  0.9743
  183SLPC  C31021051   5.396   3.588   9.236 -0.2650 -0.3994  0.1165
  183SLPC  H10X21052   5.502   3.555   9.242 -0.2007  0.0205  1.9221
  183SLPC  H10Y21053   5.370   3.652   9.324  0.5216 -1.1238  0.8964
  183SLPC  C31121054   5.374   3.685   9.112 -0.3807  0.4755  0.1125
  183SLPC  H11X21055   5.268   3.719   9.106  0.1933  3.0170  2.5426
  183SLPC  H11Y21056   5.390   3.627   9.018 -2.4927  2.1672 -1.4048
  183SLPC  C31221057   5.473   3.798   9.112 -0.1136 -0.4099 -0.0344
  183SLPC  H12X21058   5.576   3.756   9.114  0.1315  0.1838  0.0003
  183SLPC  H12Y21059   5.470   3.850   9.210  2.5420 -0.0651 -0.0482
  183SLPC  C31321060   5.444   3.893   8.995  0.3421 -0.8249  0.0754
  183SLPC  H13X21061   5.477   3.998   9.013 -1.1782  0.1945 -2.5924
  183SLPC  H13Y21062   5.334   3.905   8.995  0.2411 -1.7127 -0.5398
  183SLPC  C31421063   5.484   3.842   8.863  0.4386  0.7114 -0.5799
  183SLPC  H14X21064   5.499   3.733   8.874 -0.5430  0.7353  1.4376
  183SLPC  H14Y21065   5.586   3.875   8.831 -0.2223  0.9407 -2.5405
  183SLPC  C31521066   5.385   3.864   8.744 -0.5811  0.5186 -0.4458
  183SLPC  H15X21067   5.371   3.974   8.739 -1.9190  0.4448  0.9983
  183SLPC  H15Y21068   5.291   3.811   8.770 -1.1882  2.1828  0.9350
  183SLPC  C31621069   5.449   3.808   8.615  0.1103  0.3358 -0.1446
  183SLPC  H16X21070   5.437   3.700   8.591 -1.2305  0.0206  1.7724
  183SLPC  H16Y21071   5.559   3.822   8.613 -0.0261  1.4257 -1.1599
  183SLPC  C31721072   5.379   3.870   8.486 -0.1675 -0.4976 -0.2639
  183SLPC  H17X21073   5.371   3.979   8.507 -0.2443 -0.4497 -0.5494
  183SLPC  H17Y21074   5.278   3.825   8.486  0.3521 -1.8614  1.9733
  183SLPC  C31821075   5.445   3.826   8.356 -0.9786 -0.4530  0.0458
  183SLPC  H18X21076   5.414   3.894   8.274 -0.2960 -0.0507  0.1148
  183SLPC  H18Y21077   5.414   3.721   8.338 -0.1029 -0.6565 -0.3262
  183SLPC  H18Z21078   5.555   3.843   8.358 -1.1394  0.7005  1.3475
  184SLPC     N21079   5.644   0.654  10.861  0.0815 -0.3709  0.6977
  184SLPC   C1321080   5.783   0.704  10.878  0.0387  0.2143 -0.1057
  184SLPC  H13A21081   5.854   0.624  10.865 -0.3595  0.0301 -1.1901
  184SLPC  H13B21082   5.822   0.780  10.811  1.1750 -0.9413 -0.7834
  184SLPC  H13C21083   5.787   0.744  10.979 -0.9359 -1.1376  0.4876
  184SLPC   C1421084   5.548   0.768  10.887 -0.0283 -0.0183  0.3687
  184SLPC  H14A21085   5.559   0.840  10.807  0.1415 -0.6747 -0.2046
  184SLPC  H14B21086   5.447   0.733  10.882 -0.2221  0.4937  0.6432
  184SLPC  H14C21087   5.575   0.818  10.979  1.8367 -0.3012  0.0286
  184SLPC   C1521088   5.623   0.559  10.975 -0.2119  0.6730  0.2599
  184SLPC  H15A21089   5.696   0.480  10.972  0.2428  0.9038  2.6297
  184SLPC  H15B21090   5.652   0.606  11.069  0.6631 -2.1459  1.4994
  184SLPC  H15C21091   5.523   0.520  10.988  0.8954 -2.1666  0.8926
  184SLPC   C1221092   5.611   0.590  10.725  0.7123  0.8618  0.5662
  184SLPC  H12A21093   5.608   0.666  10.648 -0.8505  1.0786  0.8166
  184SLPC  H12B21094   5.510   0.554  10.730  0.5562  0.7337 -2.0442
  184SLPC   C1121095   5.698   0.464  10.685  0.0539  0.0268 -0.1106
  184SLPC  H11A21096   5.801   0.504  10.671  0.7478 -1.6045  0.0795
  184SLPC  H11B21097   5.675   0.437  10.579  0.3587  1.1455 -0.4771
  184SLPC     P21098   5.789   0.245  10.782  0.1697  0.0090  0.0354
  184SLPC   O1321099   5.919   0.310  10.799  0.1675  0.3425 -0.2232
  184SLPC   O1421100   5.749   0.156  10.891  0.1085 -0.4275  0.1993
  184SLPC   O1221101   5.682   0.357  10.776  0.4520 -0.7963  0.2257
  184SLPC   O1121102   5.778   0.165  10.646 -0.7548  0.6774  1.0684
  184SLPC    C121103   5.637   0.133  10.608 -0.0869 -0.3304 -0.2366
  184SLPC    HA21104   5.562   0.129  10.689 -0.1213 -0.8248 -0.2893
  184SLPC    HB21105   5.606   0.219  10.544 -0.7804 -0.0202  0.5025
  184SLPC    C221106   5.636   0.011  10.512  0.0918 -0.3625 -0.4645
  184SLPC    HS21107   5.671  -0.073  10.575  0.6283 -0.2312 -0.5839
  184SLPC   O2121108   5.726   0.041  10.408  0.3506  0.1669 -0.0471
  184SLPC   C2121109   5.746  -0.064  10.328  0.0899 -0.0767  0.5738
  184SLPC   O2221110   5.698  -0.173  10.345  0.4231  0.1069  0.4778
  184SLPC   C2221111   5.844  -0.018  10.216 -0.3009  0.3747 -0.2798
  184SLPC   H2R21112   5.804   0.080  10.182  0.0675  0.0052 -1.8311
  184SLPC   H2S21113   5.947  -0.013  10.258 -0.7410 -0.2330  0.9345
  184SLPC    C321114   5.497  -0.012  10.455  0.2220  0.1276  0.3169
  184SLPC    HX21115   5.432   0.003  10.544  1.0462  1.6242  0.7099
  184SLPC    HY21116   5.484  -0.118  10.425  0.0537  0.0768  0.5606
  184SLPC   O3121117   5.471   0.082  10.349  0.2476 -0.5736 -0.3458
  184SLPC   C3121118   5.334   0.088  10.321 -0.1590  0.5957 -0.6634
  184SLPC   O3221119   5.258   0.004  10.366  0.2689 -0.4648  0.2467
  184SLPC   C3221120   5.311   0.204  10.230  0.2655 -0.0089  0.6746
  184SLPC   H2X21121   5.410   0.255  10.228  1.5984 -2.4075  0.5800
  184SLPC   H2Y21122   5.242   0.272  10.284 -0.6676  1.3069 -2.0023
  184SLPC   C2321123   5.836  -0.121  10.098  0.2720 -1.2297  0.1444
  184SLPC   H3R21124   5.728  -0.138  10.079 -0.9169  2.8904  2.0885
  184SLPC   H3S21125   5.899  -0.208  10.125  0.7479 -1.9480 -2.8975
  184SLPC   C2421126   5.906  -0.057   9.979  0.6025 -0.5401 -0.6149
  184SLPC   H4R21127   6.015  -0.042   9.995  0.5544  0.7554 -1.3595
  184SLPC   H4S21128   5.854   0.041   9.979  0.5755 -0.5539 -0.2536
  184SLPC   C2521129   5.874  -0.144   9.852 -0.1848  0.5889  0.3221
  184SLPC   H5R21130   5.766  -0.157   9.831  0.6302 -3.5938 -2.2125
  184SLPC   H5S21131   5.916  -0.246   9.864 -1.5313 -0.4217 -2.7682
  184SLPC   C2621132   5.950  -0.086   9.733  0.8161 -0.5580  0.1281
  184SLPC   H6R21133   6.055  -0.068   9.765  1.0517 -0.4485 -0.6800
  184SLPC   H6S21134   5.915   0.017   9.708 -0.9831 -1.4648 -1.2743
  184SLPC   C2721135   5.942  -0.177   9.614 -0.0995  0.2381 -0.1548
  184SLPC   H7R21136   5.835  -0.198   9.594 -0.2764  0.7373  0.2375
  184SLPC   H7S21137   5.989  -0.272   9.647  1.8426  0.0711 -3.0843
  184SLPC   C2821138   6.014  -0.134   9.490 -0.1958  0.0213  0.6409
  184SLPC   H8R21139   6.118  -0.170   9.507 -0.8205 -2.0385  0.3403
  184SLPC   H8S21140   6.008  -0.024   9.473 -2.8877  0.1815  2.1497
  184SLPC   C2921141   5.966  -0.218   9.371 -0.3484 -0.1758  0.7588
  184SLPC   H9R21142   5.895  -0.300   9.390  1.4409 -1.7626  0.8312
  184SLPC  C21021143   5.981  -0.186   9.243  0.0806  0.3336  0.1192
  184SLPC  H10R21144   5.928  -0.255   9.176  0.5059  0.7347 -0.6409
  184SLPC  C21121145   6.045  -0.063   9.180  0.1033 -0.1053 -0.1090
  184SLPC  H11R21146   6.151  -0.065   9.214  0.5297  1.0304 -1.2714
  184SLPC  H11S21147   5.986   0.027   9.207  0.7153  0.8322 -1.7165
  184SLPC  C21221148   6.043  -0.083   9.032  0.8061 -0.0423 -0.2520
  184SLPC  H12R21149   6.020  -0.185   8.999 -0.4342  0.4257 -0.9157
  184SLPC  C21321150   6.059   0.010   8.942 -0.3211 -0.2389 -0.1237
  184SLPC  H13R21151   6.049  -0.017   8.836  1.4356 -0.6677 -0.2119
  184SLPC  C21421152   6.089   0.153   8.985 -0.2525  0.3947  0.1874
  184SLPC  H14R21153   6.107   0.156   9.094 -0.3351 -0.6636  0.2414
  184SLPC  H14S21154   6.002   0.215   8.955 -0.9841 -1.1665 -1.1015
  184SLPC  C21521155   6.224   0.178   8.907 -0.5975  0.1926 -0.3536
  184SLPC  H15R21156   6.204   0.167   8.798  0.2376  0.5911 -0.5538
  184SLPC  H15S21157   6.298   0.097   8.926 -1.3445 -0.4850 -0.2572
  184SLPC  C21621158   6.285   0.315   8.925 -0.0180 -1.3644  0.1034
  184SLPC  H16R21159   6.378   0.323   8.867  0.9042  0.2758  1.6877
  184SLPC  H16S21160   6.321   0.343   9.027  1.3783  1.1719 -0.9872
  184SLPC  C21721161   6.195   0.426   8.865 -0.0545 -0.4981  0.2981
  184SLPC  H17R21162   6.251   0.516   8.896  0.8936 -1.8070  2.5645
  184SLPC  H17S21163   6.096   0.424   8.916 -0.7807 -0.6575 -1.0466
  184SLPC  C21821164   6.177   0.426   8.713 -0.2099 -0.0959  0.5282
  184SLPC  H18R21165   6.275   0.427   8.662 -0.8404  1.2863 -0.7468
  184SLPC  H18S21166   6.128   0.520   8.679  1.1011  0.1960 -0.6571
  184SLPC  H18T21167   6.126   0.336   8.673  1.1026  0.0359 -1.6314
  184SLPC   C3321168   5.260   0.158  10.094  0.1443  0.0140 -0.3637
  184SLPC   H3X21169   5.220   0.250  10.046  0.0163  0.6155  0.8624
  184SLPC   H3Y21170   5.170   0.093  10.099 -0.4683  0.6518 -2.3029
  184SLPC   C3421171   5.367   0.110   9.989  0.0616 -0.1532 -0.4162
  184SLPC   H4X21172   5.398   0.010  10.027 -3.9412 -1.3621  0.1212
  184SLPC   H4Y21173   5.445   0.189   9.988 -1.1407  1.0661 -1.2377
  184SLPC   C3521174   5.305   0.093   9.849  0.5202  0.7585 -0.2282
  184SLPC   H5X21175   5.194   0.091   9.843  0.6096 -1.0424 -2.7335
  184SLPC   H5Y21176   5.335  -0.002   9.800 -0.3116  1.3253 -1.9334
  184SLPC   C3621177   5.339   0.206   9.757  0.1198  0.4281 -0.1498
  184SLPC   H6X21178   5.448   0.219   9.776 -0.0138  1.6688 -0.1449
  184SLPC   H6Y21179   5.297   0.301   9.797 -0.5764 -0.6713  1.8933
  184SLPC   C3721180   5.313   0.178   9.612  0.0489  0.0375  0.4991
  184SLPC   H7X21181   5.206   0.188   9.585  0.0323 -0.2777  0.4426
  184SLPC   H7Y21182   5.331   0.071   9.588 -0.3487  0.1916 -0.5677
  184SLPC   C3821183   5.390   0.264   9.512 -0.2882  0.2979 -0.5485
  184SLPC   H8X21184   5.497   0.234   9.522 -0.8320 -0.8936  3.8545
  184SLPC   H8Y21185   5.393   0.371   9.540 -1.6602 -0.1391  1.5088
  184SLPC   C3921186   5.341   0.256   9.368 -0.0720  0.3167 -0.1030
  184SLPC   H9X21187   5.233   0.281   9.356 -0.6314 -2.1538 -0.8167
  184SLPC   H9Y21188   5.356   0.150   9.339 -0.4001  0.1740  0.2382
  184SLPC  C31021189   5.414   0.360   9.285  0.0492 -0.4625  0.3221
  184SLPC  H10X21190   5.523   0.349   9.305  0.3484 -2.9151 -2.0876
  184SLPC  H10Y21191   5.386   0.463   9.318 -2.8583 -0.0223 -2.9187
  184SLPC  C31121192   5.403   0.351   9.135  0.0901  0.2534 -0.4665
  184SLPC  H11X21193   5.466   0.438   9.107  1.0499 -0.7073 -1.4167
  184SLPC  H11Y21194   5.299   0.370   9.100  0.3152 -1.1503 -2.0266
  184SLPC  C31221195   5.458   0.226   9.066 -1.1611  0.8852 -0.6500
  184SLPC  H12X21196   5.388   0.141   9.082  1.2857 -1.1869 -0.2244
  184SLPC  H12Y21197   5.555   0.193   9.110 -1.7544  1.0221  0.8158
  184SLPC  C31321198   5.465   0.246   8.914 -0.5727  0.4751  0.2944
  184SLPC  H13X21199   5.371   0.297   8.883 -0.3836  0.5083 -0.2405
  184SLPC  H13Y21200   5.469   0.146   8.867 -0.2693 -0.0232  1.3491
  184SLPC  C31421201   5.586   0.311   8.850 -1.0340  0.3022  0.2926
  184SLPC  H14X21202   5.672   0.249   8.883 -0.8667  1.5991  2.5591
  184SLPC  H14Y21203   5.624   0.408   8.889  0.2056 -0.0187 -0.0802
  184SLPC  C31521204   5.577   0.320   8.693 -0.1187 -0.4776 -0.4289
  184SLPC  H15X21205   5.474   0.345   8.661 -1.2144 -1.2933  2.1764
  184SLPC  H15Y21206   5.590   0.213   8.663 -1.2125 -2.4852  5.0745
  184SLPC  C31621207   5.682   0.398   8.618  0.0974 -0.1173  0.0657
  184SLPC  H16X21208   5.776   0.396   8.679 -1.3071 -1.3858  2.3443
  184SLPC  H16Y21209   5.650   0.502   8.597  0.7019 -0.2281 -1.5481
  184SLPC  C31721210   5.707   0.354   8.471 -0.7217  0.3936  0.1675
  184SLPC  H17X21211   5.615   0.357   8.409  1.0619 -2.1832 -2.8368
  184SLPC  H17Y21212   5.753   0.254   8.461  1.5852  1.4564 -0.4805
  184SLPC  C31821213   5.814   0.443   8.406  0.6712  0.3543  0.1449
  184SLPC  H18X21214   5.830   0.419   8.299  2.2348  4.0381 -0.6185
  184SLPC  H18Y21215   5.911   0.426   8.458 -1.0430 -2.3940  2.8155
  184SLPC  H18Z21216   5.769   0.545   8.397 -0.2640 -0.1502 -1.1730
  185SLPC     N21217   5.672   2.697   6.306 -0.0173 -0.2591  0.2944
  185SLPC   C1321218   5.736   2.573   6.359  0.4892  0.0655 -0.0174
  185SLPC  H13A21219   5.733   2.497   6.281  3.3918 -1.3106  1.0622
  185SLPC  H13B21220   5.839   2.596   6.382  0.2178  0.3589  0.9281
  185SLPC  H13C21221   5.686   2.519   6.438  1.3213 -1.4153 -0.4675
  185SLPC   C1421222   5.552   2.653   6.232  0.2863 -0.2597 -0.0302
  185SLPC  H14A21223   5.582   2.588   6.151  0.9170  1.4666 -1.2430
  185SLPC  H14B21224   5.480   2.605   6.296 -1.6770  2.1683 -0.2889
  185SLPC  H14C21225   5.505   2.733   6.178 -0.2802 -0.8018 -0.3510
  185SLPC   C1521226   5.753   2.759   6.191  1.1169  1.4848  0.1879
  185SLPC  H15A21227   5.772   2.688   6.111  1.2894  3.2044 -1.3630
  185SLPC  H15B21228   5.705   2.844   6.145  1.7018  0.7658 -1.8818
  185SLPC  H15C21229   5.848   2.795   6.226  2.0347  0.2741 -0.9492
  185SLPC   C1221230   5.647   2.802   6.413  0.6078 -0.2743 -0.1257
  185SLPC  H12A21231   5.592   2.885   6.371 -1.3243  0.1322  2.9306
  185SLPC  H12B21232   5.742   2.836   6.452  1.1012 -0.0260 -1.4784
  185SLPC   C1121233   5.572   2.753   6.545  0.0730  0.2434  0.5650
  185SLPC  H11A21234   5.554   2.840   6.612  0.6211  1.1813 -0.4724
  185SLPC  H11B21235   5.634   2.682   6.604 -0.7945 -0.3083  0.8288
  185SLPC     P21236   5.415   2.555   6.570 -0.2017 -0.1455 -0.0193
  185SLPC   O1321237   5.273   2.521   6.548  0.5921 -0.2548  0.3230
  185SLPC   O1421238   5.510   2.449   6.523  0.8031  0.2054  0.2890
  185SLPC   O1221239   5.442   2.695   6.515 -0.1587 -0.0784  0.5392
  185SLPC   O1121240   5.439   2.580   6.723 -0.5831 -0.0891 -0.3052
  185SLPC    C121241   5.374   2.490   6.811 -0.3067  0.1227  0.2350
  185SLPC    HA21242   5.270   2.468   6.780 -0.4825  0.4542  0.5772
  185SLPC    HB21243   5.430   2.395   6.816 -1.1222 -0.3773  0.0707
  185SLPC    C221244   5.378   2.547   6.954  0.2015  0.5522 -1.0529
  185SLPC    HS21245   5.485   2.546   6.985  0.2621 -0.7808 -1.2230
  185SLPC   O2121246   5.306   2.463   7.044 -0.2492 -0.1374  0.2614
  185SLPC   C2121247   5.359   2.351   7.074 -0.8441 -0.3196  0.2449
  185SLPC   O2221248   5.467   2.307   7.034 -0.2978 -0.5882  0.5931
  185SLPC   C2221249   5.253   2.284   7.165 -0.6651 -0.5060 -0.1559
  185SLPC   H2R21250   5.149   2.292   7.126 -1.4874  3.0845  2.2925
  185SLPC   H2S21251   5.282   2.176   7.166 -0.4192 -0.4482  1.7183
  185SLPC    C321252   5.325   2.689   6.962 -0.4971 -0.5985 -0.7287
  185SLPC    HX21253   5.221   2.662   6.932 -1.3153  0.0511  1.3508
  185SLPC    HY21254   5.363   2.749   6.878 -2.4505 -0.5145 -1.6116
  185SLPC   O3121255   5.320   2.755   7.092  0.0203  0.1620 -0.1203
  185SLPC   C3121256   5.421   2.759   7.171  0.6084 -0.9495  0.0752
  185SLPC   O3221257   5.537   2.729   7.142  0.0181  0.1306  0.4192
  185SLPC   C3221258   5.376   2.812   7.302  0.2415  0.2605 -0.0883
  185SLPC   H2X21259   5.279   2.763   7.324  0.9473 -1.0877  0.1110
  185SLPC   H2Y21260   5.367   2.923   7.310 -0.6586  0.1134  1.2725
  185SLPC   C2321261   5.261   2.330   7.314  0.3118  0.0248 -0.7272
  185SLPC   H3R21262   5.319   2.425   7.318  2.0128 -0.9781 -0.4680
  185SLPC   H3S21263   5.318   2.266   7.385  1.3784  0.1585 -1.4406
  185SLPC   C2421264   5.121   2.357   7.370 -0.1429 -0.4915 -0.3306
  185SLPC   H4R21265   5.072   2.259   7.355 -0.1662 -0.5411  0.0699
  185SLPC   H4S21266   5.069   2.424   7.298  1.1253  2.0119  0.9473
  185SLPC   C2521267   5.113   2.412   7.515 -0.2340  0.0568  0.9437
  185SLPC   H5R21268   5.009   2.426   7.553  0.0081  1.5637  1.1065
  185SLPC   H5S21269   5.159   2.513   7.516  0.6313 -0.3236  0.6047
  185SLPC   C2621270   5.175   2.319   7.624  0.3251  0.0739  0.4915
  185SLPC   H6R21271   5.274   2.296   7.581 -0.9630 -1.8420 -1.7286
  185SLPC   H6S21272   5.126   2.219   7.630  0.3880  0.1190  2.6746
  185SLPC   C2721273   5.179   2.387   7.764 -0.5098  0.3286  0.4520
  185SLPC   H7R21274   5.074   2.384   7.801 -0.6429  0.4716  0.0890
  185SLPC   H7S21275   5.210   2.491   7.744 -2.3070  0.4015 -2.5220
  185SLPC   C2821276   5.264   2.307   7.867  0.9580 -0.2152  0.0387
  185SLPC   H8R21277   5.362   2.309   7.813  0.8593 -1.8405 -0.2519
  185SLPC   H8S21278   5.223   2.205   7.859 -1.3846  0.7075 -0.7212
  185SLPC   C2921279   5.258   2.373   8.003 -0.1928 -0.5531  0.5263
  185SLPC   H9R21280   5.289   2.478   7.998 -3.3207  0.5605  1.9879
  185SLPC  C21021281   5.225   2.312   8.118  0.2261 -0.5246  1.0366
  185SLPC  H10R21282   5.207   2.369   8.210  1.5509 -2.6977  2.7343
  185SLPC  C21121283   5.182   2.163   8.129 -0.4885  0.5782  0.2857
  185SLPC  H11R21284   5.258   2.124   8.200 -0.5328  0.3366  0.1985
  185SLPC  H11S21285   5.179   2.102   8.037 -1.8684 -0.0309  0.7110
  185SLPC  C21221286   5.045   2.157   8.184  0.7031 -0.2579 -0.4074
  185SLPC  H12R21287   4.972   2.205   8.118 -0.5049  1.0376  1.7699
  185SLPC  C21321288   5.011   2.109   8.308  0.0857  0.1114  0.1909
  185SLPC  H13R21289   4.905   2.090   8.331  0.5859 -0.8638  1.9023
  185SLPC  C21421290   5.104   2.043   8.407 -0.2621 -0.4805 -0.6318
  185SLPC  H14R21291   5.210   2.031   8.376  0.1445  1.1201  0.0319
  185SLPC  H14S21292   5.063   1.946   8.440  0.5371 -0.2559  1.1742
  185SLPC  C21521293   5.130   2.141   8.532  0.1826  0.2396 -0.1401
  185SLPC  H15R21294   5.160   2.230   8.473 -0.1467 -0.2771 -1.1074
  185SLPC  H15S21295   5.217   2.100   8.588 -0.5329  1.6626  2.1642
  185SLPC  C21621296   5.005   2.163   8.617  0.5252 -0.2421 -1.0097
  185SLPC  H16R21297   4.972   2.063   8.653  0.3700 -0.3469 -1.4264
  185SLPC  H16S21298   4.930   2.208   8.547  3.3151  2.1876 -2.6456
  185SLPC  C21721299   5.020   2.257   8.738 -0.7071  0.1584 -0.0513
  185SLPC  H17R21300   5.129   2.277   8.751 -0.3439 -1.6542  0.0038
  185SLPC  H17S21301   4.982   2.217   8.835 -2.4746 -0.5543 -1.0055
  185SLPC  C21821302   4.950   2.386   8.700  0.3124  0.8842 -0.2269
  185SLPC  H18R21303   4.849   2.354   8.667  0.2512  0.7053  0.1359
  185SLPC  H18S21304   4.998   2.430   8.610  1.6024  1.5146  0.7359
  185SLPC  H18T21305   4.932   2.454   8.786 -0.0081 -1.0175  1.2870
  185SLPC   C3321306   5.457   2.762   7.421  0.4537  0.4184  0.2553
  185SLPC   H3X21307   5.565   2.789   7.414 -0.0955  2.3708 -2.1404
  185SLPC   H3Y21308   5.463   2.651   7.426 -1.6471 -0.0260 -3.4778
  185SLPC   C3421309   5.402   2.810   7.558  0.0351 -0.5537 -0.1598
  185SLPC   H4X21310   5.293   2.788   7.555 -0.6818  2.5759 -1.1730
  185SLPC   H4Y21311   5.408   2.921   7.559 -1.6040 -0.4420  0.3044
  185SLPC   C3521312   5.478   2.757   7.681  0.2962  0.4122  0.8017
  185SLPC   H5X21313   5.585   2.787   7.674  0.2152  1.1448  2.2714
  185SLPC   H5Y21314   5.467   2.647   7.677 -1.2763  0.5091  1.8440
  185SLPC   C3621315   5.414   2.801   7.815 -0.3258 -0.2350  0.5144
  185SLPC   H6X21316   5.308   2.770   7.802 -0.6017  1.6978 -3.6078
  185SLPC   H6Y21317   5.418   2.912   7.812 -1.1743 -0.1895  0.9253
  185SLPC   C3721318   5.477   2.758   7.947  0.4651  0.2842 -0.1209
  185SLPC   H7X21319   5.486   2.649   7.924 -1.0803  0.0870  0.1370
  185SLPC   H7Y21320   5.405   2.770   8.030 -1.0492 -0.5932 -1.2625
  185SLPC   C3821321   5.618   2.809   7.982 -0.1377  0.4178 -0.1022
  185SLPC   H8X21322   5.689   2.798   7.898 -0.1023  2.4706 -0.3862
  185SLPC   H8Y21323   5.659   2.744   8.063 -2.2265  0.1392  0.8088
  185SLPC   C3921324   5.637   2.948   8.039  0.8720  0.1199  0.3881
  185SLPC   H9X21325   5.573   2.962   8.129  0.7786  0.6117  0.2474
  185SLPC   H9Y21326   5.600   3.015   7.958  0.7722  0.6875  0.8924
  185SLPC  C31021327   5.778   2.992   8.064  0.2189 -0.7387  0.0075
  185SLPC  H10X21328   5.849   2.940   7.996  1.9135  0.5066  0.7430
  185SLPC  H10Y21329   5.816   2.961   8.163  1.7408  2.2245  0.4700
  185SLPC  C31121330   5.798   3.140   8.029 -0.3126 -0.3314  0.0156
  185SLPC  H11X21331   5.772   3.170   7.925  1.1203 -0.2057 -0.3262
  185SLPC  H11Y21332   5.904   3.169   8.044  0.3292 -0.2207 -3.7433
  185SLPC  C31221333   5.711   3.218   8.120 -0.0867 -0.5127 -0.4444
  185SLPC  H12X21334   5.603   3.191   8.124 -0.0105 -0.7159  2.6772
  185SLPC  H12Y21335   5.723   3.326   8.096 -0.9667 -0.2710  0.1615
  185SLPC  C31321336   5.762   3.206   8.263  0.6546 -0.2459  0.3694
  185SLPC  H13X21337   5.873   3.202   8.259  0.7929  1.7559  1.1056
  185SLPC  H13Y21338   5.741   3.104   8.302 -0.1498 -0.3984 -0.4158
  185SLPC  C31421339   5.708   3.324   8.359 -0.0308  0.3408 -0.0154
  185SLPC  H14X21340   5.603   3.345   8.328 -0.7263  0.5655  2.3368
  185SLPC  H14Y21341   5.753   3.423   8.339 -1.9751  1.7457  2.0572
  185SLPC  C31521342   5.724   3.273   8.504  0.3553 -0.4122  0.2628
  185SLPC  H15X21343   5.835   3.266   8.513  0.7844  1.8344 -2.1734
  185SLPC  H15Y21344   5.672   3.175   8.517  0.8187 -0.9032 -1.3982
  185SLPC  C31621345   5.678   3.374   8.613 -1.2209  0.8202  0.7971
  185SLPC  H16X21346   5.576   3.407   8.587 -0.8179  1.6783  0.2418
  185SLPC  H16Y21347   5.747   3.461   8.602  0.0726 -0.4193 -1.6502
  185SLPC  C31721348   5.682   3.319   8.754  0.4966  0.0321 -0.4300
  185SLPC  H17X21349   5.786   3.285   8.773  0.6792  0.5635 -0.4484
  185SLPC  H17Y21350   5.613   3.233   8.765  0.5109  0.2234  1.4297
  185SLPC  C31821351   5.657   3.419   8.865  0.0372 -0.6946 -0.5366
  185SLPC  H18X21352   5.717   3.507   8.834  0.0915 -0.8197 -0.7926
  185SLPC  H18Y21353   5.686   3.383   8.965 -1.5343  1.6590  0.8802
  185SLPC  H18Z21354   5.552   3.456   8.874  0.9115  1.6558  0.9504
  186SLPC     N21355   4.940   5.385   5.970  0.1303  0.1985  0.2950
  186SLPC   C1321356   4.870   5.424   5.848  0.5135  0.9904  0.4063
  186SLPC  H13A21357   4.795   5.357   5.810 -0.0004  1.1598  1.1120
  186SLPC  H13B21358   4.829   5.523   5.866 -1.2853  0.0088  2.0135
  186SLPC  H13C21359   4.945   5.440   5.772 -1.0516 -1.1288 -1.7190
  186SLPC   C1421360   5.050   5.479   6.013  0.1457 -0.6765  0.0789
  186SLPC  H14A21361   5.117   5.484   5.928 -1.5792  0.9624 -1.3065
  186SLPC  H14B21362   5.024   5.579   6.046  3.0912 -0.7284  3.0179
  186SLPC  H14C21363   5.101   5.425   6.090 -1.1766 -1.1690  0.6392
  186SLPC   C1521364   5.013   5.256   5.940  0.2524  0.1846 -0.1819
  186SLPC  H15A21365   5.082   5.261   5.857 -0.4764 -1.0338 -0.8887
  186SLPC  H15B21366   5.066   5.223   6.028  0.5292  1.2402  0.0618
  186SLPC  H15C21367   4.946   5.174   5.920 -1.0318  0.9966  0.6540
  186SLPC   C1221368   4.838   5.362   6.085 -0.1529 -0.6861  0.0281
  186SLPC  H12A21369   4.892   5.331   6.173  1.7645 -0.9656 -1.1919
  186SLPC  H12B21370   4.770   5.285   6.052  0.7172 -1.1989 -0.6143
  186SLPC   C1121371   4.747   5.479   6.142  0.6477  0.2877  0.1457
  186SLPC  H11A21372   4.676   5.422   6.206  1.7213 -1.9552 -0.5268
  186SLPC  H11B21373   4.692   5.521   6.055 -0.0393 -0.5041  0.1797
  186SLPC     P21374   4.892   5.553   6.338 -0.3615 -0.1124 -0.1348
  186SLPC   O1321375   5.040   5.549   6.320  0.3196  0.3553  0.1113
  186SLPC   O1421376   4.844   5.649   6.450 -0.2022  0.7878  0.2549
  186SLPC   O1221377   4.831   5.586   6.200  0.9231 -0.5629  0.2435
  186SLPC   O1121378   4.856   5.412   6.380  0.0750  0.3867  0.3591
  186SLPC    C121379   4.725   5.376   6.442 -0.2586 -0.1871 -0.2028
  186SLPC    HA21380   4.642   5.444   6.414 -0.6597 -0.8514 -0.6615
  186SLPC    HB21381   4.687   5.275   6.415 -0.4508 -1.0144  2.8134
  186SLPC    C221382   4.746   5.384   6.597  0.1307 -0.5413  0.2066
  186SLPC    HS21383   4.809   5.474   6.612 -0.4582 -0.1868  0.6017
  186SLPC   O2121384   4.811   5.265   6.647  0.1465 -0.4422  0.2918
  186SLPC   C2121385   4.872   5.288   6.769  0.0728  0.6611 -0.1266
  186SLPC   O2221386   4.888   5.397   6.819 -0.1005  0.3606  0.0295
  186SLPC   C2221387   4.923   5.154   6.821 -0.0317  0.2942  0.6313
  186SLPC   H2R21388   4.836   5.086   6.835  0.1882  0.0683  0.9152
  186SLPC   H2S21389   4.983   5.120   6.734 -1.1170  0.2896 -0.1365
  186SLPC    C321390   4.599   5.400   6.662 -0.2093  0.1115  0.1347
  186SLPC    HX21391   4.550   5.310   6.619 -0.6344 -0.3768  1.5653
  186SLPC    HY21392   4.545   5.490   6.626 -0.5781  0.3025  1.1176
  186SLPC   O3121393   4.582   5.389   6.803  0.4446  0.3481  0.2759
  186SLPC   C3121394   4.612   5.504   6.864  0.8142 -0.3587 -0.4063
  186SLPC   O3221395   4.638   5.610   6.806 -0.3086  0.0658 -0.1625
  186SLPC   C3221396   4.584   5.484   7.011  0.0087 -0.0959 -0.4174
  186SLPC   H2X21397   4.633   5.393   7.051 -0.9388 -0.5197 -0.1988
  186SLPC   H2Y21398   4.474   5.479   7.022  0.0023 -1.1105 -0.8761
  186SLPC   C2321399   4.995   5.174   6.952  0.0368  0.4080  0.4389
  186SLPC   H3R21400   4.928   5.192   7.039 -0.8596 -3.8266  0.8631
  186SLPC   H3S21401   5.068   5.257   6.945  0.3202  0.1644  0.4832
  186SLPC   C2421402   5.074   5.052   6.984 -0.6332 -0.1619 -0.4194
  186SLPC   H4R21403   5.142   5.031   6.899  2.2212  0.1896  1.6391
  186SLPC   H4S21404   5.010   4.966   7.012  0.2455  0.1606  2.8959
  186SLPC   C2521405   5.146   5.079   7.111 -0.3786  1.0922  0.4030
  186SLPC   H5R21406   5.073   5.090   7.194 -2.4551 -4.2405 -0.3099
  186SLPC   H5S21407   5.213   5.165   7.090  2.3164 -1.0390 -0.3322
  186SLPC   C2621408   5.232   4.953   7.163 -0.0738 -0.1670  0.6634
  186SLPC   H6R21409   5.298   4.923   7.078  1.5022  2.7784  0.6954
  186SLPC   H6S21410   5.155   4.877   7.185 -0.0418 -1.1528 -2.1635
  186SLPC   C2721411   5.328   4.999   7.278 -0.6078 -0.7409 -0.1147
  186SLPC   H7R21412   5.268   5.062   7.347  0.7905  0.0664  0.4049
  186SLPC   H7S21413   5.417   5.053   7.238 -1.7331  2.6847  1.6061
  186SLPC   C2821414   5.368   4.872   7.360  0.2345  0.0038  0.1201
  186SLPC   H8R21415   5.434   4.913   7.439 -0.2434  0.3599  0.3431
  186SLPC   H8S21416   5.416   4.798   7.293  1.9701  0.5452  0.7130
  186SLPC   C2921417   5.260   4.808   7.444 -0.0823 -0.1381 -0.0141
  186SLPC   H9R21418   5.170   4.782   7.387 -0.5487  2.0569 -0.3632
  186SLPC  C21021419   5.270   4.767   7.575  0.4082  0.2418 -0.0415
  186SLPC  H10R21420   5.181   4.745   7.635  0.8104  1.8346  1.2366
  186SLPC  C21121421   5.400   4.787   7.654 -0.4408 -0.1446 -0.9044
  186SLPC  H11R21422   5.484   4.782   7.581 -0.4520  0.4208 -0.9629
  186SLPC  H11S21423   5.415   4.701   7.722  0.5286  0.3830 -0.4267
  186SLPC  C21221424   5.423   4.915   7.731 -0.2268 -0.4667  0.4706
  186SLPC  H12R21425   5.373   5.001   7.686  0.0736  0.2895  1.5422
  186SLPC  C21321426   5.485   4.934   7.850 -0.4747  0.9523  0.3207
  186SLPC  H13R21427   5.479   5.037   7.889 -2.5315  0.3347  1.7836
  186SLPC  C21421428   5.560   4.832   7.935  0.4953 -0.2216 -0.4248
  186SLPC  H14R21429   5.667   4.859   7.951  0.2516  0.1884  0.5704
  186SLPC  H14S21430   5.570   4.728   7.898 -1.8001 -1.8695  3.0433
  186SLPC  C21521431   5.486   4.823   8.073 -0.1889  0.1124  0.3950
  186SLPC  H15R21432   5.377   4.805   8.059 -0.2974  0.3668  0.8848
  186SLPC  H15S21433   5.498   4.914   8.135  0.4255 -0.5596  1.2870
  186SLPC  C21621434   5.535   4.700   8.158  0.1109 -0.3257  0.0411
  186SLPC  H16R21435   5.637   4.716   8.200 -0.2726 -0.8033  1.2014
  186SLPC  H16S21436   5.527   4.608   8.097 -1.5675  0.2628 -0.6893
  186SLPC  C21721437   5.456   4.687   8.289 -0.4538 -0.6797  0.0008
  186SLPC  H17R21438   5.349   4.693   8.259 -0.4492 -0.4964  0.0170
  186SLPC  H17S21439   5.483   4.779   8.344 -0.0124  0.2336 -1.6525
  186SLPC  C21821440   5.468   4.553   8.365 -0.1878  0.7365 -0.3039
  186SLPC  H18R21441   5.491   4.478   8.287 -0.0604  1.5422 -1.0548
  186SLPC  H18S21442   5.371   4.519   8.407 -0.3640 -0.2344 -1.4750
  186SLPC  H18T21443   5.529   4.553   8.458 -1.6597 -0.1549  0.7046
  186SLPC   C3321444   4.625   5.611   7.089  0.7944  0.7742 -0.4228
  186SLPC   H3X21445   4.564   5.698   7.057 -0.8818  0.4398  1.6518
  186SLPC   H3Y21446   4.729   5.641   7.064  0.5293  2.4668  0.3086
  186SLPC   C3421447   4.604   5.581   7.235  0.7384  0.3465  0.2717
  186SLPC   H4X21448   4.512   5.520   7.227  0.9079  0.3195 -2.5834
  186SLPC   H4Y21449   4.569   5.662   7.303  0.5730  1.3815 -0.9877
  186SLPC   C3521450   4.714   5.504   7.300 -0.1684 -0.1412 -0.7755
  186SLPC   H5X21451   4.807   5.566   7.299 -0.2469  0.0276  0.4558
  186SLPC   H5Y21452   4.725   5.412   7.239 -0.4770 -0.8657  0.2255
  186SLPC   C3621453   4.688   5.459   7.450 -0.5451  0.0320  0.8673
  186SLPC   H6X21454   4.665   5.550   7.509 -4.4639 -1.0791  1.3276
  186SLPC   H6Y21455   4.779   5.407   7.488 -1.4867 -2.3908  0.0539
  186SLPC   C3721456   4.566   5.369   7.459 -0.3136 -0.4566  0.8454
  186SLPC   H7X21457   4.578   5.286   7.386 -2.6099  1.8175 -2.3772
  186SLPC   H7Y21458   4.479   5.419   7.413 -0.6592 -0.2434  1.7118
  186SLPC   C3821459   4.535   5.322   7.604 -0.5550 -0.3345 -0.1140
  186SLPC   H8X21460   4.447   5.256   7.586 -0.8443 -0.1129  0.4555
  186SLPC   H8Y21461   4.517   5.415   7.662  3.4511 -0.3432  1.4842
  186SLPC   C3921462   4.649   5.266   7.699 -0.1542  0.0040 -0.3928
  186SLPC   H9X21463   4.728   5.342   7.717 -0.3960  1.0615 -3.3082
  186SLPC   H9Y21464   4.702   5.186   7.643 -0.6890 -0.8877  0.3485
  186SLPC  C31021465   4.586   5.210   7.825  0.7315  0.5756  0.5551
  186SLPC  H10X21466   4.506   5.138   7.795  1.0214  1.2921 -2.2527
  186SLPC  H10Y21467   4.543   5.292   7.887 -2.7554  1.0329 -2.1608
  186SLPC  C31121468   4.699   5.142   7.912  0.4065 -0.6723 -0.4803
  186SLPC  H11X21469   4.798   5.186   7.934 -0.8652  1.1231  2.2304
  186SLPC  H11Y21470   4.719   5.041   7.870  1.8121 -0.4680 -0.3394
  186SLPC  C31221471   4.636   5.121   8.054 -0.5231 -0.1673 -0.1690
  186SLPC  H12X21472   4.525   5.112   8.047 -1.0045  1.7355  3.0975
  186SLPC  H12Y21473   4.664   5.213   8.108  2.7043 -1.2018  0.1153
  186SLPC  C31321474   4.694   5.002   8.125  0.0037  0.2786  0.8495
  186SLPC  H13X21475   4.803   5.013   8.142  0.4554 -2.4664  0.1574
  186SLPC  H13Y21476   4.685   4.910   8.064 -1.0720  0.5958  0.4911
  186SLPC  C31421477   4.624   4.977   8.264  0.0585  0.1033 -0.0868
  186SLPC  H14X21478   4.524   4.938   8.238  0.6622 -2.3231  0.9788
  186SLPC  H14Y21479   4.618   5.074   8.318 -0.4439 -0.2826  0.5526
  186SLPC  C31521480   4.695   4.873   8.345 -0.5236  0.3962  0.6063
  186SLPC  H15X21481   4.664   4.888   8.450 -1.5618  0.3664  0.3195
  186SLPC  H15Y21482   4.806   4.877   8.334 -0.3259 -0.2182  2.1669
  186SLPC  C31621483   4.637   4.737   8.314 -0.1454 -0.6028 -0.3409
  186SLPC  H16X21484   4.684   4.704   8.219  0.5133  0.1996 -0.3045
  186SLPC  H16Y21485   4.527   4.752   8.319  0.0189  0.2482  2.1904
  186SLPC  C31721486   4.663   4.632   8.421 -0.4264 -0.1709 -0.0630
  186SLPC  H17X21487   4.596   4.544   8.405 -0.6793  0.1749 -0.9429
  186SLPC  H17Y21488   4.639   4.679   8.518  0.1726  2.9737 -1.3318
  186SLPC  C31821489   4.800   4.567   8.429 -0.5058  0.5694 -0.0903
  186SLPC  H18X21490   4.867   4.640   8.480  1.1145 -0.4668 -0.6447
  186SLPC  H18Y21491   4.843   4.539   8.331  1.0189 -2.3342  1.2650
  186SLPC  H18Z21492   4.794   4.474   8.489 -0.7948 -0.5747 -1.8355
  187SLPC     N21493   6.226   2.410   6.161  0.5074 -0.1941  0.0525
  187SLPC   C1321494   6.096   2.496   6.143  0.3550  0.1019 -1.0441
  187SLPC  H13A21495   6.015   2.476   6.212 -0.1509  0.1133 -1.6286
  187SLPC  H13B21496   6.126   2.600   6.150 -1.1915  0.4689  0.8809
  187SLPC  H13C21497   6.058   2.483   6.043 -0.9980  2.2261 -0.8743
  187SLPC   C1421498   6.317   2.460   6.049 -0.1393  0.0857 -0.3875
  187SLPC  H14A21499   6.350   2.558   6.079 -1.7656  0.3480  0.6327
  187SLPC  H14B21500   6.414   2.411   6.049  0.0461  0.4442 -0.1714
  187SLPC  H14C21501   6.262   2.465   5.957  0.6038  0.6598 -0.8078
  187SLPC   C1521502   6.188   2.270   6.161  0.2344  0.2840 -1.0101
  187SLPC  H15A21503   6.277   2.209   6.168  0.5567  0.7201 -1.2986
  187SLPC  H15B21504   6.118   2.242   6.238 -0.4526 -0.5435 -1.9114
  187SLPC  H15C21505   6.141   2.252   6.065 -1.2106  4.2520 -1.2329
  187SLPC   C1221506   6.286   2.453   6.295  0.3701 -0.1079 -0.1693
  187SLPC  H12A21507   6.310   2.558   6.301 -1.9022  0.4558  0.1474
  187SLPC  H12B21508   6.376   2.393   6.301 -1.7370 -3.7352 -1.4347
  187SLPC   C1121509   6.203   2.424   6.417  0.4391 -0.4189  0.4823
  187SLPC  H11A21510   6.270   2.422   6.505  1.2201  0.7290 -0.0698
  187SLPC  H11B21511   6.167   2.320   6.404 -0.1795 -0.2557  0.8479
  187SLPC     P21512   6.110   2.669   6.482 -0.0623  0.0828 -0.0513
  187SLPC   O1321513   6.244   2.710   6.458 -0.0762 -0.3448  0.2892
  187SLPC   O1421514   6.000   2.755   6.429  0.0487  0.5903  0.1432
  187SLPC   O1221515   6.090   2.518   6.423 -0.7052 -0.4405  0.1710
  187SLPC   O1121516   6.092   2.640   6.638  0.1657 -0.3197  0.1135
  187SLPC    C121517   5.972   2.685   6.708  1.2510  0.1044 -0.2658
  187SLPC    HA21518   5.888   2.715   6.642 -1.0943 -0.9220  2.0539
  187SLPC    HB21519   5.937   2.599   6.769  0.5846  0.7535  0.2814
  187SLPC    C221520   6.003   2.797   6.815 -0.9141 -0.1184 -0.1787
  187SLPC    HS21521   6.082   2.865   6.776  0.3215 -2.5133 -2.1340
  187SLPC   O2121522   6.054   2.722   6.929 -0.1506  0.2045 -0.1493
  187SLPC   C2121523   6.181   2.707   6.926 -0.3282  0.0488  0.4334
  187SLPC   O2221524   6.259   2.750   6.842 -0.2644  0.7459 -0.1458
  187SLPC   C2221525   6.222   2.633   7.052  0.6555 -0.0678  0.1606
  187SLPC   H2R21526   6.134   2.569   7.076  1.1898  0.2574  3.4434
  187SLPC   H2S21527   6.311   2.570   7.033  1.5030  0.8899  0.8653
  187SLPC    C321528   5.878   2.883   6.849  0.2181  0.0207  0.3873
  187SLPC    HX21529   5.803   2.804   6.874 -0.0987 -0.6649 -2.3951
  187SLPC    HY21530   5.849   2.951   6.767 -0.3364  1.4045  1.6832
  187SLPC   O3121531   5.893   2.960   6.969  0.2431  0.9029  0.2288
  187SLPC   C3121532   5.981   3.062   6.962  0.1420 -0.6828 -0.3463
  187SLPC   O3221533   6.045   3.098   6.866 -0.1225 -0.5932  0.8799
  187SLPC   C3221534   6.004   3.129   7.094 -0.6253  0.2299 -0.2857
  187SLPC   H2X21535   5.953   3.074   7.176 -0.4201  0.7760  0.2157
  187SLPC   H2Y21536   5.965   3.232   7.104 -0.9179 -0.0180  1.5961
  187SLPC   C2321537   6.244   2.724   7.176  0.2970 -1.1065  0.6429
  187SLPC   H3R21538   6.160   2.796   7.187 -1.0247 -2.4145 -0.5187
  187SLPC   H3S21539   6.338   2.782   7.162  1.3553 -2.6175  1.2201
  187SLPC   C2421540   6.255   2.659   7.312 -0.4949  0.2108  0.2894
  187SLPC   H4R21541   6.326   2.574   7.299  1.9051  2.4102 -2.3984
  187SLPC   H4S21542   6.154   2.623   7.341  0.8137 -3.2774  1.0529
  187SLPC   C2521543   6.304   2.744   7.429 -0.0174 -0.2975 -0.4966
  187SLPC   H5R21544   6.220   2.815   7.443 -2.4582 -3.2903  1.3934
  187SLPC   H5S21545   6.396   2.804   7.409 -0.2579  0.5221  0.7308
  187SLPC   C2621546   6.323   2.670   7.561  0.3945 -0.6989 -0.0343
  187SLPC   H6R21547   6.401   2.593   7.542  1.9934  1.0177 -0.7865
  187SLPC   H6S21548   6.221   2.632   7.585  0.5930 -0.3054  1.5492
  187SLPC   C2721549   6.377   2.766   7.668  0.8618 -0.3884  0.0481
  187SLPC   H7R21550   6.319   2.860   7.678  0.3537 -0.1926 -3.5952
  187SLPC   H7S21551   6.470   2.807   7.626  0.1777 -0.1257 -1.2553
  187SLPC   C2821552   6.409   2.706   7.808 -0.0644  0.0337 -0.0444
  187SLPC   H8R21553   6.478   2.770   7.868 -0.0251 -1.4285  1.5345
  187SLPC   H8S21554   6.461   2.609   7.796  0.2814  0.0358  1.2779
  187SLPC   C2921555   6.286   2.671   7.896 -0.0749 -0.8337 -0.5490
  187SLPC   H9R21556   6.222   2.589   7.861 -2.3872  1.3691 -1.8495
  187SLPC  C21021557   6.235   2.742   8.003 -0.2146 -0.6331  0.7136
  187SLPC  H10R21558   6.132   2.730   8.041 -1.0041  1.5369 -0.5485
  187SLPC  C21121559   6.300   2.869   8.056  0.6966 -0.2196  0.0039
  187SLPC  H11R21560   6.214   2.936   8.082  0.3126  0.2701 -2.3437
  187SLPC  H11S21561   6.348   2.927   7.974 -0.0212  1.1053  0.4748
  187SLPC  C21221562   6.398   2.860   8.170  0.5623 -0.4836 -0.5115
  187SLPC  H12R21563   6.474   2.780   8.176  2.6801  1.4892  0.3523
  187SLPC  C21321564   6.400   2.942   8.279  0.6240  0.5696  0.2425
  187SLPC  H13R21565   6.471   2.925   8.361  1.5523  1.1264 -0.4203
  187SLPC  C21421566   6.311   3.062   8.301  0.6987  0.6525 -0.2497
  187SLPC  H14R21567   6.248   3.090   8.213 -2.6237 -3.1592  0.6052
  187SLPC  H14S21568   6.383   3.144   8.321  1.5442 -0.0294 -0.4648
  187SLPC  C21521569   6.224   3.045   8.429 -0.0050 -0.3350  0.1154
  187SLPC  H15R21570   6.285   3.020   8.518 -0.2668 -1.7525 -0.0817
  187SLPC  H15S21571   6.165   2.952   8.415 -3.0344  1.4781 -0.0402
  187SLPC  C21621572   6.123   3.155   8.458 -0.3798  0.5929  0.2300
  187SLPC  H16R21573   6.069   3.132   8.553  1.7390 -1.6252  1.0080
  187SLPC  H16S21574   6.043   3.145   8.382  1.3922 -0.2053 -1.6092
  187SLPC  C21721575   6.175   3.292   8.483  0.6766  0.7537 -0.3519
  187SLPC  H17R21576   6.212   3.346   8.394  0.3529  1.8321  0.1547
  187SLPC  H17S21577   6.268   3.271   8.542  0.5062 -2.6058 -1.1041
  187SLPC  C21821578   6.083   3.385   8.557 -0.5152  0.3394  0.1789
  187SLPC  H18R21579   6.109   3.492   8.539 -2.1355  0.9542  1.1527
  187SLPC  H18S21580   6.077   3.367   8.667 -0.4960  0.6132  0.2256
  187SLPC  H18T21581   5.980   3.394   8.515 -0.6603  2.3182  0.8179
  187SLPC   C3321582   6.152   3.118   7.139 -0.0081  0.6411  0.3947
  187SLPC   H3X21583   6.216   3.168   7.064 -0.6764  0.2512 -0.4460
  187SLPC   H3Y21584   6.196   3.016   7.149 -1.0843  0.2247  0.9877
  187SLPC   C3421585   6.163   3.182   7.282  0.8753 -0.1193  0.3154
  187SLPC   H4X21586   6.104   3.112   7.345 -2.4843  1.3509 -0.9026
  187SLPC   H4Y21587   6.105   3.277   7.280  2.1510  0.7260 -2.4618
  187SLPC   C3521588   6.306   3.221   7.330  0.1317 -0.0291  0.5908
  187SLPC   H5X21589   6.298   3.291   7.417  0.6538 -1.2737  1.6801
  187SLPC   H5Y21590   6.378   3.266   7.259  1.0503 -1.0938  0.8090
  187SLPC   C3621591   6.383   3.107   7.400  0.6507  0.1080  0.1016
  187SLPC   H6X21592   6.386   3.021   7.330 -0.3024  0.1344  0.0171
  187SLPC   H6Y21593   6.338   3.067   7.493  0.6644 -2.4358 -0.9190
  187SLPC   C3721594   6.530   3.136   7.447  0.3196  0.4000 -0.0980
  187SLPC   H7X21595   6.588   3.047   7.480  0.9247  0.8206 -0.0051
  187SLPC   H7Y21596   6.594   3.183   7.369 -0.9618  0.2478 -1.2791
  187SLPC   C3821597   6.543   3.230   7.567 -0.1358 -0.5866  0.3406
  187SLPC   H8X21598   6.438   3.264   7.581 -0.2125 -1.7504  3.5933
  187SLPC   H8Y21599   6.603   3.317   7.533 -1.1102 -0.2698 -0.6140
  187SLPC   C3921600   6.588   3.160   7.698 -0.1524  0.6450 -0.4263
  187SLPC   H9X21601   6.696   3.141   7.684 -0.2389  0.3682 -0.7029
  187SLPC   H9Y21602   6.523   3.070   7.703  0.3075  0.3105 -0.4667
  187SLPC  C31021603   6.581   3.247   7.820  0.0472  0.8191 -1.0818
  187SLPC  H10X21604   6.474   3.265   7.842  0.1706  0.5775 -0.2528
  187SLPC  H10Y21605   6.613   3.351   7.797 -0.4921  0.6227 -2.9178
  187SLPC  C31121606   6.642   3.177   7.944  1.0791 -0.1188 -0.0187
  187SLPC  H11X21607   6.743   3.139   7.918  0.9167 -1.6361  1.4246
  187SLPC  H11Y21608   6.582   3.085   7.963  0.5103 -0.0630 -1.4160
  187SLPC  C31221609   6.643   3.255   8.077 -0.5281 -0.2388  0.5203
  187SLPC  H12X21610   6.549   3.314   8.087 -0.1250  0.5661 -0.2530
  187SLPC  H12Y21611   6.716   3.339   8.079 -0.9658  0.1386  0.9010
  187SLPC  C31321612   6.668   3.168   8.204  0.0348 -0.0703  0.4789
  187SLPC  H13X21613   6.769   3.129   8.183  0.1889  0.7299 -0.3310
  187SLPC  H13Y21614   6.598   3.090   8.241  2.2405 -1.5746  1.6909
  187SLPC  C31421615   6.667   3.269   8.326 -0.1119  1.0720 -0.1729
  187SLPC  H14X21616   6.567   3.314   8.339  0.0327  0.7937  2.4274
  187SLPC  H14Y21617   6.744   3.349   8.321 -0.5938  1.8035  2.4861
  187SLPC  C31521618   6.694   3.193   8.453  0.0062 -0.0114  1.0776
  187SLPC  H15X21619   6.763   3.108   8.434 -0.7256 -0.6632  1.3233
  187SLPC  H15Y21620   6.605   3.147   8.499 -0.6637  1.2073  1.0476
  187SLPC  C31621621   6.732   3.287   8.570 -0.2197 -0.1131  0.2022
  187SLPC  H16X21622   6.663   3.374   8.576 -0.9195 -0.7118  0.8536
  187SLPC  H16Y21623   6.832   3.329   8.543 -0.5981  0.2372 -0.7067
  187SLPC  C31721624   6.738   3.212   8.701 -0.1054 -0.4210 -0.3657
  187SLPC  H17X21625   6.806   3.124   8.689  2.5192  1.3377  0.6972
  187SLPC  H17Y21626   6.639   3.164   8.711  0.5044 -1.9751 -1.4356
  187SLPC  C31821627   6.770   3.293   8.828  0.4942  0.6130 -0.7315
  187SLPC  H18X21628   6.776   3.222   8.913  0.6867  1.2812 -0.1803
  187SLPC  H18Y21629   6.687   3.364   8.845  0.3364  0.0316  1.2102
  187SLPC  H18Z21630   6.867   3.348   8.834  0.3541  0.7879  0.0451
  188SLPC     N21631   1.696   4.738   6.286  0.1122 -0.0809 -0.2196
  188SLPC   C1321632   1.778   4.824   6.373  0.3734  0.0863 -0.4749
  188SLPC  H13A21633   1.736   4.919   6.403  0.4477 -0.5465  1.8593
  188SLPC  H13B21634   1.796   4.779   6.470 -1.3638  0.8136  0.2312
  188SLPC  H13C21635   1.871   4.833   6.320  0.0738  0.6850 -0.9135
  188SLPC   C1421636   1.779   4.643   6.205 -0.2955  0.1125  0.0609
  188SLPC  H14A21637   1.831   4.573   6.270  0.8981  1.2953  0.4187
  188SLPC  H14B21638   1.715   4.584   6.141 -0.2958  1.2885 -1.0518
  188SLPC  H14C21639   1.850   4.706   6.154  1.7027 -1.3185  0.9127
  188SLPC   C1521640   1.625   4.832   6.196 -0.3316 -0.8725 -0.7122
  188SLPC  H15A21641   1.569   4.777   6.122  0.6705 -0.7964 -1.5379
  188SLPC  H15B21642   1.555   4.891   6.253  0.3382 -0.4426 -0.3204
  188SLPC  H15C21643   1.687   4.902   6.141 -0.8464  0.7882  0.7220
  188SLPC   C1221644   1.595   4.653   6.368 -0.2720 -0.5689 -0.1697
  188SLPC  H12A21645   1.648   4.580   6.428 -1.6971 -1.2667  0.2975
  188SLPC  H12B21646   1.520   4.600   6.310  0.0333 -0.8825 -0.2806
  188SLPC   C1121647   1.503   4.738   6.461 -0.0759 -0.8574  0.0890
  188SLPC  H11A21648   1.552   4.824   6.511 -0.0644 -1.3986  1.0170
  188SLPC  H11B21649   1.447   4.695   6.546 -0.3683  0.6092  0.6671
  188SLPC     P21650   1.272   4.741   6.326 -0.2698 -0.0478  0.0707
  188SLPC   O1321651   1.227   4.815   6.208  0.1020 -0.1551 -0.5971
  188SLPC   O1421652   1.282   4.592   6.307  0.1288 -0.5641  0.2247
  188SLPC   O1221653   1.410   4.801   6.374  0.2449 -0.2128 -0.2280
  188SLPC   O1121654   1.170   4.764   6.447  0.3510  0.2381  0.1219
  188SLPC    C121655   1.116   4.892   6.473 -0.5632 -0.4169 -0.4558
  188SLPC    HA21656   1.195   4.930   6.542 -1.4174 -0.7964  0.7445
  188SLPC    HB21657   1.092   4.952   6.382 -2.1635 -1.1802 -0.5653
  188SLPC    C221658   0.982   4.881   6.550 -0.0152 -0.1844  0.2221
  188SLPC    HS21659   0.954   4.979   6.594  0.6801 -0.0984  0.4849
  188SLPC   O2121660   1.007   4.801   6.664 -0.3079  0.2089  0.3645
  188SLPC   C2121661   1.075   4.855   6.767  0.4436 -0.4905 -0.2542
  188SLPC   O2221662   1.106   4.970   6.772 -0.2949 -0.2095 -0.0314
  188SLPC   C2221663   1.114   4.743   6.862 -0.1839 -0.0333 -0.7349
  188SLPC   H2R21664   1.097   4.780   6.966  1.6967  0.4050 -0.5467
  188SLPC   H2S21665   1.041   4.659   6.865  0.0449 -0.3386 -2.6239
  188SLPC    C321666   0.871   4.813   6.469 -0.7680  0.4019  0.0160
  188SLPC    HX21667   0.930   4.745   6.403  0.7295 -1.1905  2.8213
  188SLPC    HY21668   0.818   4.895   6.415  0.2739 -0.1540 -1.9617
  188SLPC   O3121669   0.786   4.736   6.555 -0.2150 -0.0390 -0.1568
  188SLPC   C3121670   0.701   4.823   6.621  0.1528  0.1608  0.9093
  188SLPC   O3221671   0.686   4.940   6.590 -0.1507 -0.0411 -0.2271
  188SLPC   C3221672   0.619   4.748   6.730  0.2099 -0.5029  0.3126
  188SLPC   H2X21673   0.583   4.650   6.692  0.0945  0.2151 -1.5422
  188SLPC   H2Y21674   0.530   4.814   6.738  0.6597  0.9102 -3.6698
  188SLPC   C2321675   1.262   4.706   6.849  0.6193  0.0488  0.0827
  188SLPC   H3R21676   1.322   4.799   6.838  2.5372 -0.9931  1.2749
  188SLPC   H3S21677   1.280   4.650   6.755 -2.7958  0.2491 -0.8444
  188SLPC   C2421678   1.312   4.624   6.977  0.7939 -0.1267 -0.3112
  188SLPC   H4R21679   1.240   4.542   6.994 -1.1908  1.4436 -0.7009
  188SLPC   H4S21680   1.314   4.693   7.064 -1.9242 -0.9754  0.5153
  188SLPC   C2521681   1.461   4.577   6.959  0.2517  0.0061  0.2704
  188SLPC   H5R21682   1.524   4.667   6.942  1.5264 -0.9221 -0.0705
  188SLPC   H5S21683   1.481   4.522   6.864  2.7232  1.0228  0.1099
  188SLPC   C2621684   1.507   4.499   7.084 -0.5436  0.1821 -0.7378
  188SLPC   H6R21685   1.445   4.406   7.080 -1.5471  0.7111  1.2338
  188SLPC   H6S21686   1.497   4.551   7.181  2.0019 -1.6783  0.6704
  188SLPC   C2721687   1.648   4.452   7.062  0.3515  0.4726  0.3419
  188SLPC   H7R21688   1.689   4.530   6.994  1.2860 -0.1338  0.1760
  188SLPC   H7S21689   1.649   4.359   7.001  0.1340  0.0526  0.9660
  188SLPC   C2821690   1.735   4.441   7.187 -0.2172 -0.7097  0.2551
  188SLPC   H8R21691   1.720   4.534   7.246  0.1365 -1.2588  1.2317
  188SLPC   H8S21692   1.841   4.433   7.156 -0.3039 -1.7398  0.2134
  188SLPC   C2921693   1.694   4.320   7.269 -0.4809  0.5895  0.3410
  188SLPC   H9R21694   1.642   4.239   7.217  2.1760 -1.0504  0.0276
  188SLPC  C21021695   1.714   4.310   7.401 -0.2741 -0.3871  0.8468
  188SLPC  H10R21696   1.654   4.239   7.460  1.1959 -0.8495  1.8423
  188SLPC  C21121697   1.786   4.417   7.482  0.1646 -0.0323  0.3088
  188SLPC  H11R21698   1.732   4.514   7.479 -2.3458 -1.3373  0.1024
  188SLPC  H11S21699   1.874   4.446   7.421  1.0757  0.2626  1.7461
  188SLPC  C21221700   1.813   4.383   7.622 -0.2370  0.9074  1.1382
  188SLPC  H12R21701   1.751   4.297   7.654  1.1304 -0.5366  0.0541
  188SLPC  C21321702   1.902   4.437   7.708 -0.8005  0.0911  0.1745
  188SLPC  H13R21703   1.892   4.413   7.814 -0.4397 -0.4231  0.0957
  188SLPC  C21421704   1.995   4.550   7.678 -0.1030  0.2358 -0.6673
  188SLPC  H14R21705   1.967   4.593   7.580  2.2339 -1.8836 -2.4111
  188SLPC  H14S21706   2.096   4.508   7.658 -0.9536 -0.9415 -2.8249
  188SLPC  C21521707   2.012   4.659   7.784  0.2646 -0.5699  0.7415
  188SLPC  H15R21708   1.914   4.710   7.800  0.3795  0.6893 -1.9788
  188SLPC  H15S21709   2.063   4.744   7.734  0.6975 -0.7862  0.8148
  188SLPC  C21621710   2.085   4.612   7.917  0.2528 -0.1642 -0.0494
  188SLPC  H16R21711   2.165   4.552   7.870 -1.0506 -1.1009 -1.1618
  188SLPC  H16S21712   2.024   4.535   7.968 -1.5447  0.7458 -0.7210
  188SLPC  C21721713   2.131   4.731   7.998  0.2243 -0.0834  0.7837
  188SLPC  H17R21714   2.057   4.794   8.052 -2.3248 -0.4653 -2.0190
  188SLPC  H17S21715   2.167   4.803   7.922  0.3247 -1.6302 -0.6895
  188SLPC  C21821716   2.238   4.700   8.094 -0.3335 -0.0355  0.2274
  188SLPC  H18R21717   2.291   4.789   8.132 -3.2488  1.1512  1.7958
  188SLPC  H18S21718   2.305   4.639   8.029  0.1592  0.9623 -0.2229
  188SLPC  H18T21719   2.210   4.649   8.189  0.8903  2.5036  2.0396
  188SLPC   C3321720   0.701   4.727   6.862 -0.2975 -0.4834 -0.0730
  188SLPC   H3X21721   0.799   4.680   6.839  1.4347  2.5089  0.6573
  188SLPC   H3Y21722   0.633   4.659   6.918  1.4448 -1.9187  0.3981
  188SLPC   C3421723   0.724   4.854   6.941  0.4758 -0.6658  0.7607
  188SLPC   H4X21724   0.635   4.919   6.928  0.0232 -0.9664  2.2187
  188SLPC   H4Y21725   0.809   4.916   6.902 -1.5248  3.2156  2.0535
  188SLPC   C3521726   0.753   4.838   7.087  0.5969  0.3841 -0.9497
  188SLPC   H5X21727   0.769   4.937   7.135 -2.6071 -0.2659  1.8382
  188SLPC   H5Y21728   0.841   4.772   7.099  0.7904  0.3542 -2.3909
  188SLPC   C3621729   0.641   4.782   7.173  0.0986  0.0594 -0.3955
  188SLPC   H6X21730   0.612   4.680   7.139  1.2255 -0.4693  0.2011
  188SLPC   H6Y21731   0.559   4.856   7.166 -0.5448 -0.4193  1.6467
  188SLPC   C3721732   0.678   4.773   7.316  0.0203  0.5298 -0.2515
  188SLPC   H7X21733   0.711   4.872   7.356  0.8153  0.6882 -1.2713
  188SLPC   H7Y21734   0.763   4.702   7.327 -0.1279  0.4900  0.7294
  188SLPC   C3821735   0.547   4.736   7.402 -0.2854  0.3093  0.9025
  188SLPC   H8X21736   0.533   4.629   7.376  0.9498  0.0777  1.1261
  188SLPC   H8Y21737   0.458   4.791   7.366 -0.6819 -1.3512 -0.7875
  188SLPC   C3921738   0.573   4.739   7.550 -0.5102 -0.2512  0.0015
  188SLPC   H9X21739   0.591   4.847   7.567 -0.2340 -0.4377  0.9503
  188SLPC   H9Y21740   0.667   4.684   7.570 -0.4839 -0.6545 -1.1670
  188SLPC  C31021741   0.456   4.706   7.637 -0.4496 -0.0077 -0.2932
  188SLPC  H10X21742   0.442   4.596   7.649  0.4019  0.0036  0.9147
  188SLPC  H10Y21743   0.367   4.748   7.585 -0.8311 -0.7627 -0.2716
  188SLPC  C31121744   0.461   4.772   7.780  0.1097 -0.7787 -0.1529
  188SLPC  H11X21745   0.437   4.879   7.764 -0.2240 -0.9711 -0.9800
  188SLPC  H11Y21746   0.565   4.767   7.820  0.7371  0.1233 -1.5829
  188SLPC  C31221747   0.357   4.710   7.883  0.2763 -0.1888  0.1279
  188SLPC  H12X21748   0.386   4.603   7.885  0.8941 -0.0276  0.0098
  188SLPC  H12Y21749   0.260   4.726   7.832  1.0784  0.2444 -1.2923
  188SLPC  C31321750   0.358   4.776   8.018 -0.0205  0.8381 -1.0466
  188SLPC  H13X21751   0.319   4.880   8.012 -2.8659 -0.0783 -0.1586
  188SLPC  H13Y21752   0.462   4.766   8.055 -0.1789 -1.1498 -0.9898
  188SLPC  C31421753   0.270   4.707   8.127  0.1581 -0.0019 -0.1067
  188SLPC  H14X21754   0.304   4.603   8.142 -1.2209 -0.2214  1.9548
  188SLPC  H14Y21755   0.167   4.706   8.086  0.0999  2.7411 -0.2609
  188SLPC  C31521756   0.272   4.788   8.255  0.0162  0.3103  0.2898
  188SLPC  H15X21757   0.219   4.882   8.228  1.0066  0.9333  0.4828
  188SLPC  H15Y21758   0.376   4.812   8.286  0.6125 -0.8028 -0.7327
  188SLPC  C31621759   0.211   4.727   8.382  0.0142 -0.3448  0.1485
  188SLPC  H16X21760   0.101   4.733   8.368  0.2301  2.0966 -1.0000
  188SLPC  H16Y21761   0.240   4.787   8.471 -3.6089  1.4442  0.3208
  188SLPC  C31721762   0.226   4.581   8.414  0.2050  0.5260  0.2857
  188SLPC  H17X21763   0.331   4.546   8.404 -0.8985 -3.0235 -0.0026
  188SLPC  H17Y21764   0.167   4.516   8.347  0.3023 -1.1793  1.7615
  188SLPC  C31821765   0.183   4.555   8.561 -0.2940 -0.7005 -0.5834
  188SLPC  H18X21766   0.081   4.594   8.575 -0.2081 -0.3520 -0.9202
  188SLPC  H18Y21767   0.255   4.593   8.637  0.0086  0.5203 -1.4568
  188SLPC  H18Z21768   0.166   4.447   8.581 -1.6569 -0.2799  0.7021
  189SLPC     N21769   2.807   4.815   6.133 -0.2071  0.5172  0.4872
  189SLPC   C1321770   2.923   4.899   6.171  0.5624 -0.1969  0.6046
  189SLPC  H13A21771   2.888   4.971   6.244  0.9575 -1.5075  2.1459
  189SLPC  H13B21772   3.010   4.846   6.206 -0.4306 -1.8037  0.8032
  189SLPC  H13C21773   2.957   4.958   6.088 -1.4589 -0.1823 -0.2679
  189SLPC   C1421774   2.751   4.740   6.244 -0.1241 -0.3423 -0.2632
  189SLPC  H14A21775   2.701   4.799   6.319 -0.2143 -0.6892 -0.0466
  189SLPC  H14B21776   2.680   4.663   6.216 -0.5216 -1.0872  2.5437
  189SLPC  H14C21777   2.824   4.687   6.303 -1.5939  0.4370  2.4058
  189SLPC   C1521778   2.868   4.716   6.041  0.5472  0.8724 -0.3639
  189SLPC  H15A21779   2.936   4.648   6.090  1.1876  0.8851 -1.1927
  189SLPC  H15B21780   2.792   4.654   5.993 -0.1605  1.9910 -0.7238
  189SLPC  H15C21781   2.918   4.762   5.957  0.2392 -0.5387 -1.3774
  189SLPC   C1221782   2.695   4.898   6.060  0.0284  0.5454  0.2383
  189SLPC  H12A21783   2.608   4.835   6.050 -0.8375  1.9151 -1.4319
  189SLPC  H12B21784   2.723   4.921   5.959 -0.3309  1.6829  0.3775
  189SLPC   C1121785   2.638   5.028   6.117  0.0686 -0.0491  0.0726
  189SLPC  H11A21786   2.551   5.051   6.052 -0.3417  1.3017  1.0597
  189SLPC  H11B21787   2.712   5.109   6.099 -0.7167  0.7159  0.2267
  189SLPC     P21788   2.675   5.090   6.369  0.2770 -0.0436  0.2714
  189SLPC   O1321789   2.803   5.142   6.323 -0.4040 -0.0525  0.2746
  189SLPC   O1421790   2.570   5.186   6.417  0.6508  0.9641 -0.3993
  189SLPC   O1221791   2.599   5.016   6.252  0.1495 -0.2138 -0.4118
  189SLPC   O1121792   2.701   4.971   6.469  0.2209 -0.5143  0.8241
  189SLPC    C121793   2.596   4.917   6.543  0.0404 -0.1471  0.0999
  189SLPC    HA21794   2.494   4.930   6.499 -0.0289 -0.7174  0.0849
  189SLPC    HB21795   2.620   4.809   6.555 -0.3433 -0.1813  0.5986
  189SLPC    C221796   2.580   4.984   6.689  0.3101 -0.0855 -0.6134
  189SLPC    HS21797   2.574   5.092   6.663  1.1312 -0.2555 -1.5617
  189SLPC   O2121798   2.692   4.959   6.772 -0.1577 -0.1255 -0.9489
  189SLPC   C2121799   2.728   5.062   6.854 -0.3498  0.2691  0.0317
  189SLPC   O2221800   2.672   5.168   6.852  0.6028  0.1946 -0.0814
  189SLPC   C2221801   2.840   5.022   6.956  0.3239 -0.6014  0.1612
  189SLPC   H2R21802   2.925   4.995   6.890 -0.6704 -1.6749 -0.7254
  189SLPC   H2S21803   2.865   5.111   7.018  0.2678  1.2267 -2.2673
  189SLPC    C321804   2.451   4.939   6.756  0.1895 -0.1221 -0.2221
  189SLPC    HX21805   2.443   4.829   6.772 -3.0938  0.3250  2.2062
  189SLPC    HY21806   2.365   4.959   6.689 -1.1685 -0.5890  1.3153
  189SLPC   O3121807   2.429   5.013   6.880 -0.0976  0.0654  0.2051
  189SLPC   C3121808   2.382   5.140   6.871 -0.0295  0.5655 -0.5655
  189SLPC   O3221809   2.354   5.196   6.770 -0.1706  0.1762 -0.4770
  189SLPC   C3221810   2.366   5.193   7.014  0.5814  0.3487 -0.3514
  189SLPC   H2X21811   2.334   5.299   7.005  0.3243  0.1169 -2.9563
  189SLPC   H2Y21812   2.466   5.185   7.062  0.2709  0.8913  0.4013
  189SLPC   C2321813   2.808   4.892   7.038  0.6181 -0.1872 -0.9018
  189SLPC   H3R21814   2.901   4.853   7.084 -0.6223  0.8528  2.8699
  189SLPC   H3S21815   2.775   4.801   6.983  3.5623 -2.4908  0.8452
  189SLPC   C2421816   2.701   4.920   7.138  0.5569  0.6345 -0.2219
  189SLPC   H4R21817   2.602   4.946   7.094 -0.5197  0.8273  2.1489
  189SLPC   H4S21818   2.726   5.009   7.199  1.2190  0.8799 -0.8312
  189SLPC   C2521819   2.677   4.800   7.229  0.1556  0.0136  0.1444
  189SLPC   H5R21820   2.762   4.795   7.301  1.0179 -0.6883 -0.9084
  189SLPC   H5S21821   2.674   4.705   7.173 -2.3783  0.6201 -0.8957
  189SLPC   C2621822   2.542   4.793   7.306  0.4718 -0.7728 -0.2507
  189SLPC   H6R21823   2.461   4.835   7.242  0.2447 -0.3857  0.2848
  189SLPC   H6S21824   2.538   4.866   7.390 -2.1155  1.2547 -1.9473
  189SLPC   C2721825   2.502   4.653   7.355  0.2019  0.7226  0.3179
  189SLPC   H7R21826   2.577   4.618   7.429  1.1202  1.3884 -0.2736
  189SLPC   H7S21827   2.509   4.586   7.267 -0.7164  1.8551 -0.6440
  189SLPC   C2821828   2.355   4.648   7.401  0.1093  0.0300 -0.2535
  189SLPC   H8R21829   2.316   4.547   7.378  0.8217 -0.1285 -0.7794
  189SLPC   H8S21830   2.303   4.713   7.327 -1.0151  1.1774  1.4586
  189SLPC   C2921831   2.338   4.686   7.547  1.0789 -0.6924 -0.2604
  189SLPC   H9R21832   2.379   4.615   7.620 -1.0912  0.1497  1.9196
  189SLPC  C21021833   2.292   4.798   7.595  0.5726  0.0088 -0.1569
  189SLPC  H10R21834   2.270   4.796   7.703 -2.4296 -1.0059 -0.7237
  189SLPC  C21121835   2.241   4.924   7.529 -0.3679  0.3388 -0.6623
  189SLPC  H11R21836   2.241   4.908   7.419  2.3002 -0.2529 -0.6551
  189SLPC  H11S21837   2.310   5.011   7.541  0.4264 -0.5812  2.4642
  189SLPC  C21221838   2.106   4.970   7.582  0.0956 -0.2750  0.0710
  189SLPC  H12R21839   2.108   4.981   7.692  2.5854 -0.2042  0.0595
  189SLPC  C21321840   1.993   4.980   7.516  0.1171 -0.1511  0.1151
  189SLPC  H13R21841   1.897   5.009   7.563  0.3839 -0.9804  1.1979
  189SLPC  C21421842   1.966   4.933   7.374 -0.0619 -0.1358 -0.3589
  189SLPC  H14R21843   2.048   4.874   7.329  0.5384  0.1605  0.3187
  189SLPC  H14S21844   1.939   5.026   7.320 -1.4118 -1.5994 -2.3542
  189SLPC  C21521845   1.851   4.827   7.365  0.2283 -0.1248 -0.4103
  189SLPC  H15R21846   1.868   4.744   7.437  1.2061 -1.2743 -1.8814
  189SLPC  H15S21847   1.838   4.790   7.261 -1.1016  1.0850 -0.6991
  189SLPC  C21621848   1.711   4.895   7.380  0.6559 -0.0099  0.2200
  189SLPC  H16R21849   1.697   4.982   7.312  2.0693 -0.5055 -0.7429
  189SLPC  H16S21850   1.719   4.946   7.479  0.3301  1.7005 -0.5958
  189SLPC  C21721851   1.596   4.798   7.387 -0.0906  0.8975 -0.5014
  189SLPC  H17R21852   1.635   4.713   7.326  1.8980  2.4444 -1.4989
  189SLPC  H17S21853   1.510   4.827   7.323  0.8718  1.5510 -1.5343
  189SLPC  C21821854   1.559   4.755   7.526  1.0673 -0.1165 -0.3909
  189SLPC  H18R21855   1.493   4.836   7.564  3.0145  1.6735 -0.6531
  189SLPC  H18S21856   1.650   4.752   7.589  1.5191 -1.9487 -1.0757
  189SLPC  H18T21857   1.515   4.656   7.550 -0.2364  0.2838 -1.0130
  189SLPC   C3321858   2.259   5.114   7.089  0.5285 -0.2741  0.2964
  189SLPC   H3X21859   2.282   5.005   7.083 -0.0288 -0.6188  3.1180
  189SLPC   H3Y21860   2.161   5.132   7.039  1.9869 -0.0774 -2.7056
  189SLPC   C3421861   2.255   5.160   7.237  0.4946 -0.3340  0.0141
  189SLPC   H4X21862   2.353   5.133   7.282 -0.5479 -2.8706  0.9675
  189SLPC   H4Y21863   2.172   5.097   7.277  1.7088 -2.4298 -0.6146
  189SLPC   C3521864   2.230   5.312   7.264  0.3738  0.2952 -0.5129
  189SLPC   H5X21865   2.139   5.335   7.204  0.6171 -2.9714 -2.3457
  189SLPC   H5Y21866   2.313   5.375   7.226  0.8094  1.2422  1.8416
  189SLPC   C3621867   2.207   5.338   7.411  0.2596 -0.4935  0.1927
  189SLPC   H6X21868   2.126   5.267   7.440 -2.4771  2.4226  0.3374
  189SLPC   H6Y21869   2.162   5.439   7.428  2.2656  0.6546 -0.8868
  189SLPC   C3721870   2.329   5.309   7.500 -0.2249 -0.6938  0.4674
  189SLPC   H7X21871   2.416   5.375   7.479 -0.2285 -1.1230 -1.0168
  189SLPC   H7Y21872   2.372   5.207   7.494 -2.0450 -1.4422 -0.4592
  189SLPC   C3821873   2.292   5.319   7.650 -0.5243  0.5158 -0.6972
  189SLPC   H8X21874   2.226   5.231   7.668  2.3650 -1.7717 -0.6046
  189SLPC   H8Y21875   2.251   5.419   7.676  0.3052  0.9473 -1.0415
  189SLPC   C3921876   2.424   5.292   7.731  0.6476 -0.6022  0.3433
  189SLPC   H9X21877   2.495   5.372   7.703 -1.3245  0.9617 -0.3937
  189SLPC   H9Y21878   2.475   5.199   7.698  1.1998  0.2164 -1.1926
  189SLPC  C31021879   2.409   5.304   7.888  0.0119  0.2609  0.3663
  189SLPC  H10X21880   2.507   5.281   7.935  0.1617 -0.3592 -0.2358
  189SLPC  H10Y21881   2.337   5.231   7.930  0.3582  1.2284  2.8338
  189SLPC  C31121882   2.369   5.449   7.933  0.5119  0.1914  0.3500
  189SLPC  H11X21883   2.283   5.488   7.874 -1.7889 -0.6088  2.9637
  189SLPC  H11Y21884   2.457   5.516   7.922  0.9599 -0.0351  2.2385
  189SLPC  C31221885   2.311   5.442   8.079  0.1158 -0.1827  0.6232
  189SLPC  H12X21886   2.227   5.370   8.077 -0.3601  0.2233  3.0181
  189SLPC  H12Y21887   2.269   5.541   8.106  0.6725  0.8426 -1.9157
  189SLPC  C31321888   2.405   5.400   8.190 -0.3915  0.4847  0.0182
  189SLPC  H13X21889   2.431   5.293   8.175  0.6919  0.9291 -1.6478
  189SLPC  H13Y21890   2.358   5.408   8.290  1.8140  0.2197  1.1239
  189SLPC  C31421891   2.547   5.472   8.193  0.8802  0.1105 -0.3323
  189SLPC  H14X21892   2.521   5.573   8.231 -2.3084 -0.7847  0.1172
  189SLPC  H14Y21893   2.575   5.483   8.086 -1.5026  0.5837 -0.9660
  189SLPC  C31521894   2.657   5.388   8.262  0.3116 -1.1171 -0.3516
  189SLPC  H15X21895   2.754   5.433   8.235  0.0823 -0.9834 -0.9776
  189SLPC  H15Y21896   2.642   5.281   8.236  1.8341 -1.2817 -0.6089
  189SLPC  C31621897   2.666   5.393   8.418 -0.3573  0.8849 -0.1076
  189SLPC  H16X21898   2.606   5.483   8.446 -1.4893  0.2414 -0.3879
  189SLPC  H16Y21899   2.770   5.386   8.455 -0.2610 -2.3359 -0.6890
  189SLPC  C31721900   2.601   5.263   8.488 -0.5721 -0.6761 -0.0692
  189SLPC  H17X21901   2.666   5.174   8.472 -0.5003 -0.6076 -0.1585
  189SLPC  H17Y21902   2.503   5.249   8.439  0.7994  0.5947 -3.4531
  189SLPC  C31821903   2.585   5.275   8.637  0.0322  0.3943 -0.1660
  189SLPC  H18X21904   2.541   5.184   8.684 -1.3327  0.8023 -0.6031
  189SLPC  H18Y21905   2.519   5.358   8.670  1.9636  1.5774  0.9642
  189SLPC  H18Z21906   2.690   5.289   8.670  1.1366 -1.7946 -2.4010
  190SLPC     N21907   4.389   5.768   6.591 -0.2423 -0.2852 -0.8519
  190SLPC   C1321908   4.332   5.902   6.548 -0.4850 -0.0915 -0.2733
  190SLPC  H13A21909   4.318   5.900   6.441 -2.3554  2.1541 -0.1435
  190SLPC  H13B21910   4.236   5.921   6.593 -0.2750  0.2968  0.0124
  190SLPC  H13C21911   4.404   5.982   6.552 -0.2087 -0.3404 -0.1951
  190SLPC   C1421912   4.288   5.658   6.577  0.3871  0.5531 -0.4223
  190SLPC  H14A21913   4.198   5.677   6.634  0.8451 -3.1787  1.9112
  190SLPC  H14B21914   4.264   5.636   6.474 -0.5777 -2.0493  0.2664
  190SLPC  H14C21915   4.307   5.567   6.633  0.7740 -0.0727 -1.5440
  190SLPC   C1521916   4.432   5.787   6.733 -0.5882 -0.2652  0.3688
  190SLPC  H15A21917   4.351   5.831   6.789 -1.1864 -0.9792  0.0763
  190SLPC  H15B21918   4.459   5.697   6.786  0.7512 -0.4384 -0.5679
  190SLPC  H15C21919   4.520   5.849   6.741 -1.8657  1.6693  0.1605
  190SLPC   C1221920   4.514   5.742   6.509 -0.3298  0.4279 -0.0154
  190SLPC  H12A21921   4.581   5.690   6.576 -0.2383 -0.2656 -0.6360
  190SLPC  H12B21922   4.561   5.837   6.493  0.5144  0.5669  2.7762
  190SLPC   C1121923   4.497   5.675   6.371 -0.0702 -0.1488 -0.3688
  190SLPC  H11A21924   4.481   5.566   6.388  3.2437 -0.5192  0.9866
  190SLPC  H11B21925   4.593   5.668   6.317 -0.3776 -1.6424 -0.7801
  190SLPC     P21926   4.281   5.694   6.214 -0.1899 -0.0614 -0.1096
  190SLPC   O1321927   4.172   5.795   6.207  0.0731  0.1378 -0.5951
  190SLPC   O1421928   4.329   5.645   6.088 -0.0216  0.0898 -0.1947
  190SLPC   O1221929   4.405   5.753   6.295  0.6334  0.5676  0.1185
  190SLPC   O1121930   4.237   5.576   6.304  0.4860  0.2010  0.7306
  190SLPC    C121931   4.116   5.508   6.278  1.3614  0.0219  0.4449
  190SLPC    HA21932   4.033   5.580   6.261  1.1096  0.2675  2.4463
  190SLPC    HB21933   4.121   5.428   6.200  0.6780  0.0379  0.3757
  190SLPC    C221934   4.073   5.435   6.409  0.0654  0.1791  0.0458
  190SLPC    HS21935   3.986   5.372   6.382 -2.2254  1.9330  2.8024
  190SLPC   O2121936   4.037   5.523   6.511 -0.0383  0.1634  0.0422
  190SLPC   C2121937   3.912   5.571   6.501  0.0257 -0.1423 -0.0916
  190SLPC   O2221938   3.837   5.561   6.408 -0.2892 -0.2009  0.5412
  190SLPC   C2221939   3.874   5.635   6.637  0.4516 -0.3450  0.0262
  190SLPC   H2R21940   3.962   5.699   6.658 -0.3766  0.4880  1.1158
  190SLPC   H2S21941   3.798   5.714   6.619  0.7788 -0.4331 -1.9141
  190SLPC    C321942   4.189   5.352   6.469  0.2729  0.1941  0.1897
  190SLPC    HX21943   4.283   5.409   6.485 -0.3833  2.0071 -1.8597
  190SLPC    HY21944   4.225   5.285   6.388  0.3822 -0.9806  1.1801
  190SLPC   O3121945   4.143   5.272   6.582 -0.7612  0.1215 -0.4380
  190SLPC   C3121946   4.187   5.302   6.702 -0.3250 -0.5772  0.1508
  190SLPC   O3221947   4.276   5.383   6.722 -0.3603 -0.0078 -0.2146
  190SLPC   C3221948   4.102   5.245   6.813  0.1719 -0.2812 -0.4981
  190SLPC   H2X21949   4.093   5.138   6.786  0.9485  0.1183 -2.4574
  190SLPC   H2Y21950   4.004   5.297   6.812  0.6555  0.7855  1.2457
  190SLPC   C2321951   3.853   5.536   6.758 -0.7038  0.1441 -0.2483
  190SLPC   H3R21952   3.951   5.517   6.806 -1.3475  3.0398  2.5661
  190SLPC   H3S21953   3.826   5.434   6.725 -1.8414  0.3076  0.1196
  190SLPC   C2421954   3.750   5.583   6.868 -0.3950  0.1519 -0.4304
  190SLPC   H4R21955   3.651   5.614   6.830 -0.3591  1.1938  0.2980
  190SLPC   H4S21956   3.800   5.675   6.906 -1.2310  1.0065 -1.3674
  190SLPC   C2521957   3.735   5.492   6.986 -0.3159 -0.2416  0.5725
  190SLPC   H5R21958   3.826   5.497   7.050 -0.9016 -1.1454  1.4980
  190SLPC   H5S21959   3.716   5.389   6.951  0.0135 -0.2573  0.4412
  190SLPC   C2621960   3.626   5.537   7.086 -0.0145 -0.8662  0.1338
  190SLPC   H6R21961   3.531   5.504   7.039 -0.1043 -0.8789  0.3267
  190SLPC   H6S21962   3.616   5.645   7.109 -1.6783 -0.6100 -1.5511
  190SLPC   C2721963   3.629   5.472   7.228 -0.3098  0.2139  1.3382
  190SLPC   H7R21964   3.552   5.527   7.285 -1.7607 -1.2372  0.8380
  190SLPC   H7S21965   3.734   5.472   7.265 -0.1810 -0.1116  0.9715
  190SLPC   C2821966   3.591   5.327   7.218  0.4764  0.2960  0.9098
  190SLPC   H8R21967   3.667   5.272   7.157  1.4550 -0.0602  2.3899
  190SLPC   H8S21968   3.505   5.329   7.148  1.0258 -1.9924  0.0974
  190SLPC   C2921969   3.556   5.241   7.335  0.0576  0.2791  0.3266
  190SLPC   H9R21970   3.480   5.168   7.303  1.8779 -0.1679 -3.4316
  190SLPC  C21021971   3.587   5.251   7.468 -0.6493  0.3483  0.3031
  190SLPC  H10R21972   3.526   5.186   7.533 -0.5764 -1.4540 -1.3567
  190SLPC  C21121973   3.664   5.357   7.541  0.4597  0.0626 -0.0400
  190SLPC  H11R21974   3.591   5.416   7.600  0.3034  0.1212 -0.2915
  190SLPC  H11S21975   3.713   5.429   7.473  1.5474 -1.4709 -0.9589
  190SLPC  C21221976   3.773   5.304   7.631  0.2106  0.5816  0.2184
  190SLPC  H12R21977   3.873   5.306   7.585 -0.3410 -0.3870 -1.0838
  190SLPC  C21321978   3.765   5.249   7.752 -0.2119 -0.0804  0.4742
  190SLPC  H13R21979   3.852   5.208   7.806  0.9472  0.5747 -0.8375
  190SLPC  C21421980   3.635   5.240   7.823  0.0535 -0.8758 -0.1920
  190SLPC  H14R21981   3.622   5.147   7.882  2.6943 -0.0324  1.9175
  190SLPC  H14S21982   3.548   5.242   7.754  0.7628 -1.6749 -1.1360
  190SLPC  C21521983   3.612   5.359   7.929 -0.0664  0.3733  0.2662
  190SLPC  H15R21984   3.503   5.353   7.947 -0.1740 -0.6668 -0.6957
  190SLPC  H15S21985   3.635   5.451   7.871  0.9055  0.8742  1.3890
  190SLPC  C21621986   3.691   5.348   8.058 -0.4439 -0.2950  0.2609
  190SLPC  H16R21987   3.675   5.438   8.122  2.7065  0.2976  0.3605
  190SLPC  H16S21988   3.801   5.346   8.044 -0.1239  0.3243  2.3903
  190SLPC  C21721989   3.658   5.229   8.137 -0.0143  0.0580  0.1494
  190SLPC  H17R21990   3.672   5.133   8.082 -1.7335 -1.0763  1.5666
  190SLPC  H17S21991   3.551   5.227   8.165  0.0325  0.3499  0.3502
  190SLPC  C21821992   3.749   5.218   8.259  0.2932  0.3058  0.0556
  190SLPC  H18R21993   3.745   5.127   8.322 -2.7298 -1.6687 -2.6878
  190SLPC  H18S21994   3.718   5.306   8.319 -0.6456 -0.9099  1.3772
  190SLPC  H18T21995   3.853   5.251   8.234 -0.2813  0.5797 -2.2209
  190SLPC   C3321996   4.159   5.271   6.953 -0.1488  0.0991  0.0403
  190SLPC   H3X21997   4.164   5.379   6.976  0.1247  0.8935 -3.2824
  190SLPC   H3Y21998   4.264   5.234   6.955  0.0252  0.5980  0.0551
  190SLPC   C3421999   4.083   5.189   7.058 -0.2937 -0.7156  0.3122
  190SLPC   H4X22000   4.050   5.087   7.030  0.3008 -0.7378 -0.3289
  190SLPC   H4Y22001   3.986   5.235   7.085 -0.1806 -0.0743 -0.3517
  190SLPC   C3522002   4.182   5.169   7.182  0.4537 -0.1712 -0.6476
  190SLPC   H5X22003   4.213   5.270   7.215 -0.8063 -0.5380  1.8748
  190SLPC   H5Y22004   4.264   5.103   7.148 -0.8559 -1.5750 -1.1797
  190SLPC   C3622005   4.109   5.115   7.299  0.8474 -0.0523 -0.5651
  190SLPC   H6X22006   4.086   5.007   7.290 -1.6851  0.1180  2.3836
  190SLPC   H6Y22007   4.014   5.168   7.319  0.6495  0.7717 -3.2993
  190SLPC   C3722008   4.200   5.127   7.428  0.5194 -0.5954  0.6586
  190SLPC   H7X22009   4.246   5.227   7.441 -0.3013 -0.2853  1.1750
  190SLPC   H7Y22010   4.283   5.053   7.416  0.3267 -0.6535 -0.4207
  190SLPC   C3822011   4.121   5.100   7.555 -0.1689  0.3597 -0.1223
  190SLPC   H8X22012   4.088   4.994   7.552  2.2739 -0.4844 -0.0238
  190SLPC   H8Y22013   4.030   5.163   7.556 -0.7441 -0.4171  2.3758
  190SLPC   C3922014   4.201   5.124   7.683 -0.2747 -0.0502  0.0453
  190SLPC   H9X22015   4.229   5.232   7.676 -0.9907  0.1605  0.3984
  190SLPC   H9Y22016   4.291   5.059   7.675  0.1328  0.3161  1.4474
  190SLPC  C31022017   4.138   5.097   7.814 -0.6244  0.5292  0.4106
  190SLPC  H10X22018   4.095   4.994   7.820  1.0835 -0.3417 -1.1325
  190SLPC  H10Y22019   4.058   5.173   7.830 -1.5805 -0.3602 -0.0061
  190SLPC  C31122020   4.237   5.109   7.932  0.4077  0.4234 -0.5851
  190SLPC  H11X22021   4.282   5.210   7.932  1.0326  0.1542 -1.2126
  190SLPC  H11Y22022   4.318   5.036   7.908  1.1608  0.9699  0.2026
  190SLPC  C31222023   4.175   5.079   8.077  0.3056  0.5654  0.3341
  190SLPC  H12X22024   4.110   5.165   8.102  1.0117  0.4476  2.9593
  190SLPC  H12Y22025   4.254   5.068   8.156 -1.1394 -0.0695  1.7507
  190SLPC  C31322026   4.086   4.956   8.088  0.3923  0.0111  0.2317
  190SLPC  H13X22027   4.136   4.860   8.065 -1.4568 -0.4259 -2.4450
  190SLPC  H13Y22028   3.996   4.972   8.026 -0.5133 -0.4515  1.3984
  190SLPC  C31422029   4.032   4.942   8.237  0.2238  0.0613  0.0075
  190SLPC  H14X22030   3.977   5.037   8.253  1.3403  0.9492 -1.1908
  190SLPC  H14Y22031   4.116   4.919   8.305 -0.9375 -2.7448  0.6275
  190SLPC  C31522032   3.936   4.825   8.253  0.4315 -0.2279 -0.4217
  190SLPC  H15X22033   3.989   4.728   8.250  2.5154  0.7895  1.2838
  190SLPC  H15Y22034   3.865   4.834   8.168  0.0656 -1.4108 -0.2532
  190SLPC  C31622035   3.858   4.842   8.391 -0.0599  0.5443  0.0176
  190SLPC  H16X22036   3.823   4.946   8.405 -1.5094  0.2177 -0.8969
  190SLPC  H16Y22037   3.936   4.830   8.470  1.0702 -1.0724 -1.2677
  190SLPC  C31722038   3.745   4.739   8.408  0.8415  0.0007 -0.1717
  190SLPC  H17X22039   3.691   4.748   8.504 -0.3672 -0.5192 -0.7789
  190SLPC  H17Y22040   3.780   4.633   8.403  0.5104 -0.1514  0.6708
  190SLPC  C31822041   3.630   4.753   8.307 -0.0654 -0.0465 -0.4997
  190SLPC  H18X22042   3.598   4.859   8.315 -0.5396 -0.0880 -1.7002
  190SLPC  H18Y22043   3.547   4.684   8.335 -0.2721  0.5281  0.3314
  190SLPC  H18Z22044   3.669   4.732   8.205 -1.4400 -2.3014 -0.6282
  191SLPC     N22045   1.037   0.289   5.640  0.1041  0.1063  0.1448
  191SLPC   C1322046   1.184   0.268   5.599  0.0685 -0.0256  0.3525
  191SLPC  H13A22047   1.248   0.340   5.647 -1.6193  1.4597  0.5041
  191SLPC  H13B22048   1.211   0.164   5.610 -2.8804 -0.8209  1.0945
  191SLPC  H13C22049   1.182   0.289   5.493 -2.2954  0.9628  0.5157
  191SLPC   C1422050   0.937   0.201   5.559 -0.2545 -0.1537 -0.1296
  191SLPC  H14A22051   0.967   0.217   5.456  0.2577  2.7781  0.3739
  191SLPC  H14B22052   0.949   0.096   5.578 -1.6246 -0.6653 -1.8255
  191SLPC  H14C22053   0.835   0.236   5.567 -0.3354 -0.2238 -0.7585
  191SLPC   C1522054   1.001   0.433   5.603  0.3019 -0.3750  0.0658
  191SLPC  H15A22055   0.992   0.433   5.496  1.3590 -0.7701 -0.0247
  191SLPC  H15B22056   0.905   0.467   5.640  0.8089  0.1256  0.9576
  191SLPC  H15C22057   1.076   0.501   5.642  0.9975 -1.6606  1.0280
  191SLPC   C1222058   1.029   0.268   5.796 -0.5796  0.3577  0.5708
  191SLPC  H12A22059   1.078   0.354   5.839  1.2404 -0.3173 -0.0389
  191SLPC  H12B22060   1.097   0.189   5.825  1.0262  0.9461 -1.3897
  191SLPC   C1122061   0.893   0.259   5.866  0.4002 -0.1811 -0.0347
  191SLPC  H11A22062   0.842   0.350   5.826  1.9849  0.0385 -1.6857
  191SLPC  H11B22063   0.913   0.270   5.975  0.8365  2.6806 -0.3176
  191SLPC     P22064   0.790   0.024   5.937 -0.4844  0.0096 -0.1511
  191SLPC   O1322065   0.693  -0.078   5.890 -0.4570  0.3395  0.0989
  191SLPC   O1422066   0.924  -0.021   5.975 -0.0407  0.3922 -0.3885
  191SLPC   O1222067   0.805   0.149   5.831 -0.2427 -0.0643 -0.4713
  191SLPC   O1122068   0.737   0.095   6.064  0.6980 -0.0187 -0.4142
  191SLPC    C122069   0.648   0.205   6.057  0.0967 -1.0185 -0.2971
  191SLPC    HA22070   0.718   0.291   6.050 -0.9991  0.0891  1.4839
  191SLPC    HB22071   0.581   0.206   5.968 -1.1077  3.0055  0.4281
  191SLPC    C222072   0.559   0.216   6.189 -0.4728 -0.9099  0.3109
  191SLPC    HS22073   0.500   0.310   6.190  0.4520 -0.3082  1.9286
  191SLPC   O2122074   0.631   0.213   6.312  0.2898 -0.0006  0.3680
  191SLPC   C2122075   0.681   0.339   6.339 -0.5350  0.3150  0.2079
  191SLPC   O2222076   0.672   0.430   6.262  0.1925 -0.2641 -0.5755
  191SLPC   C2222077   0.753   0.343   6.475  0.4678  0.8317 -0.1864
  191SLPC   H2R22078   0.834   0.269   6.459 -0.5699 -0.1021 -1.3141
  191SLPC   H2S22079   0.776   0.449   6.498  2.7830  0.5321 -0.8510
  191SLPC    C322080   0.451   0.102   6.182  0.6461 -0.3327  0.0740
  191SLPC    HX22081   0.504   0.005   6.190  0.1851 -0.7547 -1.5337
  191SLPC    HY22082   0.406   0.119   6.082 -0.3456 -1.6631  0.2571
  191SLPC   O3122083   0.339   0.129   6.267 -0.4507  1.0894  0.3907
  191SLPC   C3122084   0.273   0.015   6.309  0.1830  0.3831 -0.5175
  191SLPC   O3222085   0.311  -0.098   6.275 -0.6099 -0.0012  0.0887
  191SLPC   C3222086   0.129   0.037   6.362 -0.3932  0.0718 -0.2165
  191SLPC   H2X22087   0.068  -0.054   6.346  0.1593 -0.1602 -1.0368
  191SLPC   H2Y22088   0.080   0.119   6.307 -0.3538  0.2579  0.0241
  191SLPC   C2322089   0.667   0.292   6.596 -0.4366 -0.4738 -0.3703
  191SLPC   H3R22090   0.631   0.191   6.567  1.3673 -1.2841  0.0426
  191SLPC   H3S22091   0.576   0.353   6.614  0.5703  0.1605  3.4190
  191SLPC   C2422092   0.742   0.260   6.733  0.0263  0.1314 -0.4542
  191SLPC   H4R22093   0.682   0.311   6.811  0.7949  1.3200 -0.6137
  191SLPC   H4S22094   0.844   0.303   6.733 -0.1484  0.6791  2.0454
  191SLPC   C2522095   0.758   0.112   6.775 -0.3845 -0.0188 -0.0632
  191SLPC   H5R22096   0.816   0.061   6.695 -0.7108 -0.4358 -0.0412
  191SLPC   H5S22097   0.659   0.062   6.783 -0.9225  1.2548  1.8553
  191SLPC   C2622098   0.828   0.098   6.911  0.0741 -0.4384  1.1322
  191SLPC   H6R22099   0.783   0.174   6.979  3.5141 -0.0227  3.2047
  191SLPC   H6S22100   0.936   0.124   6.921  0.2400 -0.0017 -1.2313
  191SLPC   C2722101   0.813  -0.042   6.984 -0.0869 -0.0469  0.8097
  191SLPC   H7R22102   0.709  -0.077   6.965 -0.4474  1.3309  0.1049
  191SLPC   H7S22103   0.823  -0.018   7.092  1.1440 -1.0464  0.9297
  191SLPC   C2822104   0.916  -0.142   6.935 -0.5512  0.0967 -0.5847
  191SLPC   H8R22105   0.967  -0.106   6.843  1.1475 -1.7567 -0.4391
  191SLPC   H8S22106   0.870  -0.241   6.915 -0.4449 -0.9418  3.3905
  191SLPC   C2922107   1.034  -0.144   7.025 -0.0172 -0.6865 -0.5868
  191SLPC   H9R22108   1.101  -0.056   7.025  0.0411 -0.7106 -1.7680
  191SLPC  C21022109   1.067  -0.246   7.106 -0.2327  0.5033 -0.3348
  191SLPC  H10R22110   1.158  -0.245   7.170 -1.1932 -1.5302  1.2057
  191SLPC  C21122111   0.999  -0.380   7.132  0.3013 -0.0029  0.1930
  191SLPC  H11R22112   1.082  -0.448   7.161 -0.5761 -1.8522 -1.4145
  191SLPC  H11S22113   0.959  -0.431   7.042  1.2579  2.4236 -1.7067
  191SLPC  C21222114   0.903  -0.362   7.247  0.0702 -1.1510 -1.0924
  191SLPC  H12R22115   0.801  -0.361   7.207  0.0072 -2.1075 -0.9834
  191SLPC  C21322116   0.930  -0.338   7.379 -0.2182 -0.7048 -0.3510
  191SLPC  H13R22117   0.844  -0.328   7.446  0.1886 -1.3814  0.2885
  191SLPC  C21422118   1.067  -0.316   7.437 -0.4316 -0.6021  0.3395
  191SLPC  H14R22119   1.069  -0.206   7.456  0.0390 -0.0465 -2.5220
  191SLPC  H14S22120   1.140  -0.342   7.359 -0.6038  0.0905 -0.0617
  191SLPC  C21522121   1.102  -0.380   7.572 -0.1191  0.0292  0.5173
  191SLPC  H15R22122   1.213  -0.390   7.571  0.0095  1.1564 -1.2802
  191SLPC  H15S22123   1.053  -0.480   7.564  0.6030 -0.1856 -2.4366
  191SLPC  C21622124   1.046  -0.299   7.689  0.3074  0.3427  0.1276
  191SLPC  H16R22125   0.935  -0.300   7.690  0.2645  1.3168 -0.8429
  191SLPC  H16S22126   1.074  -0.192   7.676 -0.4623  0.6013  0.5518
  191SLPC  C21722127   1.104  -0.355   7.818 -0.2566 -0.0681  0.3573
  191SLPC  H17R22128   1.211  -0.333   7.841 -0.2457 -1.2467  1.5572
  191SLPC  H17S22129   1.096  -0.465   7.806  2.6584 -0.3572  0.3128
  191SLPC  C21822130   1.019  -0.306   7.938 -0.4662  0.3027  0.1704
  191SLPC  H18R22131   0.909  -0.315   7.924 -0.2322 -3.4637 -0.1663
  191SLPC  H18S22132   1.059  -0.207   7.969  1.5893  0.5386 -2.7684
  191SLPC  H18T22133   1.044  -0.376   8.020 -1.1346 -0.3747 -0.1955
  191SLPC   C3322134   0.118   0.084   6.511  0.7346 -0.0655 -0.8846
  191SLPC   H3X22135   0.013   0.119   6.521  0.8833 -0.2748  2.5000
  191SLPC   H3Y22136   0.183   0.170   6.538  0.1002 -0.1739  1.1658
  191SLPC   C3422137   0.146  -0.026   6.609 -0.1790  0.4424 -0.3649
  191SLPC   H4X22138   0.212  -0.101   6.560  0.1570  0.6274 -0.1947
  191SLPC   H4Y22139   0.049  -0.077   6.627 -0.7285  1.1194 -1.3497
  191SLPC   C3522140   0.204   0.026   6.742 -0.3129  0.5986  0.3390
  191SLPC   H5X22141   0.188  -0.053   6.818  1.8773 -0.2734 -0.0062
  191SLPC   H5Y22142   0.138   0.106   6.780 -0.0369  1.0422 -0.1010
  191SLPC   C3622143   0.348   0.083   6.734  0.2937 -0.0991 -0.0837
  191SLPC   H6X22144   0.357   0.162   6.657  1.2472  1.3626  1.4405
  191SLPC   H6Y22145   0.417   0.002   6.704 -1.5378 -1.2921 -1.2979
  191SLPC   C3722146   0.392   0.148   6.864 -0.1405  0.1106 -0.1506
  191SLPC   H7X22147   0.318   0.226   6.891  1.1926  0.8668  1.4421
  191SLPC   H7Y22148   0.493   0.194   6.855  1.3582 -2.8828 -0.0066
  191SLPC   C3822149   0.414   0.047   6.984  0.3659 -0.5082  0.0675
  191SLPC   H8X22150   0.473  -0.039   6.945  0.6691  0.2191 -1.1490
  191SLPC   H8Y22151   0.318   0.006   7.022  1.4043 -2.5684  0.6098
  191SLPC   C3922152   0.493   0.131   7.094 -0.6609  0.5324  0.1177
  191SLPC   H9X22153   0.431   0.220   7.118 -1.9998 -0.2039 -0.4810
  191SLPC   H9Y22154   0.597   0.151   7.062 -0.3362 -0.4245  0.5390
  191SLPC  C31022155   0.515   0.051   7.227  0.1743  0.4619  0.6812
  191SLPC  H10X22156   0.570  -0.044   7.206  1.1305  1.0084  0.6611
  191SLPC  H10Y22157   0.411   0.030   7.261  0.4081 -2.8993 -0.2786
  191SLPC  C31122158   0.607   0.138   7.317  0.3795 -0.3299  0.1213
  191SLPC  H11X22159   0.557   0.236   7.332  2.1918  0.4671  1.3485
  191SLPC  H11Y22160   0.704   0.151   7.264  1.0878  0.3656  1.5190
  191SLPC  C31222161   0.650   0.084   7.455  0.1675 -0.0638  0.5058
  191SLPC  H12X22162   0.685  -0.019   7.434 -0.4313  0.1186 -1.6840
  191SLPC  H12Y22163   0.566   0.083   7.527 -1.4181  0.1724 -1.2501
  191SLPC  C31322164   0.762   0.157   7.517 -0.3295 -0.2348 -0.2210
  191SLPC  H13X22165   0.718   0.249   7.562  0.1994  0.0633 -0.3002
  191SLPC  H13Y22166   0.840   0.179   7.441 -0.5301  2.6997  0.3083
  191SLPC  C31422167   0.820   0.076   7.635 -0.0619 -0.0102 -0.2263
  191SLPC  H14X22168   0.852  -0.025   7.602 -0.9244  0.0441 -1.2849
  191SLPC  H14Y22169   0.729   0.056   7.696 -0.1257  0.7799 -0.0405
  191SLPC  C31522170   0.922   0.152   7.726  0.1274 -0.3115 -0.0960
  191SLPC  H15X22171   0.874   0.247   7.755  1.4352 -0.4216  2.8310
  191SLPC  H15Y22172   1.010   0.172   7.660  1.4004  0.0436  1.6228
  191SLPC  C31622173   0.967   0.072   7.858 -0.4106 -0.5703 -0.1095
  191SLPC  H16X22174   1.032  -0.006   7.815  0.4695  1.4044 -2.6236
  191SLPC  H16Y22175   0.889   0.019   7.918  1.3213  0.0024  2.8517
  191SLPC  C31722176   1.030   0.169   7.958  0.5648 -0.0793 -0.7228
  191SLPC  H17X22177   0.951   0.236   7.999 -0.9703 -0.3757 -3.0627
  191SLPC  H17Y22178   1.103   0.235   7.906  0.9129 -0.5246 -0.8070
  191SLPC  C31822179   1.093   0.100   8.078 -0.2140  0.0856  0.4095
  191SLPC  H18X22180   1.169   0.025   8.048  0.8555 -0.2403  3.5482
  191SLPC  H18Y22181   1.022   0.043   8.142  0.3020  2.2825  3.1492
  191SLPC  H18Z22182   1.140   0.188   8.127  0.3149  0.3474 -0.5446
  192SLPC     N22183   1.630   1.508   6.065  0.3692  0.0714 -0.2005
  192SLPC   C1322184   1.518   1.424   6.117  0.2386 -0.1041 -1.0768
  192SLPC  H13A22185   1.476   1.375   6.031 -2.0276 -0.1218 -0.0229
  192SLPC  H13B22186   1.551   1.347   6.186 -0.0848  0.1174 -0.6673
  192SLPC  H13C22187   1.440   1.481   6.165  1.0652  0.2284 -0.0785
  192SLPC   C1422188   1.570   1.606   5.966  0.5846  0.5446 -0.9456
  192SLPC  H14A22189   1.641   1.669   5.916  0.5292  0.9117 -0.5665
  192SLPC  H14B22190   1.518   1.550   5.890  0.1062  0.9999 -0.9599
  192SLPC  H14C22191   1.497   1.671   6.011 -1.1698 -1.5728 -0.5740
  192SLPC   C1522192   1.719   1.418   5.988 -0.5797 -0.7397  0.7110
  192SLPC  H15A22193   1.758   1.340   6.051 -1.0734 -1.2219  0.4230
  192SLPC  H15B22194   1.671   1.362   5.909  2.1070 -2.2352  0.0080
  192SLPC  H15C22195   1.797   1.478   5.943 -0.4755  0.6576  2.6018
  192SLPC   C1222196   1.700   1.587   6.176 -0.4226 -0.2428 -0.0339
  192SLPC  H12A22197   1.769   1.648   6.120  0.4339 -0.4747  0.7569
  192SLPC  H12B22198   1.758   1.531   6.248 -0.0526  1.4490  1.0402
  192SLPC   C1122199   1.611   1.676   6.266 -0.1265  0.5429 -0.3512
  192SLPC  H11A22200   1.558   1.625   6.349  0.0816  0.0097 -0.5418
  192SLPC  H11B22201   1.535   1.721   6.199 -0.2327  1.6708  0.5046
  192SLPC     P22202   1.637   1.894   6.410  0.4220 -0.2019  0.3748
  192SLPC   O1322203   1.748   1.987   6.442 -0.2231 -0.2992 -0.1505
  192SLPC   O1422204   1.530   1.954   6.329  0.0207  0.7794 -0.3243
  192SLPC   O1222205   1.699   1.778   6.321 -0.0887  0.2566 -0.3907
  192SLPC   O1122206   1.593   1.821   6.537  0.2887 -0.1220 -0.2678
  192SLPC    C122207   1.456   1.839   6.586  0.0245 -0.5294 -0.0546
  192SLPC    HA22208   1.424   1.945   6.577  0.6890 -0.4593 -2.7439
  192SLPC    HB22209   1.385   1.780   6.525  1.1981  0.2777 -2.3402
  192SLPC    C222210   1.447   1.803   6.738 -0.5556  0.1604  0.4368
  192SLPC    HS22211   1.349   1.847   6.767 -0.5085  0.5378  0.0424
  192SLPC   O2122212   1.559   1.863   6.805 -0.0019  0.3945 -0.1496
  192SLPC   C2122213   1.573   1.996   6.810 -0.6998  0.3246 -0.3173
  192SLPC   O2222214   1.493   2.082   6.788 -0.0308  0.1311 -0.0110
  192SLPC   C2222215   1.708   2.031   6.871  0.0888  0.1517 -0.6174
  192SLPC   H2R22216   1.758   1.935   6.893  0.3713 -0.0038 -1.8925
  192SLPC   H2S22217   1.772   2.103   6.817 -0.4567  1.2282  0.1151
  192SLPC    C322218   1.444   1.644   6.747  0.2626 -0.5621  0.1795
  192SLPC    HX22219   1.529   1.614   6.681 -0.6617 -1.4138 -0.6500
  192SLPC    HY22220   1.355   1.608   6.692 -0.8065 -0.8624  2.0008
  192SLPC   O3122221   1.444   1.590   6.879 -0.0991  0.3286 -0.4220
  192SLPC   C3122222   1.563   1.539   6.920  0.3533 -0.4325 -1.1263
  192SLPC   O3222223   1.662   1.534   6.852 -0.1417  0.4820 -0.3507
  192SLPC   C3222224   1.553   1.474   7.057 -0.0339 -0.2698 -0.5005
  192SLPC   H2X22225   1.645   1.415   7.075 -0.6207 -0.7929  0.9591
  192SLPC   H2Y22226   1.478   1.392   7.053 -0.1138 -0.2954  1.0275
  192SLPC   C2322227   1.675   2.105   7.000  0.1791  0.4165  0.5742
  192SLPC   H3R22228   1.627   2.200   6.970 -0.2004  0.1679  0.3988
  192SLPC   H3S22229   1.771   2.127   7.053  0.4149 -0.7367  0.6602
  192SLPC   C2422230   1.599   2.018   7.104 -0.4482  0.2013 -0.0575
  192SLPC   H4R22231   1.626   1.910   7.105 -0.0610  0.2913  1.4912
  192SLPC   H4S22232   1.489   2.029   7.088 -0.4846 -0.4233 -0.2560
  192SLPC   C2522233   1.636   2.063   7.243  0.4097  0.6142  0.8569
  192SLPC   H5R22234   1.611   2.171   7.253 -0.8493  0.5505 -1.0823
  192SLPC   H5S22235   1.745   2.057   7.262  0.6163 -1.8329 -0.6325
  192SLPC   C2622236   1.569   1.971   7.347 -0.3036 -0.8007 -0.0795
  192SLPC   H6R22237   1.614   1.870   7.356  0.1438 -0.6298 -0.3511
  192SLPC   H6S22238   1.461   1.950   7.329 -0.5213  0.5335 -0.4077
  192SLPC   C2722239   1.581   2.044   7.479 -0.1277 -0.7829 -0.2168
  192SLPC   H7R22240   1.530   2.143   7.473 -0.2837 -0.8872 -0.6886
  192SLPC   H7S22241   1.686   2.047   7.514  0.0792 -1.5900 -0.7536
  192SLPC   C2822242   1.500   1.976   7.587  0.5470 -0.1417 -0.1704
  192SLPC   H8R22243   1.557   1.886   7.620  0.1812 -0.0558  0.7281
  192SLPC   H8S22244   1.401   1.948   7.546 -0.9661  3.8184  0.3368
  192SLPC   C2922245   1.474   2.061   7.713 -0.3936  1.3264  0.1416
  192SLPC   H9R22246   1.400   2.141   7.695 -0.0441  1.5937 -0.1108
  192SLPC  C21022247   1.537   2.051   7.837  0.3502 -0.3249  0.4822
  192SLPC  H10R22248   1.506   2.121   7.916  0.2848  2.4766 -1.8370
  192SLPC  C21122249   1.640   1.949   7.869  0.1817  0.5573  0.5224
  192SLPC  H11R22250   1.722   1.956   7.794 -0.5309 -3.3143 -0.8362
  192SLPC  H11S22251   1.599   1.846   7.861  2.0926 -0.2179  0.0944
  192SLPC  C21222252   1.718   1.970   7.999 -0.0268 -0.0634 -0.1377
  192SLPC  H12R22253   1.747   2.075   8.015 -0.5598  0.0037  0.4133
  192SLPC  C21322254   1.753   1.876   8.096  0.1106 -0.4795 -0.1694
  192SLPC  H13R22255   1.798   1.906   8.192  1.3160 -2.6268 -0.0125
  192SLPC  C21422256   1.734   1.726   8.088 -0.2346 -0.1076 -0.1608
  192SLPC  H14R22257   1.819   1.672   8.042 -0.3916  0.1922 -0.8013
  192SLPC  H14S22258   1.644   1.704   8.026 -0.6477  2.3611 -0.5230
  192SLPC  C21522259   1.710   1.656   8.227 -0.2063  0.4155  0.5087
  192SLPC  H15R22260   1.798   1.655   8.295  0.9998 -3.2441 -0.8516
  192SLPC  H15S22261   1.696   1.548   8.204  0.5700  0.7724 -1.8749
  192SLPC  C21622262   1.588   1.706   8.304 -0.1952  0.1722 -0.5846
  192SLPC  H16R22263   1.510   1.711   8.225  0.1431  0.0567 -0.9279
  192SLPC  H16S22264   1.624   1.806   8.336 -0.7388  0.5436 -1.0948
  192SLPC  C21722265   1.556   1.624   8.427  0.2364  0.1527  0.6527
  192SLPC  H17R22266   1.510   1.530   8.388  0.3177  0.6506 -0.7130
  192SLPC  H17S22267   1.648   1.588   8.477  2.0313  0.3451 -2.2671
  192SLPC  C21822268   1.463   1.694   8.522  0.6145 -0.1472 -0.3067
  192SLPC  H18R22269   1.518   1.771   8.581  0.8085 -0.3360 -0.2410
  192SLPC  H18S22270   1.403   1.624   8.584  1.6293  0.7402  1.7750
  192SLPC  H18T22271   1.384   1.751   8.469  1.9554  3.1996  0.9868
  192SLPC   C3322272   1.517   1.576   7.169 -0.2571 -0.2370 -0.0192
  192SLPC   H3X22273   1.428   1.638   7.149 -0.5525 -0.5421  0.3356
  192SLPC   H3Y22274   1.603   1.646   7.180  2.5111 -3.1194 -1.5186
  192SLPC   C3422275   1.490   1.511   7.311  0.4064  0.4418 -0.4318
  192SLPC   H4X22276   1.569   1.440   7.341 -0.8854 -0.5898  0.6466
  192SLPC   H4Y22277   1.400   1.447   7.300 -0.2866  1.3980 -0.4683
  192SLPC   C3522278   1.463   1.613   7.420  0.3033 -0.3721 -0.1511
  192SLPC   H5X22279   1.376   1.677   7.397  0.9117  0.3151 -0.5665
  192SLPC   H5Y22280   1.558   1.670   7.425  0.2026 -0.2253  0.0604
  192SLPC   C3622281   1.442   1.542   7.557  0.1949 -0.0960 -0.6096
  192SLPC   H6X22282   1.373   1.456   7.547 -1.7374  1.3796 -0.5095
  192SLPC   H6Y22283   1.393   1.616   7.624  3.2414  0.8693  0.7538
  192SLPC   C3722284   1.581   1.505   7.621  0.2462 -0.3345 -0.1561
  192SLPC   H7X22285   1.635   1.599   7.642  0.6586 -0.4090 -0.8597
  192SLPC   H7Y22286   1.637   1.429   7.562 -0.2355 -2.2879  1.7560
  192SLPC   C3822287   1.571   1.447   7.764 -0.1045  0.1620  0.1806
  192SLPC   H8X22288   1.527   1.346   7.753  1.1031 -0.2756 -0.8504
  192SLPC   H8Y22289   1.504   1.509   7.827 -2.2797 -1.9877  0.1241
  192SLPC   C3922290   1.699   1.436   7.845  0.4113 -0.0373 -0.7257
  192SLPC   H9X22291   1.657   1.460   7.945  0.3589 -1.8365 -0.2834
  192SLPC   H9Y22292   1.774   1.514   7.821  0.1677 -0.1762 -1.9952
  192SLPC  C31022293   1.761   1.297   7.844 -0.2362 -0.8462  0.3302
  192SLPC  H10X22294   1.782   1.278   7.737  1.7067  3.0942 -0.1844
  192SLPC  H10Y22295   1.688   1.221   7.877  0.0406 -1.9104 -1.3791
  192SLPC  C31122296   1.889   1.289   7.936 -0.1658 -0.5610  0.4861
  192SLPC  H11X22297   1.948   1.380   7.912 -1.4423 -0.2995 -2.1271
  192SLPC  H11Y22298   1.947   1.198   7.911 -0.3152 -0.7523  0.8370
  192SLPC  C31222299   1.848   1.285   8.082  0.5806  1.2290 -0.3988
  192SLPC  H12X22300   1.883   1.183   8.110 -0.5844  1.0433  0.4469
  192SLPC  H12Y22301   1.741   1.283   8.110  1.2698 -1.3736  2.7566
  192SLPC  C31322302   1.920   1.372   8.185  0.8907 -0.9725 -1.0684
  192SLPC  H13X22303   1.894   1.476   8.155 -0.1364 -0.7163  0.5941
  192SLPC  H13Y22304   2.028   1.350   8.170  0.7955 -1.3871 -1.1686
  192SLPC  C31422305   1.878   1.357   8.333  0.2754  0.1565 -0.3862
  192SLPC  H14X22306   1.889   1.250   8.359  1.2994 -0.5451 -3.2924
  192SLPC  H14Y22307   1.771   1.385   8.341  0.2200 -0.3641  1.0691
  192SLPC  C31522308   1.972   1.435   8.430 -0.9779 -0.0066  0.1527
  192SLPC  H15X22309   1.931   1.436   8.533 -0.2262  2.5204  0.4874
  192SLPC  H15Y22310   1.967   1.539   8.390 -1.6334  0.6894  1.9635
  192SLPC  C31622311   2.111   1.369   8.435 -0.3419  0.2249  0.0448
  192SLPC  H16X22312   2.140   1.348   8.330 -2.0602 -1.1811 -0.1812
  192SLPC  H16Y22313   2.098   1.270   8.485 -1.1928  1.5665  2.6432
  192SLPC  C31722314   2.218   1.463   8.493  0.5530 -0.1281 -0.1135
  192SLPC  H17X22315   2.197   1.495   8.597 -0.0148  2.2965 -0.9039
  192SLPC  H17Y22316   2.225   1.555   8.431  0.6794  0.9872  1.5042
  192SLPC  C31822317   2.350   1.387   8.494  0.4095  0.0331 -0.2100
  192SLPC  H18X22318   2.438   1.454   8.504 -0.4659  0.8852  2.5913
  192SLPC  H18Y22319   2.365   1.335   8.396  1.5202 -0.8393  0.4017
  192SLPC  H18Z22320   2.343   1.308   8.572 -2.7357  1.3825  1.0511
  193SOD    SOD22321   2.181   3.716   6.121  0.2385 -0.0555 -0.1468
  194SOD    SOD22322   4.842   3.935   0.772 -0.2883 -0.3952  0.0013
  195SOD    SOD22323   2.137   1.165   3.769 -0.0755  0.1001 -0.0262
  196SOD    SOD22324   1.557   3.994  16.368  0.2532  0.0377 -0.3001
  197SOD    SOD22325   3.187   6.240   6.592  0.4896  0.0480  0.1454
  198SOD    SOD22326   2.638   4.666  14.332  0.3075 -0.0415 -0.0346
  199SOD    SOD22327   0.110   5.482  14.575 -0.6699  0.4762 -0.0744
  200SOD    SOD22328   0.299   2.932  10.821  0.0383  0.2287 -0.1272
  201SOD    SOD22329   2.345   5.354  11.139 -0.2422  0.2072  0.5786
  202SOD    SOD22330   6.238   2.143   4.220 -0.0472  0.2040 -0.2226
  203SOD    SOD22331   1.221   2.587   1.765 -0.4442  0.3447  0.2251
  204SOD    SOD22332   2.691   4.185   2.506  0.0101  0.0572 -0.5863
  205SOD    SOD22333   2.811   0.080   5.421  0.0210  0.1135  0.2818
  206SOD    SOD22334   6.033   3.059  12.399  0.5351  0.2293  0.0145
  207SOD    SOD22335   5.260   4.118  16.343  0.1002 -0.1585  0.6467
  208SOD    SOD22336   5.042   4.130   3.758  0.1744 -0.0826  0.1100
  209SOD    SOD22337   1.243   3.929   0.730  0.0312 -0.8929 -0.1217
  210SOD    SOD22338   2.067   1.344  12.815  0.6238 -0.3170 -0.1332
  211SOD    SOD22339   1.078   2.204  13.096 -0.0800 -0.5687 -0.0691
  212SOD    SOD22340   2.512   4.578  10.458  0.0656  0.2916  0.0247
  213SOD    SOD22341   1.112   3.895  15.437  0.0408 -0.2981 -0.2205
  214SOD    SOD22342   4.608   0.432  11.461 -0.3117 -0.1126  0.2939
  215SOD    SOD22343   4.674   0.110   4.604  0.5350  0.3992  0.0089
  216SOD    SOD22344   4.501   1.000  14.738  0.0575 -0.3311 -0.5796
  217SOD    SOD22345   6.549   2.569   1.525 -0.0757 -0.5843  0.0844
  218SOD    SOD22346   2.936   2.393   4.682 -0.2738 -0.9170 -0.1021
  219SOD    SOD22347   3.522   0.785  10.709 -0.1593  0.1506 -0.0242
  220SOD    SOD22348   3.799   2.869  15.910  0.2067 -0.4835 -0.2610
  221SOD    SOD22349   0.463   5.138  12.578 -0.0030  0.7401 -0.0150
  222SOD    SOD22350   0.427   1.069   1.497 -0.0132 -0.0816 -0.2715
  223SOD    SOD22351   4.155   0.637  16.490  0.0880  0.6371  0.2192
  224SOD    SOD22352   3.215   5.521   1.373  0.1280  0.2611  0.0445
  225SOD    SOD22353   4.364   4.242  11.438 -0.0615  0.0318 -0.3659
  226SOD    SOD22354   5.874   6.413   6.499 -0.2844 -0.4033 -0.3054
  227SOD    SOD22355   3.251   1.344  12.026  0.1325  0.1744  0.1027
  228SOD    SOD22356   4.841   2.180  11.153 -0.0370  0.7539  0.2733
  229SOD    SOD22357   3.900   5.195   6.017 -0.2752 -0.2731  0.3738
  230SOD    SOD22358   5.710   4.454   4.054 -0.7708  0.4699 -0.3046
  231SOD    SOD22359   0.777   4.380   4.246 -0.8182  0.0829  0.3007
  232SOD    SOD22360   3.964   4.726   0.801  0.0567 -1.1289 -0.0550
  233SOD    SOD22361   0.579   4.103   1.851 -0.3327  0.3953 -0.3749
  234SOD    SOD22362   2.879   4.656  12.343 -0.3897  0.7978 -0.0349
  235SOD    SOD22363   6.597   3.592   4.849  0.1927  0.4941  0.4775
  236SOD    SOD22364   6.356   4.653   5.224 -0.0718 -0.1632 -0.1849
  237SOD    SOD22365   2.203   0.482  14.668  0.4897 -0.2906 -0.0754
  238SOD    SOD22366   6.253   2.960   2.417  0.1519  0.4926 -0.0683
  239SOD    SOD22367   2.708   1.439   5.045 -0.3728  0.1535  0.1365
  240SOD    SOD22368   0.243   5.613  11.005  0.1836 -0.5461 -0.3604
  241SOD    SOD22369   1.480   5.654   3.842 -0.2336  0.1758  0.0212
  242SOD    SOD22370   3.276   5.266  15.480  0.7611 -0.1782 -0.1629
  243SOD    SOD22371   5.196   5.258  11.135  0.1955 -0.2112  0.0783
  244SOD    SOD22372   5.297   0.950  14.961  0.4531 -0.6602  0.0042
  245SOD    SOD22373   0.847   2.835   2.791 -0.1001 -0.0362 -0.3654
  246SOD    SOD22374   6.015   1.491  15.146 -0.4547 -1.1341 -0.2070
  247SOD    SOD22375   1.173   2.589  16.043  0.2840  0.0278 -0.2693
  248SOD    SOD22376   2.985   3.018   5.270  0.3260  0.2922  0.0849
  249SOD    SOD22377   1.036   0.835  10.812  0.1619  0.3315  0.4950
  250SOD    SOD22378   0.879   0.661  13.024  0.5781  0.2808 -0.6247
  251SOD    SOD22379   5.591   3.413  13.940 -0.1133  0.1385  0.0467
  252SOD    SOD22380   1.333   1.933   4.133  0.0257 -0.0219  0.2204
  253SOD    SOD22381   0.116   1.331  15.197 -0.2236 -0.3618 -0.1711
  254SOD    SOD22382   5.824   6.788  14.668  0.3097  0.4534  0.1469
  255SOD    SOD22383   4.798   6.154   1.206  0.2722 -0.4329 -0.3158
  256SOD    SOD22384   0.045   5.751  13.928 -0.4490  0.3821  0.0876
  257SOD    SOD22385   1.727   0.367   5.757 -0.0412  0.0824  0.0853
  258SOD    SOD22386   0.486   5.125   5.794 -0.1531 -0.2381  0.3918
  259SOD    SOD22387   5.673   5.965   1.069  0.1316 -0.5258  0.3980
  260SOD    SOD22388   3.607   0.652   5.394  0.1308  0.0956  0.0129
  261SOD    SOD22389   0.460   4.992   3.676 -0.0943 -0.1359 -0.2726
  262SOD    SOD22390   2.083   6.331   0.598 -0.5225 -0.0755 -0.2203
  263SOD    SOD22391   5.507   4.545  12.481 -0.4516 -0.0861 -0.4440
  264SOD    SOD22392   2.499   3.183  15.902 -0.4048 -0.0095  0.2473
  265SOD    SOD22393   3.514   0.426  15.971  0.2113  0.2401  0.1291
  266CLA    CLA22394   4.474   1.220   1.047 -0.6005  0.0483 -0.0121
  267CLA    CLA22395   0.353   4.433   0.638  1.0844 -0.3808 -0.0361
  268CLA    CLA22396   2.754   3.759  16.991 -0.2632  0.0725  0.2078
  269CLA    CLA22397   1.848   2.900  16.035  0.2896  0.1938 -0.0814
  270CLA    CLA22398   1.911   4.431  14.161 -0.0252 -0.0647  0.0014
  271CLA    CLA22399   6.614   4.273  14.995 -0.1174 -0.2654  0.4064
  272CLA    CLA22400   6.803   6.110  14.192 -0.1160 -0.0457 -0.2139
  273CLA    CLA22401   3.867   2.967  12.562  0.0891  0.2107  0.1317
  274CLA    CLA22402   3.887   0.434   3.502  0.0535  0.1852  0.3917
  275CLA    CLA22403   1.932   1.825   5.377  0.2883  0.0969 -0.2003
  276CLA    CLA22404   5.521   0.276  14.042 -0.2323  0.0306 -0.1100
  277CLA    CLA22405   1.462   1.627  15.929 -0.2577  0.2576  0.2050
  278CLA    CLA22406   3.909   5.780  15.805 -0.3106 -0.0407 -0.0797
  279CLA    CLA22407   0.731   1.492   1.278 -0.3135  0.1319  0.1641
  280CLA    CLA22408   2.786   3.619   5.002 -0.5279  0.2840 -0.3908
  281CLA    CLA22409   5.628   0.499  15.332  0.5313  0.4274 -0.2161
  282CLA    CLA22410   5.959   6.131   0.342 -0.0862 -0.2487  0.1298
  283CLA    CLA22411   3.369   1.652   3.363  0.1593 -0.0811 -0.5115
  284CLA    CLA22412   6.464   3.209  14.247  0.1643  0.1034 -0.0497
  285CLA    CLA22413   0.266   4.481   4.839 -0.1050 -0.3399  0.0174
  286CLA    CLA22414   5.288   5.131  15.285  0.3016  0.0700  0.4748
  287CLA    CLA22415   2.630   0.325   3.068  0.0772  0.1915 -0.0584
  288CLA    CLA22416   5.619   3.697  12.445 -0.1506  0.2341  0.2393
  289CLA    CLA22417   4.311   0.257   1.523 -0.2368 -0.3586  0.3422
  290CLA    CLA22418   3.561   1.651   5.388 -0.0135 -0.0591  0.1645
  291CLA    CLA22419   4.412   4.678   4.539  0.3230 -0.1514 -0.0421
  292CLA    CLA22420   3.278   6.373   0.276 -0.0932  0.3441  0.1160
  293CLA    CLA22421   5.098   0.907  15.470 -0.3312  0.1821 -0.4115
  294CLA    CLA22422   6.248   0.641  14.360  0.3524  0.4749  0.0021
  295CLA    CLA22423   5.478   6.039   3.761 -0.1268  0.0029  0.3455
  296CLA    CLA22424   5.441   6.172  15.361 -0.1360 -0.4583 -0.1005
  297CLA    CLA22425   6.531   2.789  17.034  0.1554  0.2859  0.2819
  298CLA    CLA22426   2.610   3.693  15.262 -0.5503 -0.2121  0.2095
  299CLA    CLA22427   3.756   4.793  11.432  0.3209 -0.1706  0.0045
  300CLA    CLA22428   4.834   2.542  17.061 -0.0914  0.5468 -0.0736
  301CLA    CLA22429   0.798   1.228  14.175  0.1735  0.1398 -0.1139
  302CLA    CLA22430   3.916   5.548   0.860  0.4255  0.2506  0.1848
  303CLA    CLA22431   3.106   0.690   5.447 -0.1955 -0.2396  0.0502
  304CLA    CLA22432   4.955   3.439  14.351 -0.2951  0.2910 -0.4802
  305CLA    CLA22433   0.157   5.097   2.095  0.6887  0.3511 -0.1113
  306CLA    CLA22434   1.806   5.057  12.653 -0.0226  0.0478 -0.3859
  307CLA    CLA22435   0.883   2.637  15.600 -0.0963 -0.1237  0.0042
  308CLA    CLA22436   2.179   3.453  12.512  0.0121  0.2048 -0.0204
  309CLA    CLA22437   5.223   1.621   3.731 -0.4028  0.1576  0.0858
  310CLA    CLA22438   2.631   6.024  15.230 -0.0304  0.5993 -0.0876
  311CLA    CLA22439   5.997   6.344   1.747 -0.1978  0.1216 -0.1795
  312CLA    CLA22440   0.744   1.539  11.310  0.0007  0.0787  0.2981
  313CLA    CLA22441   3.746   4.115   1.422  0.4498  0.2051 -0.0434
  314CLA    CLA22442   0.696   4.082  14.721 -0.1260 -0.1845 -0.2576
  315CLA    CLA22443   0.346   2.137   1.250 -0.3668  0.0846 -0.2051
  316CLA    CLA22444   1.611   5.216   4.467 -0.2275 -0.2917 -0.0937
  317CLA    CLA22445   0.921   0.624   1.780  0.1150  0.0561 -0.2447
  318CLA    CLA22446   0.679   3.219   1.552  0.0372  0.1340  0.1366
  319TIP3   OH222447   4.260   3.291   2.997 -0.3134 -0.6204 -0.1418
  319TIP3    H122448   4.168   3.315   2.986  0.8337  4.2066 -1.0892
  319TIP3    H222449   4.284   3.247   2.915 -1.4239 -0.8072 -0.3803
  320TIP3   OH222450   1.720   0.931  13.523 -0.5613 -0.0827 -0.2826
  320TIP3    H122451   1.779   0.929  13.448 -0.5310  0.3329 -0.2728
  320TIP3    H222452   1.683   0.843  13.527 -2.1272  0.4228 -2.0417
  321TIP3   OH222453   0.569   0.998  14.497 -0.6081 -0.3815  0.0200
  321TIP3    H122454   0.569   0.903  14.510 -1.1672 -0.2198  1.3727
  321TIP3    H222455   0.484   1.026  14.530 -0.2060  0.6516  0.2113
  322TIP3   OH222456   0.749   2.356   2.648 -0.0283  0.5342  0.1971
  322TIP3    H122457   0.717   2.316   2.567 -0.0860  0.6859  0.1448
  322TIP3    H222458   0.705   2.307   2.718 -1.4290  1.5993  0.1110
  323TIP3   OH222459   2.507   5.632   2.155 -0.1128  0.5307 -0.5090
  323TIP3    H122460   2.507   5.580   2.235  1.7471 -0.6072 -1.2102
  323TIP3    H222461   2.597   5.630   2.124 -0.1489  3.3844 -1.1180
  324TIP3   OH222462   2.418   3.130  13.756  0.2746 -0.1403 -0.7052
  324TIP3    H122463   2.486   3.110  13.820 -1.3877  1.1969  1.6468
  324TIP3    H222464   2.340   3.083  13.788 -0.8313  1.2772 -1.2038
  325TIP3   OH222465   4.093   1.698   1.812  0.3617  0.3275 -0.2122
  325TIP3    H122466   4.160   1.673   1.747  0.1739  0.8014 -0.5938
  325TIP3    H222467   4.041   1.765   1.768  0.1757  0.5930  0.4001
  326TIP3   OH222468   1.588   5.678   0.175  0.1404 -0.3613  0.2129
  326TIP3    H122469   1.643   5.601   0.164  2.8689  1.3980  0.7557
  326TIP3    H222470   1.591   5.697   0.269  2.0090  2.0161 -0.2191
  327TIP3   OH222471   0.412   3.280   3.150  0.4312  0.1569 -0.7823
  327TIP3    H122472   0.426   3.187   3.129 -0.4069  0.4341 -2.8528
  327TIP3    H222473   0.380   3.280   3.240 -0.2948 -1.6539 -0.9955
  328TIP3   OH222474   6.082   6.313   3.941  0.5900 -0.3101 -1.0679
  328TIP3    H122475   6.121   6.263   3.870 -0.1208  0.8622 -2.3127
  328TIP3    H222476   5.994   6.334   3.911  0.5056  0.7679 -0.1303
  329TIP3   OH222477   1.616   4.849  14.322  0.1235  0.1171  0.2386
  329TIP3    H122478   1.588   4.757  14.317 -0.4376  0.3477 -1.2668
  329TIP3    H222479   1.546   4.892  14.372 -0.4039  0.0139 -0.4040
  330TIP3   OH222480   1.245   4.819  14.734  0.5926 -0.8222 -0.0292
  330TIP3    H122481   1.160   4.774  14.735  1.0685 -1.9054 -2.1554
  330TIP3    H222482   1.309   4.749  14.739  1.3546 -0.1866 -0.6051
  331TIP3   OH222483   5.715   6.404  14.433 -0.0919  0.2870 -0.0812
  331TIP3    H122484   5.765   6.436  14.509  0.2739  0.0096 -0.2017
  331TIP3    H222485   5.692   6.484  14.385 -1.8503  0.6317  1.2237
  332TIP3   OH222486   1.853   2.254  14.224  0.4507 -0.3255  0.4957
  332TIP3    H122487   1.854   2.210  14.139  0.8776  0.2056  0.2258
  332TIP3    H222488   1.944   2.272  14.243  0.1982  2.0295 -0.2274
  333TIP3   OH222489   6.182   5.021  14.275 -0.3491 -0.6450 -0.5973
  333TIP3    H122490   6.232   4.982  14.203 -1.3370 -2.8400 -0.1859
  333TIP3    H222491   6.234   5.003  14.353  0.3853  1.1341 -0.6187
  334TIP3   OH222492   1.220   4.308  11.983  0.0419 -0.1790 -0.0302
  334TIP3    H122493   1.227   4.232  12.041 -0.1880 -0.7670 -0.7607
  334TIP3    H222494   1.132   4.302  11.946  0.4077 -0.1541 -0.9142
  335TIP3   OH222495   4.442   4.294   5.887  0.9009 -0.2443 -0.1166
  335TIP3    H122496   4.482   4.346   5.956  0.3267 -0.9056  0.7447
  335TIP3    H222497   4.350   4.321   5.887  1.2095  0.9786 -1.8053
  336TIP3   OH222498   3.327   1.272  16.697 -0.2061 -0.4157  0.6357
  336TIP3    H122499   3.261   1.205  16.677 -2.0694  1.4348  0.2930
  336TIP3    H222500   3.332   1.272  16.793  2.6340 -3.5663  0.6524
  337TIP3   OH222501   6.343   4.942   2.123  0.4617 -0.4804 -0.3089
  337TIP3    H122502   6.368   5.026   2.162 -0.5875  0.5468 -1.7535
  337TIP3    H222503   6.422   4.911   2.079  0.8736 -0.3135  0.2912
  338TIP3   OH222504   2.236   6.385  17.123 -0.2250  0.2387  0.5870
  338TIP3    H122505   2.324   6.348  17.127 -0.4441 -0.6103 -1.2968
  338TIP3    H222506   2.244   6.463  17.068 -0.4907  0.7203  1.2154
  339TIP3   OH222507   0.890   1.082  13.322  0.2009  0.4849 -0.3480
  339TIP3    H122508   0.977   1.068  13.283  0.1380  0.1665 -0.3728
  339TIP3    H222509   0.844   1.000  13.308  1.0952 -0.6837  2.8906
  340TIP3   OH222510   5.419   0.608  17.036  0.0895  0.1055 -0.4553
  340TIP3    H122511   5.427   0.664  16.959  0.4069  1.8449  0.8020
  340TIP3    H222512   5.415   0.519  17.000  0.7109  0.8281 -2.4417
  341TIP3   OH222513   2.013   2.914   0.822 -0.7525  0.1200  0.4754
  341TIP3    H122514   2.094   2.901   0.772  0.0422  0.4403  1.6525
  341TIP3    H222515   2.018   2.852   0.894 -2.0365 -0.5424  0.0405
  342TIP3   OH222516   1.372   3.025  14.789 -0.3871  0.2393  0.1764
  342TIP3    H122517   1.363   2.931  14.803 -0.2974  0.4460  1.8393
  342TIP3    H222518   1.467   3.041  14.789 -0.3817  0.2786 -0.6428
  343TIP3   OH222519   0.378   2.452  17.157  0.2731 -0.0281 -0.8513
  343TIP3    H122520   0.372   2.364  17.195 -0.2191 -0.3437 -1.6234
  343TIP3    H222521   0.376   2.511  17.232 -1.7990 -0.5854 -0.3968
  344TIP3   OH222522   0.027   2.470  11.877 -0.1196  0.2110  0.6026
  344TIP3    H122523   0.100   2.425  11.835  0.6147  0.5589  1.4650
  344TIP3    H222524  -0.051   2.428  11.842  0.4303  0.6854 -1.3408
  345TIP3   OH222525   2.646   3.961   4.675  0.3804  0.2202  0.2383
  345TIP3    H122526   2.589   3.905   4.622 -1.0298  2.1724 -0.4302
  345TIP3    H222527   2.647   3.919   4.761  0.3927 -1.4614 -0.5337
  346TIP3   OH222528   6.354   1.404  15.937 -0.2023 -0.4591  0.2349
  346TIP3    H122529   6.445   1.399  15.907  0.0516 -1.0558  1.0860
  346TIP3    H222530   6.349   1.346  16.012 -0.9654  0.5728  1.0237
  347TIP3   OH222531   3.926   3.096   3.514 -0.4757  0.2558 -0.1955
  347TIP3    H122532   3.851   3.135   3.560 -1.4781 -1.5719 -0.1734
  347TIP3    H222533   3.899   3.005   3.498  2.4932 -1.0926  1.5749
  348TIP3   OH222534   1.298   0.858   4.423 -0.3132  0.1493  0.2085
  348TIP3    H122535   1.225   0.800   4.443  0.9471 -1.6243 -0.0392
  348TIP3    H222536   1.372   0.798   4.409  0.8570  1.7867 -0.9487
  349TIP3   OH222537   5.981   0.794   4.022  0.1162 -0.9636 -0.1131
  349TIP3    H122538   5.971   0.767   3.931 -2.0542  2.0427 -0.9492
  349TIP3    H222539   6.018   0.882   4.017 -1.0915 -0.2838  1.8034
  350TIP3   OH222540   6.172   1.283   3.746  0.6195  0.1333 -0.0856
  350TIP3    H122541   6.162   1.198   3.705  0.0111  0.4015 -0.4986
  350TIP3    H222542   6.261   1.282   3.782  0.3600 -0.9383  0.5441
  351TIP3   OH222543   6.755   5.911  13.263 -1.1602  0.8171 -0.1146
  351TIP3    H122544   6.705   5.992  13.262 -2.5047  0.0367  0.8033
  351TIP3    H222545   6.819   5.921  13.193 -0.9141  2.8879  0.3446
  352TIP3   OH222546   3.025   1.471   3.146  0.2296  0.2202 -0.2232
  352TIP3    H122547   3.075   1.455   3.066  0.7588 -0.1803  0.1752
  352TIP3    H222548   2.938   1.495   3.116 -0.3390 -2.4149 -0.8946
  353TIP3   OH222549   3.058   1.790  12.152  0.5592 -0.6718 -0.4794
  353TIP3    H122550   3.109   1.787  12.233  2.0524 -0.7212 -1.3693
  353TIP3    H222551   2.987   1.852  12.169  1.5826  0.2718  0.4602
  354TIP3   OH222552   6.717   2.132  17.187 -0.1725 -0.3645 -0.1458
  354TIP3    H122553   6.684   2.093  17.106  0.0017  0.6418 -0.7289
  354TIP3    H222554   6.646   2.119  17.250 -1.6249  1.4298 -1.2735
  355TIP3   OH222555   6.264   4.238  17.172  0.4049 -0.2494 -0.4086
  355TIP3    H122556   6.185   4.228  17.119  0.0346 -2.0500  0.3801
  355TIP3    H222557   6.318   4.300  17.124  0.5311 -2.5008 -3.4558
  356TIP3   OH222558   2.882   2.853   1.944 -0.4924  0.2390 -0.0091
  356TIP3    H122559   2.849   2.781   1.889  0.3983 -0.1733 -0.0214
  356TIP3    H222560   2.948   2.811   2.000  0.2868  1.1171 -0.2534
  357TIP3   OH222561   3.679   2.048   4.804  0.6054 -0.1376  0.3610
  357TIP3    H122562   3.683   1.953   4.789  1.0524 -0.1086  0.2842
  357TIP3    H222563   3.586   2.066   4.818 -0.2478  0.0773 -4.0534
  358TIP3   OH222564   5.370   6.770  15.705  0.2062 -0.1957  0.8640
  358TIP3    H122565   5.352   6.828  15.631 -1.4760  0.3326  1.6190
  358TIP3    H222566   5.311   6.696  15.693  2.0073 -1.5909  0.1656
  359TIP3   OH222567   1.172   3.092  16.784 -0.4383  0.4656  0.0256
  359TIP3    H122568   1.222   3.055  16.711  2.0370 -1.1809  2.3467
  359TIP3    H222569   1.100   3.139  16.743  0.2728 -1.1535 -3.3995
  360TIP3   OH222570   1.151   3.031   0.031  0.4389  0.3194  0.0322
  360TIP3    H122571   1.132   3.087  -0.045  1.4131 -0.0503 -0.4935
  360TIP3    H222572   1.244   3.045   0.048  0.0961  0.9114  1.5916
  361TIP3   OH222573   4.679   3.094  16.611 -0.6578  0.3348  0.1020
  361TIP3    H122574   4.638   3.180  16.602  0.6675  0.8902 -0.9294
  361TIP3    H222575   4.650   3.045  16.533 -0.3102  0.3256 -0.0227
  362TIP3   OH222576   2.155   5.577   3.464  0.4984 -0.2688 -0.7427
  362TIP3    H122577   2.096   5.599   3.392 -0.5761 -1.2457 -0.2109
  362TIP3    H222578   2.128   5.489   3.490  0.4566  0.2735  1.2093
  363TIP3   OH222579   3.767   1.710   0.951  0.1187  0.1065 -0.2324
  363TIP3    H122580   3.794   1.623   0.979  0.8531  0.3158 -0.2790
  363TIP3    H222581   3.830   1.769   0.992 -0.7413  0.6735  0.3061
  364TIP3   OH222582   0.127   5.845   1.100  0.6705 -0.2018 -0.3145
  364TIP3    H122583   0.087   5.859   1.186 -0.6427 -0.3616 -0.8667
  364TIP3    H222584   0.115   5.751   1.084 -0.0284  0.0098 -1.0985
  365TIP3   OH222585   4.945   3.629   4.926 -0.3143 -0.0705 -0.0589
  365TIP3    H122586   4.872   3.632   4.864  0.2243 -1.1611 -0.7681
  365TIP3    H222587   4.907   3.659   5.009 -1.6873 -1.0103 -0.3164
  366TIP3   OH222588   1.395   5.899  17.130  0.4048 -0.2999  0.1591
  366TIP3    H122589   1.382   5.888  17.036  1.1380 -1.5561  0.1850
  366TIP3    H222590   1.319   5.949  17.160 -0.0033 -0.1954 -1.0333
  367TIP3   OH222591   0.120   1.024   5.366  0.2219  0.4136  0.1472
  367TIP3    H122592   0.175   1.073   5.427  1.6642  0.1970 -0.9252
  367TIP3    H222593   0.154   1.046   5.280 -2.2331  1.2895 -0.7084
  368TIP3   OH222594   5.448   4.811   3.038 -0.2784 -0.2005  0.3601
  368TIP3    H122595   5.451   4.901   3.070 -0.2643  0.0541 -0.3535
  368TIP3    H222596   5.518   4.806   2.973  1.0683 -1.2955  1.8146
  369TIP3   OH222597   2.844   4.261   0.066 -0.3257 -0.2563 -0.5477
  369TIP3    H122598   2.776   4.260   0.133  1.1056  2.8981  1.2159
  369TIP3    H222599   2.796   4.270  -0.017 -2.1060  0.7960  0.5276
  370TIP3   OH222600   1.665   0.843   5.795  0.1968 -0.0241  0.0640
  370TIP3    H122601   1.625   0.917   5.749  0.9816  1.2088  1.2945
  370TIP3    H222602   1.596   0.810   5.853  1.0536  2.6635  2.8525
  371TIP3   OH222603   6.108   3.548   1.297  0.0518 -0.4807  0.4570
  371TIP3    H122604   6.129   3.636   1.327 -1.9176  1.3629 -2.9658
  371TIP3    H222605   6.191   3.500   1.303  1.8261  2.3212  0.1575
  372TIP3   OH222606   4.414   0.740   0.555  0.0799 -0.2385 -0.1232
  372TIP3    H122607   4.502   0.760   0.585 -0.3167 -0.6900  1.4251
  372TIP3    H222608   4.357   0.763   0.629 -1.1144  0.0611 -1.0883
  373TIP3   OH222609   4.677   1.104   4.537  0.4227 -0.1764 -0.2242
  373TIP3    H122610   4.625   1.137   4.464 -0.4789 -1.0026  0.0344
  373TIP3    H222611   4.758   1.155   4.533  0.3726 -0.1727 -1.7706
  374TIP3   OH222612   0.035   1.924   0.080  0.4063  0.1929  0.5547
  374TIP3    H122613  -0.021   1.956   0.009 -1.2662 -1.7923  0.8752
  374TIP3    H222614  -0.024   1.917   0.155  1.1698 -1.4317  1.0606
  375TIP3   OH222615   5.441   4.359   0.361 -0.0119  0.4819 -0.0816
  375TIP3    H122616   5.365   4.308   0.387  0.6038  0.5518  1.9788
  375TIP3    H222617   5.512   4.327   0.416  1.6495  0.0034 -2.3460
  376TIP3   OH222618   2.490   3.373  14.050  0.1371 -0.6242  0.3893
  376TIP3    H122619   2.559   3.350  14.112  2.0766 -1.3469 -1.8705
  376TIP3    H222620   2.530   3.439  13.993 -0.8549 -1.3392 -1.2167
  377TIP3   OH222621   0.008   5.935   4.864  0.6802 -0.1586  0.3927
  377TIP3    H122622   0.074   5.923   4.796 -0.3930  0.6942 -0.8402
  377TIP3    H222623  -0.076   5.936   4.818 -0.1376 -0.1649  1.7959
  378TIP3   OH222624   5.089   3.835  16.220  0.2558 -0.1318 -0.1402
  378TIP3    H122625   5.113   3.884  16.299  3.6783 -0.2804 -0.9315
  378TIP3    H222626   5.146   3.870  16.152  0.0971 -2.5826 -1.6548
  379TIP3   OH222627   6.012   4.371   3.022  0.2305  0.3461  0.1930
  379TIP3    H122628   6.027   4.284   3.059  2.0128  0.2841 -0.6060
  379TIP3    H222629   5.941   4.359   2.959 -3.7632  0.6488  4.1287
  380TIP3   OH222630   6.159   4.371  13.161 -0.2818  0.8233 -0.1943
  380TIP3    H122631   6.238   4.389  13.212  0.1087  0.1855 -0.5720
  380TIP3    H222632   6.098   4.333  13.225 -0.4546  1.7274  0.1971
  381TIP3   OH222633   3.392   0.764  17.167 -0.2420 -0.3276 -0.0984
  381TIP3    H122634   3.394   0.810  17.083 -1.0317  0.7619  0.4439
  381TIP3    H222635   3.385   0.672  17.144 -0.7376 -0.0236 -1.2412
  382TIP3   OH222636   5.781   3.251  14.504 -0.1486 -0.6269 -0.4898
  382TIP3    H122637   5.866   3.252  14.548  0.7703 -0.6018 -2.2142
  382TIP3    H222638   5.779   3.332  14.454 -1.2163 -0.6232 -0.4726
  383TIP3   OH222639   0.644   2.562   1.864 -0.0605 -0.2885 -0.2514
  383TIP3    H122640   0.642   2.552   1.769 -0.8654  0.4542 -0.3218
  383TIP3    H222641   0.575   2.504   1.896  0.1069 -0.4214 -0.1306
  384TIP3   OH222642   4.806   3.724   1.554 -0.2233  0.6353  0.1879
  384TIP3    H122643   4.773   3.651   1.606 -0.1699  0.8215  0.4798
  384TIP3    H222644   4.901   3.724   1.568  0.0590 -0.4709 -1.3650
  385TIP3   OH222645   4.143   3.897  11.651 -0.1349  0.8105 -0.1770
  385TIP3    H122646   4.190   3.976  11.679  1.5904  0.1606 -1.0932
  385TIP3    H222647   4.052   3.914  11.674  0.3850  2.5459  0.7803
  386TIP3   OH222648   6.658   1.245  13.521 -0.0513 -0.6286  0.2714
  386TIP3    H122649   6.702   1.308  13.579  0.6198  0.1804 -1.0723
  386TIP3    H222650   6.576   1.225  13.567 -0.2935  1.2397  0.7665
  387TIP3   OH222651   4.785   6.395  15.171  0.1371  0.8942 -0.1468
  387TIP3    H122652   4.829   6.480  15.168 -0.2789  1.3467  3.0966
  387TIP3    H222653   4.856   6.331  15.165  0.5755  1.4518 -1.2981
  388TIP3   OH222654   5.106   0.254   0.377 -0.2053  0.0856  0.6378
  388TIP3    H122655   5.020   0.213   0.378 -0.5692  0.8007 -0.0144
  388TIP3    H222656   5.101   0.318   0.306  0.8322  0.2078  0.6621
  389TIP3   OH222657   0.599   0.981   2.009  0.4797 -0.5981 -0.0291
  389TIP3    H122658   0.668   0.915   1.996  0.9948  0.1448 -1.2845
  389TIP3    H222659   0.642   1.064   1.989 -0.5679 -0.0357  0.0097
  390TIP3   OH222660   5.179   5.078   6.157  0.1464  0.1832  0.0816
  390TIP3    H122661   5.102   5.023   6.171 -0.9419  1.7550  0.5418
  390TIP3    H222662   5.195   5.119   6.242  2.5775 -1.3951  0.4689
  391TIP3   OH222663   5.859   6.137  15.207  0.4772  0.1443 -0.1316
  391TIP3    H122664   5.789   6.079  15.179 -0.3700  0.5235  1.1313
  391TIP3    H222665   5.896   6.095  15.284  0.0864  1.0973  0.5886
  392TIP3   OH222666   0.995   1.147  11.900  0.3613  0.3395 -0.5984
  392TIP3    H122667   0.945   1.131  11.979  0.6782  0.8165 -0.2980
  392TIP3    H222668   0.990   1.241  11.886  0.9797  0.3661 -0.6892
  393TIP3   OH222669   0.687   4.073  13.766  0.4447  0.1759 -0.3198
  393TIP3    H122670   0.597   4.044  13.774  0.3681  0.7240  0.9511
  393TIP3    H222671   0.681   4.167  13.751  0.8047  0.3057  0.2960
  394TIP3   OH222672   1.758   3.286  11.943 -0.6452  0.4568 -0.1957
  394TIP3    H122673   1.846   3.323  11.952  0.6857 -2.2862 -0.7250
  394TIP3    H222674   1.724   3.282  12.032  0.6916 -0.4099  0.3063
  395TIP3   OH222675   5.327   0.031  14.479  0.9158 -0.1199 -0.0210
  395TIP3    H122676   5.374   0.091  14.538 -1.2377  2.3648 -0.6401
  395TIP3    H222677   5.344   0.066  14.392 -0.7352 -0.1117 -0.3657
  396TIP3   OH222678   2.375   1.021  13.648  0.2038  0.0114 -0.8036
  396TIP3    H122679   2.292   1.066  13.666 -0.6074 -1.7772  0.2066
  396TIP3    H222680   2.370   0.997  13.556 -0.3836 -0.0171 -0.7699
  397TIP3   OH222681   2.283   5.891  11.912 -0.3741  0.0483  0.2209
  397TIP3    H122682   2.267   5.838  11.835 -0.0331 -1.2218  0.9989
  397TIP3    H222683   2.365   5.936  11.895  0.2153 -0.9993  0.2373
  398TIP3   OH222684   3.462   2.814  16.656  0.7754  0.0163 -0.3483
  398TIP3    H122685   3.398   2.885  16.644  0.3538 -0.2158  0.4338
  398TIP3    H222686   3.545   2.859  16.669  0.8844  0.3176 -1.8444
  399TIP3   OH222687   5.575   5.124  11.426  0.0130  0.0308 -0.1529
  399TIP3    H122688   5.650   5.147  11.481  1.5415 -1.7273 -1.3953
  399TIP3    H222689   5.605   5.137  11.336 -1.8127  1.0354 -0.6825
  400TIP3   OH222690   2.305   2.236  12.530  0.2342 -0.8800  0.1321
  400TIP3    H122691   2.297   2.231  12.625 -1.1419 -2.2895 -0.0145
  400TIP3    H222692   2.348   2.153  12.505 -2.2650 -2.0274 -0.6781
  401TIP3   OH222693   2.255   1.832  11.663 -0.5571 -0.4630  0.0990
  401TIP3    H122694   2.188   1.769  11.634  0.2849 -1.0552 -0.6056
  401TIP3    H222695   2.331   1.779  11.685 -0.4650  0.1694  1.3803
  402TIP3   OH222696   4.483   6.006  12.006 -0.6847 -0.5569 -0.0938
  402TIP3    H122697   4.423   6.052  11.947 -1.3572 -0.4489  0.6584
  402TIP3    H222698   4.502   5.924  11.962  0.3729  0.3294 -1.3666
  403TIP3   OH222699   2.283   5.785  15.984  0.2509  0.0612  0.6300
  403TIP3    H122700   2.280   5.845  15.910 -2.5187  0.7297  1.1673
  403TIP3    H222701   2.210   5.726  15.970  1.5687 -1.8178  1.2867
  404TIP3   OH222702   5.321   2.169  12.098 -0.1723 -0.8827 -0.6528
  404TIP3    H122703   5.280   2.211  12.173 -1.9186 -1.4653 -1.2373
  404TIP3    H222704   5.408   2.210  12.092 -0.4221 -0.0354  0.9826
  405TIP3   OH222705   4.823   0.845  10.674 -0.2940  0.0037  0.1117
  405TIP3    H122706   4.789   0.880  10.592 -0.2597 -0.6268 -0.1816
  405TIP3    H222707   4.757   0.781  10.702  0.0723 -0.3605  0.1564
  406TIP3   OH222708   0.743   0.243  16.945 -0.2215  0.7601  0.0798
  406TIP3    H122709   0.713   0.307  17.009  0.7918  0.1836  1.1966
  406TIP3    H222710   0.835   0.228  16.969  0.1041  0.3425 -1.3721
  407TIP3   OH222711   5.911   3.614  14.065 -0.0409  0.1454 -0.1390
  407TIP3    H122712   5.919   3.599  14.159 -0.7576  0.3616 -0.0399
  407TIP3    H222713   5.817   3.608  14.047 -0.2430  2.7259 -0.3737
  408TIP3   OH222714   3.868   2.734  10.808 -0.6091  0.4159  0.5985
  408TIP3    H122715   3.915   2.803  10.761 -1.6891  1.4455  0.9725
  408TIP3    H222716   3.780   2.734  10.770 -1.0573  0.2609  1.5817
  409TIP3   OH222717   1.002   1.033   1.547  0.0055  0.2706 -0.2973
  409TIP3    H122718   1.042   1.111   1.586  1.8134 -0.1650 -1.2008
  409TIP3    H222719   1.062   0.962   1.568 -0.7566 -0.5962 -0.9533
  410TIP3   OH222720   5.896   1.681  15.069  0.4303  0.3768  0.3859
  410TIP3    H122721   5.803   1.675  15.046  0.1633 -0.1121  1.5387
  410TIP3    H222722   5.899   1.745  15.140  1.0777  0.9278 -0.1279
  411TIP3   OH222723   2.086   4.358   0.325 -0.1360 -0.4298 -0.5892
  411TIP3    H122724   2.011   4.321   0.279  0.0510  1.0631 -2.1655
  411TIP3    H222725   2.135   4.406   0.259  1.2772  0.0955  0.7592
  412TIP3   OH222726   0.672   0.591   2.668 -0.0631  0.0073  0.0365
  412TIP3    H122727   0.669   0.498   2.647 -0.4029  0.1600 -0.6114
  412TIP3    H222728   0.756   0.602   2.713 -1.1794 -1.0904  2.5735
  413TIP3   OH222729   5.583   1.916  12.425  0.0406  0.3819  0.4207
  413TIP3    H122730   5.640   1.888  12.496  1.2776 -0.1414 -0.7332
  413TIP3    H222731   5.641   1.962  12.364 -0.9379  0.6276 -0.3563
  414TIP3   OH222732   5.208   1.534  15.239  0.2051 -0.9381  0.4230
  414TIP3    H122733   5.252   1.587  15.172 -0.6996 -0.8871 -0.1450
  414TIP3    H222734   5.239   1.445  15.223  1.0949 -0.7287  0.8620
  415TIP3   OH222735   3.500   2.943   3.241 -0.1750  0.3409 -0.0396
  415TIP3    H122736   3.536   2.905   3.321 -0.7452 -0.1718 -0.0174
  415TIP3    H222737   3.421   2.892   3.224 -0.2031  0.6204 -0.7845
  416TIP3   OH222738   1.422   0.069   5.214 -0.5817 -0.3548  0.3279
  416TIP3    H122739   1.461   0.019   5.142 -3.8166 -1.1756 -1.0629
  416TIP3    H222740   1.453   0.026   5.293  0.4541 -1.5750 -0.6973
  417TIP3   OH222741   6.745   1.482  16.228 -0.3962 -0.1271  0.5005
  417TIP3    H122742   6.768   1.392  16.205  0.3207  0.0604  0.4515
  417TIP3    H222743   6.729   1.525  16.144  0.3441  0.0634  0.4434
  418TIP3   OH222744   6.742   0.731   2.644 -0.0989  0.0822 -0.0052
  418TIP3    H122745   6.686   0.656   2.624  0.0172 -0.5845  1.9826
  418TIP3    H222746   6.823   0.715   2.595 -0.4450 -0.5807 -0.3699
  419TIP3   OH222747   4.376   0.869  12.059 -0.5292  0.0464 -0.2924
  419TIP3    H122748   4.446   0.931  12.079  0.7247 -2.0194  2.3131
  419TIP3    H222749   4.328   0.859  12.142  0.7699 -4.0670  0.1915
  420TIP3   OH222750   1.145   4.328   0.436  0.0266  0.1144 -0.3708
  420TIP3    H122751   1.070   4.373   0.396  0.1246  1.6136  1.0457
  420TIP3    H222752   1.205   4.398   0.460  1.7609 -1.0358 -1.1326
  421TIP3   OH222753   4.891   1.345   4.273 -0.0923 -0.5079  0.0673
  421TIP3    H122754   4.869   1.276   4.211 -3.2603 -0.1211  0.5849
  421TIP3    H222755   4.896   1.424   4.219 -0.6483 -0.5169 -0.0053
  422TIP3   OH222756   3.513   1.898  14.292  0.1811  0.5433  0.7270
  422TIP3    H122757   3.597   1.917  14.249 -0.2475  1.2021  0.1537
  422TIP3    H222758   3.537   1.855  14.374  1.0152 -0.9206 -0.2441
  423TIP3   OH222759   4.329   6.257   4.009 -0.2317  0.2665  0.2071
  423TIP3    H122760   4.350   6.273   3.917 -1.9767  0.4224 -0.1951
  423TIP3    H222761   4.325   6.345   4.048  1.0314  0.1779  0.5842
  424TIP3   OH222762   3.986   2.460  14.890  0.6449 -0.2744  0.5040
  424TIP3    H122763   3.971   2.379  14.940 -0.8594  0.2019  0.8748
  424TIP3    H222764   3.900   2.483  14.856  1.3502  0.3146 -0.9684
  425TIP3   OH222765   1.238   5.270  15.405 -0.0200 -0.1149  0.2907
  425TIP3    H122766   1.309   5.333  15.397  1.0071 -0.9700  2.1612
  425TIP3    H222767   1.242   5.218  15.325  1.5577 -0.2152  0.4163
  426TIP3   OH222768   5.850   6.426  14.690 -0.3285 -0.4695  0.2702
  426TIP3    H122769   5.775   6.396  14.742  0.5382  2.8728  3.8915
  426TIP3    H222770   5.926   6.400  14.742  0.8744 -0.3862 -1.3853
  427TIP3   OH222771   4.204   2.988  15.918  0.0879 -0.2458 -0.1835
  427TIP3    H122772   4.293   3.023  15.908 -0.7260  1.8309 -0.6628
  427TIP3    H222773   4.202   2.952  16.007  1.3399 -0.1774 -0.1077
  428TIP3   OH222774   3.162   4.124   5.092  0.3342  0.1198 -0.3292
  428TIP3    H122775   3.183   4.085   5.007 -0.9563 -0.9750 -0.1927
  428TIP3    H222776   3.152   4.048   5.150 -0.2785  0.7750  0.4338
  429TIP3   OH222777   6.825   1.978   3.289  0.3348 -0.0753  0.4444
  429TIP3    H122778   6.827   1.911   3.357  0.6823 -0.6966 -0.1670
  429TIP3    H222779   6.847   1.932   3.209 -1.0084  0.4542 -0.2672
  430TIP3   OH222780   1.020   2.245   0.128  0.1376  0.7397 -0.1323
  430TIP3    H122781   1.101   2.294   0.116 -0.4884  2.3116  1.5469
  430TIP3    H222782   0.959   2.283   0.064  0.1595  0.9504 -0.0297
  431TIP3   OH222783   6.169   3.106   5.729  0.1700 -0.2182  0.2230
  431TIP3    H122784   6.258   3.088   5.761 -0.1222 -0.1042  1.1381
  431TIP3    H222785   6.153   3.197   5.753  0.3490  0.2302 -1.2824
  432TIP3   OH222786   0.992   5.161   4.739 -0.0954  0.4271 -0.2239
  432TIP3    H122787   1.043   5.109   4.677 -0.3550  0.1628 -0.2175
  432TIP3    H222788   1.020   5.130   4.825  1.1577  1.6313 -0.1590
  433TIP3   OH222789   6.025   0.200   3.977 -0.1750  0.3674  0.0805
  433TIP3    H122790   6.062   0.282   4.011 -1.2130  0.6824  0.4895
  433TIP3    H222791   5.974   0.165   4.050  1.6178 -1.5645  0.5217
  434TIP3   OH222792   6.528   1.806  15.788  0.2163  0.6804  0.3363
  434TIP3    H122793   6.601   1.828  15.847  0.3512  0.4653  0.2478
  434TIP3    H222794   6.517   1.885  15.735  1.8701 -0.0529 -1.1960
  435TIP3   OH222795   3.988   6.326   4.829 -0.0300  0.1560 -0.5072
  435TIP3    H122796   4.002   6.421   4.825 -0.0567  0.2234  0.5825
  435TIP3    H222797   4.050   6.290   4.766  0.4181  0.8610 -0.4859
  436TIP3   OH222798   6.213   4.226  16.057 -0.1825  0.4285 -0.9108
  436TIP3    H122799   6.280   4.194  16.118 -0.4532  0.7056 -0.4669
  436TIP3    H222800   6.146   4.158  16.058 -1.0306  1.2479  0.4737
  437TIP3   OH222801   6.104   1.431  14.933  0.2276  0.2338 -0.1662
  437TIP3    H122802   6.062   1.369  14.874  0.5064 -0.3717  0.2530
  437TIP3    H222803   6.192   1.443  14.897 -0.1358  1.1473 -0.7884
  438TIP3   OH222804   5.429   5.431  14.810  0.1894 -0.3459  0.1961
  438TIP3    H122805   5.408   5.420  14.903 -0.4697 -2.3125 -0.1214
  438TIP3    H222806   5.358   5.384  14.764  2.1316 -2.1377 -1.1645
  439TIP3   OH222807   6.460   0.383   6.012 -0.1812  0.5246 -0.4005
  439TIP3    H122808   6.538   0.427   6.047  0.5028  0.3549 -1.6592
  439TIP3    H222809   6.424   0.335   6.087  1.7382 -0.5337 -0.0872
  440TIP3   OH222810   2.388   4.581  15.172 -0.5875  0.4083  0.1157
  440TIP3    H122811   2.454   4.543  15.230 -2.2835  1.7010  3.1508
  440TIP3    H222812   2.309   4.529  15.190 -1.2381  1.0314 -0.8802
  441TIP3   OH222813   4.264   6.000   3.604 -0.3650 -0.1481 -0.0302
  441TIP3    H122814   4.187   5.944   3.613  1.0125 -2.0985  0.2781
  441TIP3    H222815   4.271   6.018   3.510 -1.2896  0.2211 -0.0325
  442TIP3   OH222816   0.307   1.173   2.225 -0.6100  0.2502  0.4501
  442TIP3    H122817   0.320   1.198   2.133 -2.5848  0.0919  0.0880
  442TIP3    H222818   0.395   1.153   2.256  0.2150  1.0725 -1.1717
  443TIP3   OH222819   5.921   5.780   5.214 -0.4610  0.5794  0.0204
  443TIP3    H122820   5.956   5.770   5.126 -2.5417  0.9893 -0.9032
  443TIP3    H222821   5.903   5.691   5.244  0.1527  0.4471  0.0162
  444TIP3   OH222822   3.777   0.159  15.122 -0.1424  0.4515 -0.3116
  444TIP3    H122823   3.687   0.159  15.154 -0.4102  1.1231 -1.0472
  444TIP3    H222824   3.775   0.106  15.043 -0.1567  1.4935 -1.0277
  445TIP3   OH222825   0.455   2.839   3.731  0.2956  0.2446  0.3265
  445TIP3    H122826   0.460   2.912   3.669  0.8519  0.2451  0.3621
  445TIP3    H222827   0.422   2.765   3.679 -1.1776  0.7461  0.5095
  446TIP3   OH222828   5.027   1.013   5.115 -0.0786 -0.4215  0.0769
  446TIP3    H122829   5.071   0.929   5.129 -0.4178 -0.6943 -0.4631
  446TIP3    H222830   5.097   1.075   5.101  0.1384 -1.1699 -2.5729
  447TIP3   OH222831   3.585   6.036  14.980 -0.0269  0.1058 -0.4226
  447TIP3    H122832   3.491   6.033  14.997 -0.5363  1.2169 -2.6432
  447TIP3    H222833   3.603   6.128  14.960  1.0290 -0.4428 -2.2897
  448TIP3   OH222834   5.153   1.829  11.872 -0.6129 -0.1607  0.1114
  448TIP3    H122835   5.117   1.751  11.915  0.3830 -0.5680  0.2241
  448TIP3    H222836   5.135   1.816  11.779  1.1373 -1.4338 -0.1050
  449TIP3   OH222837   5.487   2.253  13.309  0.1411 -0.1244 -0.2672
  449TIP3    H122838   5.404   2.262  13.262 -0.9411 -1.6959  1.2438
  449TIP3    H222839   5.527   2.340  13.303 -2.6959  1.4062  0.9111
  450TIP3   OH222840   2.122   2.475   1.540 -0.6195  0.0783  0.2444
  450TIP3    H122841   2.120   2.552   1.484  1.1139 -1.3082 -1.8655
  450TIP3    H222842   2.185   2.416   1.499 -0.5071 -1.7414  2.7700
  451TIP3   OH222843   2.312   5.807  11.025  0.1399  0.2219  0.4675
  451TIP3    H122844   2.227   5.779  11.059 -0.1804  0.5176 -0.0653
  451TIP3    H222845   2.290   5.879  10.965  0.4589 -1.5448 -1.9354
  452TIP3   OH222846   2.591   5.679  13.976  0.2579  0.3756  1.0404
  452TIP3    H122847   2.661   5.712  14.033 -0.2843  0.6272  1.5734
  452TIP3    H222848   2.523   5.746  13.979 -0.4991 -0.3835  1.4644
  453TIP3   OH222849   2.118   4.919  12.646 -0.1353 -0.4325  0.0412
  453TIP3    H122850   2.029   4.905  12.611 -0.2829 -1.8429  0.9351
  453TIP3    H222851   2.155   4.831  12.653  1.4248  0.1511 -0.4783
  454TIP3   OH222852   5.631   1.384   3.734 -0.2658 -0.2351  0.0004
  454TIP3    H122853   5.669   1.455   3.786 -1.0835 -0.1665  0.5245
  454TIP3    H222854   5.638   1.414   3.643 -1.5166  0.9860  0.2843
  455TIP3   OH222855   3.942   2.334  15.378 -0.8554 -0.1744 -0.4169
  455TIP3    H122856   3.964   2.401  15.314 -1.8756  0.6546  0.0929
  455TIP3    H222857   3.941   2.379  15.462 -0.2632 -1.0980  0.1143
  456TIP3   OH222858   4.213   5.572   1.980  0.2192  0.3462 -0.1105
  456TIP3    H122859   4.284   5.572   2.044  0.2489  3.2178 -0.0273
  456TIP3    H222860   4.134   5.559   2.032  0.2823  2.2577  0.5594
  457TIP3   OH222861   5.335   2.868  17.155  0.9244  0.5263  0.0014
  457TIP3    H122862   5.308   2.783  17.191 -0.7783  1.3966  0.9015
  457TIP3    H222863   5.301   2.869  17.066  0.1461  0.6065  0.2932
  458TIP3   OH222864   3.734   6.640  11.207 -0.2398  0.1382 -0.2158
  458TIP3    H122865   3.693   6.711  11.157  1.1141  1.6004  0.6722
  458TIP3    H222866   3.822   6.634  11.172  0.4581  0.6100  1.3537
  459TIP3   OH222867   5.757   6.465  13.932  0.5404  0.3316 -0.3281
  459TIP3    H122868   5.819   6.462  13.859  0.0450 -0.8662 -0.7289
  459TIP3    H222869   5.725   6.375  13.939  0.9713  0.2968  1.7276
  460TIP3   OH222870   1.159   6.339  11.492  0.3541  0.2182 -0.7587
  460TIP3    H122871   1.075   6.384  11.487  0.5210  0.7644  0.7190
  460TIP3    H222872   1.174   6.327  11.586  1.2772 -1.1120 -1.0506
  461TIP3   OH222873   3.668   4.467  16.644  0.1812  0.0766  0.4055
  461TIP3    H122874   3.758   4.500  16.653  0.6951  0.2050 -3.3903
  461TIP3    H222875   3.666   4.388  16.697  2.2089  0.5844  1.3669
  462TIP3   OH222876   0.190   3.680  13.579 -0.2900 -0.3678  0.6787
  462TIP3    H122877   0.171   3.588  13.596 -2.1634 -0.8228 -2.8501
  462TIP3    H222878   0.116   3.709  13.525  1.7678  2.3391 -0.8925
  463TIP3   OH222879   6.396   2.525   2.355  0.4649 -0.0913  0.0883
  463TIP3    H122880   6.488   2.551   2.368  0.7310  0.0182 -1.6874
  463TIP3    H222881   6.398   2.470   2.277 -1.2569  1.8702 -1.4773
  464TIP3   OH222882   2.478   3.117   2.674  0.0547 -0.1916  0.2806
  464TIP3    H122883   2.399   3.101   2.725 -0.1272 -1.1210 -0.2662
  464TIP3    H222884   2.447   3.165   2.597 -0.1230 -1.2544 -0.3315
  465TIP3   OH222885   4.540   3.925  14.284  0.0126 -0.6215  0.2127
  465TIP3    H122886   4.495   3.967  14.357 -0.3655 -1.1786  0.3064
  465TIP3    H222887   4.526   3.984  14.210 -0.4108 -0.5209  0.3684
  466TIP3   OH222888   3.038   2.904  12.568  0.4033  0.1099 -0.0890
  466TIP3    H122889   2.996   2.924  12.484 -0.1601 -1.8486 -0.3193
  466TIP3    H222890   3.057   2.990  12.606 -1.7327  1.0772 -1.0132
  467TIP3   OH222891   1.177   4.964  13.367 -0.5900  0.4853 -0.2253
  467TIP3    H122892   1.105   4.912  13.403 -0.4948  1.1987  1.0716
  467TIP3    H222893   1.255   4.933  13.413 -0.5702  1.9000  0.7770
  468TIP3   OH222894   5.799   5.277   3.475 -0.1277 -0.4839 -0.0709
  468TIP3    H122895   5.831   5.192   3.444 -0.5154 -0.4984 -0.4395
  468TIP3    H222896   5.852   5.296   3.552  0.4921 -0.6940 -0.4417
  469TIP3   OH222897   0.634   5.100  11.562 -0.2233 -0.5791  0.2867
  469TIP3    H122898   0.708   5.076  11.506 -1.5802 -2.3129 -0.9052
  469TIP3    H222899   0.636   5.195  11.567  1.8679 -0.5816  0.0285
  470TIP3   OH222900   0.768   2.719   1.338  0.2948  0.3999 -0.2036
  470TIP3    H122901   0.724   2.721   1.253 -1.6241  0.2720  0.7285
  470TIP3    H222902   0.734   2.796   1.384  0.0285 -0.4472  1.0414
  471TIP3   OH222903   6.556   1.426  14.993 -0.1244 -0.3640  0.3283
  471TIP3    H122904   6.509   1.373  14.929 -0.5864  0.0533  0.3212
  471TIP3    H222905   6.536   1.517  14.969  0.1767 -0.1943  0.7061
  472TIP3   OH222906   1.651   5.504  13.178 -0.2173 -0.0043  0.0367
  472TIP3    H122907   1.626   5.433  13.238  2.3057 -1.0119  0.0283
  472TIP3    H222908   1.569   5.552  13.162 -1.2928 -0.5938  3.0602
  473TIP3   OH222909   4.093   0.639   6.146  0.1446 -0.7776 -0.2500
  473TIP3    H122910   4.018   0.678   6.191 -1.8559 -3.1839 -1.2979
  473TIP3    H222911   4.132   0.581   6.211 -1.9693 -3.2634 -1.0339
  474TIP3   OH222912   4.119   3.240  17.261  0.3127 -0.2635 -0.5131
  474TIP3    H122913   4.085   3.181  17.194 -1.4770 -1.1798  1.1133
  474TIP3    H222914   4.112   3.328  17.222 -2.4540 -0.5765 -0.9002
  475TIP3   OH222915   1.099   1.269  16.714  0.0997 -0.0366  0.2638
  475TIP3    H122916   1.132   1.250  16.802 -0.1756 -1.4967  0.0726
  475TIP3    H222917   1.003   1.265  16.724  0.0640  0.0183 -0.0570
  476TIP3   OH222918   1.033   4.484   2.286  0.2935 -0.1313 -0.0204
  476TIP3    H122919   1.054   4.540   2.361 -0.3001 -0.0768  0.1124
  476TIP3    H222920   1.026   4.396   2.322 -1.1444  0.0508  0.2242
  477TIP3   OH222921   1.932   5.838   0.768  0.5488  0.5833 -0.3772
  477TIP3    H122922   1.930   5.823   0.673  0.6288 -0.1052 -0.2680
  477TIP3    H222923   2.005   5.900   0.780  0.8288  0.3271 -0.7160
  478TIP3   OH222924   1.224   4.667   3.716  0.0347 -0.1010 -0.6282
  478TIP3    H122925   1.214   4.735   3.783  0.7290  0.9580 -1.5610
  478TIP3    H222926   1.144   4.615   3.723 -1.4556  1.9711 -1.1481
  479TIP3   OH222927   1.672   0.657   1.978 -0.1087 -0.0396 -0.2762
  479TIP3    H122928   1.736   0.726   1.958 -0.0854 -0.4392 -1.7326
  479TIP3    H222929   1.725   0.581   2.000 -0.1352  0.4792  1.7799
  480TIP3   OH222930   5.428   2.126   2.960 -0.3233  0.6984 -0.4802
  480TIP3    H122931   5.345   2.157   2.923 -1.2914 -0.7350  0.3430
  480TIP3    H222932   5.452   2.051   2.906  0.7760  1.4304 -1.0555
  481TIP3   OH222933   6.121   3.348   4.187 -0.3587 -0.1826  0.1151
  481TIP3    H122934   6.156   3.260   4.200  0.7412  0.3581  1.0089
  481TIP3    H222935   6.028   3.340   4.207 -0.1764 -1.0406  0.6766
  482TIP3   OH222936   5.274   3.502   4.286 -0.0090  0.8052 -0.5350
  482TIP3    H122937   5.302   3.446   4.213 -0.6107 -0.7893  0.4189
  482TIP3    H222938   5.257   3.442   4.358  0.7892  2.3636  1.0287
  483TIP3   OH222939   0.350   6.384   3.499  0.1438  0.2133 -0.2962
  483TIP3    H122940   0.409   6.309   3.506  1.4394  1.1993 -0.0865
  483TIP3    H222941   0.372   6.424   3.414 -1.2423 -0.1956 -0.8716
  484TIP3   OH222942   6.613   1.360  15.827  0.3430 -0.0042 -0.0675
  484TIP3    H122943   6.666   1.431  15.862 -0.2598  0.3598  0.1299
  484TIP3    H222944   6.623   1.367  15.732 -0.1664  0.7096 -0.0739
  485TIP3   OH222945   5.931   0.218  13.256 -0.1814 -0.6591  0.2895
  485TIP3    H122946   6.014   0.266  13.256  0.0741 -1.0872  0.9918
  485TIP3    H222947   5.884   0.251  13.333 -0.8248 -0.1707 -0.2907
  486TIP3   OH222948   6.115   3.910   5.218  0.2289  0.3624 -0.1048
  486TIP3    H122949   6.126   3.962   5.298  1.1082  0.6188 -0.3883
  486TIP3    H222950   6.204   3.884   5.193  0.1170  1.4867 -1.8001
  487TIP3   OH222951   2.673   5.270  16.259 -0.0492 -0.4047  0.2115
  487TIP3    H122952   2.651   5.295  16.349 -1.0791  0.1750 -0.1822
  487TIP3    H222953   2.621   5.192  16.242 -0.6367  0.0764 -0.2153
  488TIP3   OH222954   1.950   5.123  10.870 -0.7916  0.0308 -0.2893
  488TIP3    H122955   2.038   5.137  10.837 -0.7671  0.2508 -0.1346
  488TIP3    H222956   1.892   5.147  10.797 -0.8141  2.6256  0.4705
  489TIP3   OH222957   4.587   6.585  14.002  0.1557  0.1841 -0.1016
  489TIP3    H122958   4.492   6.582  14.007  0.1639  1.2655  3.4566
  489TIP3    H222959   4.616   6.509  14.053  1.2372 -0.3244 -1.4135
  490TIP3   OH222960   5.741   0.367  13.147 -0.6065  0.2013  0.0456
  490TIP3    H122961   5.811   0.304  13.167 -1.5662 -1.2774 -1.0967
  490TIP3    H222962   5.786   0.451  13.144  0.5577 -0.2310  2.5888
  491TIP3   OH222963   2.163   6.007  14.833 -0.4998  0.2690  0.3034
  491TIP3    H122964   2.227   6.029  14.900  0.8266 -3.7826  0.6150
  491TIP3    H222965   2.203   6.034  14.751  0.4943  0.0289  0.7032
  492TIP3   OH222966   6.694   0.788   1.062 -0.2177 -0.6328  0.4181
  492TIP3    H122967   6.757   0.846   1.102 -0.0614 -0.5970  0.1209
  492TIP3    H222968   6.717   0.786   0.969  0.0700 -1.5264  0.4955
  493TIP3   OH222969   2.454   1.581   5.786 -0.2727 -0.0165  0.0451
  493TIP3    H122970   2.534   1.585   5.734 -1.2842 -1.8964 -1.8054
  493TIP3    H222971   2.389   1.629   5.735 -0.4275  1.4422  1.5018
  494TIP3   OH222972   3.839   1.067  17.276  0.7094  0.0054  0.7017
  494TIP3    H122973   3.901   0.994  17.266 -2.0310 -2.3904 -0.0600
  494TIP3    H222974   3.856   1.101  17.364  1.1218 -2.5824  1.7165
  495TIP3   OH222975   2.957   6.417  11.577 -0.6761  0.7699  0.3649
  495TIP3    H122976   3.005   6.495  11.604 -0.7105  0.4834  1.3038
  495TIP3    H222977   2.866   6.435  11.601 -0.7482  0.6091  0.2166
  496TIP3   OH222978   6.492   3.665  11.354  0.0054  0.0427  0.3083
  496TIP3    H122979   6.580   3.629  11.349  0.0634  0.2495 -0.2834
  496TIP3    H222980   6.435   3.589  11.343  0.1262  0.0696 -0.6738
  497TIP3   OH222981   1.472   3.730  13.265 -0.2032  0.4946 -0.2360
  497TIP3    H122982   1.471   3.796  13.195  1.1228 -0.5463 -1.2844
  497TIP3    H222983   1.418   3.768  13.335  1.7440  3.4010 -0.1619
  498TIP3   OH222984   2.098   2.917   3.480  0.7992 -0.1340  0.1264
  498TIP3    H122985   2.011   2.949   3.504  0.6666 -0.2519 -0.1937
  498TIP3    H222986   2.086   2.878   3.394  1.2455  0.1834 -0.0810
  499TIP3   OH222987   6.663   1.129   1.003 -0.4759 -0.7465 -0.0800
  499TIP3    H122988   6.643   1.175   0.922  0.0462  0.7370  0.5840
  499TIP3    H222989   6.678   1.200   1.067  1.3388 -1.8316  0.7651
  500TIP3   OH222990   4.416   4.486  10.626  0.0624 -0.4184 -0.3970
  500TIP3    H122991   4.375   4.562  10.584  2.6834  1.8017  0.8311
  500TIP3    H222992   4.378   4.411  10.580 -2.1882  1.6080 -2.0985
  501TIP3   OH222993   4.961   4.751   0.080  0.4712 -0.3339 -0.0786
  501TIP3    H122994   4.979   4.686   0.012 -0.0706 -2.1364  1.4132
  501TIP3    H222995   5.047   4.787   0.102  0.7326 -0.2227 -1.2204
  502TIP3   OH222996   1.535   0.209   0.499  0.1953 -0.6353 -0.3896
  502TIP3    H122997   1.616   0.253   0.525  1.0427 -1.9518 -0.6972
  502TIP3    H222998   1.487   0.274   0.448  1.7475 -0.2987 -1.4681
  503TIP3   OH222999   4.794   2.064   5.060 -0.0480 -0.4341  0.7880
  503TIP3    H123000   4.780   1.976   5.027  1.2254 -0.2119 -0.4689
  503TIP3    H223001   4.875   2.093   5.017 -1.1653  1.8406  0.0694
  504TIP3   OH223002   4.201   4.014  12.397  0.3655 -0.0806  0.1372
  504TIP3    H123003   4.154   4.029  12.479 -0.0464  0.9290 -0.2644
  504TIP3    H223004   4.150   4.061  12.331  0.9626 -0.4671 -0.6164
  505TIP3   OH223005   6.707   0.539  14.651  0.6667 -0.0903  0.1617
  505TIP3    H123006   6.724   0.583  14.568 -2.0098  1.2338  0.1967
  505TIP3    H223007   6.648   0.598  14.698  1.3868 -1.1961  2.6666
  506TIP3   OH223008   6.010   1.126  14.524 -0.7875 -0.0978  0.2877
  506TIP3    H123009   5.994   1.056  14.460 -1.6015  0.3587 -0.0282
  506TIP3    H223010   6.022   1.205  14.471 -2.0030  0.3909  0.6845
  507TIP3   OH223011   4.844   0.190  11.884  0.2189 -0.4881 -0.3735
  507TIP3    H123012   4.835   0.182  11.789  2.0778  0.2028 -0.6574
  507TIP3    H223013   4.897   0.269  11.896 -0.6556 -0.1153  1.2865
  508TIP3   OH223014   2.546   6.720  15.461  0.0556  0.1656  0.6502
  508TIP3    H123015   2.479   6.737  15.395 -0.0062  1.1705  0.9559
  508TIP3    H223016   2.497   6.713  15.543  0.2501  0.1368  0.7632
  509TIP3   OH223017   2.361   6.519  13.964 -0.3857 -0.0129 -0.6949
  509TIP3    H123018   2.379   6.468  14.043 -2.6992 -0.4110 -0.3366
  509TIP3    H223019   2.349   6.608  13.996 -0.5975 -0.0442 -0.6819
  510TIP3   OH223020   3.219   1.915  14.210  0.6514  0.1920 -0.1375
  510TIP3    H123021   3.233   1.977  14.139  1.9500 -0.1125 -0.1759
  510TIP3    H223022   3.276   1.841  14.189 -0.3033 -0.7007  0.2924
  511TIP3   OH223023   6.283   4.497  16.631  0.2270  0.4075 -0.0508
  511TIP3    H123024   6.196   4.535  16.621  0.4767  1.6464  2.0113
  511TIP3    H223025   6.269   4.421  16.687  0.0592 -1.3978 -2.3891
  512TIP3   OH223026   4.600   1.676  13.492 -0.4571  0.0683  0.7132
  512TIP3    H123027   4.567   1.671  13.402 -0.3850 -0.8226  0.7225
  512TIP3    H223028   4.532   1.722  13.540 -0.2417  1.0692  0.0938
  513TIP3   OH223029   5.387   4.210  10.973 -0.1692  0.2377  0.7065
  513TIP3    H123030   5.327   4.135  10.978 -0.0431  0.2012  2.4725
  513TIP3    H223031   5.382   4.250  11.060  1.0313  1.2955  0.3192
  514TIP3   OH223032   5.786   6.257  10.665 -0.1864 -0.6071  0.0018
  514TIP3    H123033   5.760   6.336  10.619  0.0890  0.1787  1.1586
  514TIP3    H223034   5.856   6.219  10.611  0.4944  0.5736  0.0297
  515TIP3   OH223035   6.112   0.295   5.861  0.0058  0.1555  0.4372
  515TIP3    H123036   6.050   0.228   5.890  0.4135 -0.0492  0.8635
  515TIP3    H223037   6.117   0.357   5.934 -0.8846  1.0380 -0.2265
  516TIP3   OH223038   6.019   0.117   2.992  0.1984 -0.5508  0.1409
  516TIP3    H123039   6.016   0.213   2.996  0.8839 -0.3514 -2.4044
  516TIP3    H223040   6.098   0.094   3.041 -1.1596 -0.0824  2.7554
  517TIP3   OH223041   3.718   3.848   6.249 -0.2606 -0.0156  0.1598
  517TIP3    H123042   3.683   3.804   6.326 -0.8087  0.5574  0.2520
  517TIP3    H223043   3.713   3.941   6.271  1.4467  0.0941  0.2248
  518TIP3   OH223044   0.277   3.158  16.334 -0.5529  0.1141  0.5650
  518TIP3    H123045   0.214   3.136  16.266 -0.1011 -0.3458  0.2894
  518TIP3    H223046   0.223   3.187  16.408 -1.0503  0.4438  0.0813
  519TIP3   OH223047   4.088   1.966  12.431 -0.5542  0.6714  0.1228
  519TIP3    H123048   4.127   1.927  12.509 -0.9659  2.7030  1.4278
  519TIP3    H223049   4.029   1.899  12.397  1.4422 -1.1844  0.0716
  520TIP3   OH223050   5.617   2.855   3.837  0.3771 -0.5227 -0.0650
  520TIP3    H123051   5.636   2.876   3.746  0.9731  1.0280  0.3900
  520TIP3    H223052   5.579   2.767   3.834  2.0763 -1.2586 -1.6127
  521TIP3   OH223053   6.009   5.764   0.711  0.3148  0.7439 -0.1086
  521TIP3    H123054   6.019   5.818   0.633  1.6719 -0.2647 -0.6555
  521TIP3    H223055   6.085   5.707   0.712 -1.1921 -1.4095  0.2713
  522TIP3   OH223056   1.300   0.120   0.667  0.1246 -0.2118 -0.4806
  522TIP3    H123057   1.359   0.168   0.609 -0.1349  1.0709  0.2656
  522TIP3    H223058   1.291   0.033   0.627  2.1683 -0.2970 -0.8351
  523TIP3   OH223059   0.465   2.128   2.473  0.6271  0.1094 -0.4570
  523TIP3    H123060   0.504   2.045   2.448  0.7298  0.3419 -1.1092
  523TIP3    H223061   0.538   2.180   2.506  0.4642 -0.2544  0.5091
  524TIP3   OH223062   6.002   5.848   3.039  0.1948  0.3239  0.4643
  524TIP3    H123063   6.010   5.796   2.959  1.2290  1.7701 -0.4269
  524TIP3    H223064   5.996   5.939   3.008  1.8767  1.0333  2.0268
  525TIP3   OH223065   3.189   4.779   5.616 -0.3216  0.2957  0.1153
  525TIP3    H123066   3.109   4.808   5.660  0.1917  1.0366  0.5895
  525TIP3    H223067   3.249   4.757   5.687 -0.3899 -1.1258 -0.2330
  526TIP3   OH223068   5.035   4.333   2.230  0.2916  0.3230 -0.7083
  526TIP3    H123069   5.080   4.416   2.212  0.7458  0.2626  0.0773
  526TIP3    H223070   4.945   4.348   2.202  0.6673  0.6354 -1.8045
  527TIP3   OH223071   2.155   5.606   4.492  0.6348 -0.5313 -0.5218
  527TIP3    H123072   2.111   5.531   4.453 -1.1753 -0.6112  1.4954
  527TIP3    H223073   2.247   5.582   4.493  0.5690 -1.2132 -3.0461
  528TIP3   OH223074   3.575   1.130   3.101 -0.1441 -0.1469  0.1319
  528TIP3    H123075   3.567   1.181   3.181  0.5193  0.0748  0.0591
  528TIP3    H223076   3.527   1.181   3.035 -0.3560 -0.1354  0.2930
  529TIP3   OH223077   2.889   3.189   0.606  0.2329  0.2840  0.4105
  529TIP3    H123078   2.803   3.226   0.627 -0.8346 -0.5946 -2.0535
  529TIP3    H223079   2.932   3.257   0.554  0.4573  0.1744  0.4518
  530TIP3   OH223080   5.583   1.994   1.135  0.2712 -0.0860  0.1549
  530TIP3    H123081   5.599   2.032   1.221  0.6774 -0.3026  0.1790
  530TIP3    H223082   5.670   1.983   1.097  0.2026 -1.2731  0.2780
  531TIP3   OH223083   1.777   0.701  10.807  0.1323 -0.1877 -0.3768
  531TIP3    H123084   1.737   0.783  10.836 -1.0841 -1.4634  1.8559
  531TIP3    H223085   1.870   0.722  10.795 -0.2055  1.5489 -0.1167
  532TIP3   OH223086   0.303   5.369   5.211 -0.5085 -0.3474  0.2452
  532TIP3    H123087   0.321   5.313   5.286 -0.4504  0.5031  0.8834
  532TIP3    H223088   0.378   5.357   5.152  0.4692  0.5262  1.2735
  533TIP3   OH223089   6.698   3.435   4.713 -0.1274 -0.5093  0.1971
  533TIP3    H123090   6.792   3.416   4.722  0.2422  0.8590 -0.4606
  533TIP3    H223091   6.670   3.383   4.638  0.3766 -0.0932 -0.2895
  534TIP3   OH223092   6.130   1.260  12.735  0.1754 -0.3423 -0.1856
  534TIP3    H123093   6.168   1.180  12.770  1.1113  0.4651  0.7112
  534TIP3    H223094   6.079   1.296  12.808 -0.4560 -0.2524 -0.6637
  535TIP3   OH223095   2.629   2.532  13.011 -0.2450  0.0322 -0.9698
  535TIP3    H123096   2.655   2.519  13.102  0.4302 -1.7748 -1.3861
  535TIP3    H223097   2.562   2.601  13.015 -0.2400 -0.0214  0.8835
  536TIP3   OH223098   0.086   5.465   2.812 -0.0326  0.0209  0.0304
  536TIP3    H123099   0.060   5.385   2.857  0.7236 -0.0437  0.3641
  536TIP3    H223100   0.036   5.535   2.855  0.1938 -0.1212  0.5198
  537TIP3   OH223101   0.032   2.069   5.366  0.4600 -0.2197  0.5501
  537TIP3    H123102   0.018   1.986   5.411 -0.5666 -1.4614 -1.8800
  537TIP3    H223103  -0.054   2.111   5.365  0.8660  0.6800  1.3233
  538TIP3   OH223104   4.445   3.771  13.531  0.0747 -0.4244  0.0606
  538TIP3    H123105   4.508   3.699  13.519  1.4129  0.3458  1.9910
  538TIP3    H223106   4.461   3.829  13.457  0.5371 -1.0099 -0.3138
  539TIP3   OH223107   4.737   5.506  14.004 -0.0703 -0.4276 -0.2297
  539TIP3    H123108   4.813   5.469  14.049  0.4351 -0.4195 -1.0644
  539TIP3    H223109   4.707   5.436  13.946 -0.3427 -0.2264 -0.3337
  540TIP3   OH223110   0.481   5.828   3.819 -0.2561 -0.2199  0.8780
  540TIP3    H123111   0.564   5.868   3.792  0.1592 -0.8505  1.1935
  540TIP3    H223112   0.457   5.877   3.898 -0.1389 -0.0903  0.8350
  541TIP3   OH223113   0.097   0.172  14.002 -0.6369 -0.2152  0.4316
  541TIP3    H123114   0.135   0.120  13.931  0.6410  2.9376 -1.3692
  541TIP3    H223115   0.003   0.173  13.983 -0.2637  1.0165 -1.6178
  542TIP3   OH223116   1.286   6.239   4.759  0.2303  0.2201  0.0687
  542TIP3    H123117   1.283   6.162   4.701  5.0773 -0.0843 -0.2304
  542TIP3    H223118   1.277   6.313   4.700  0.3080 -0.1364 -0.4046
  543TIP3   OH223119   1.710   3.336   6.247  0.0554 -0.1704  0.4401
  543TIP3    H123120   1.771   3.366   6.180 -0.5704 -0.4770 -0.2760
  543TIP3    H223121   1.663   3.263   6.207  0.8225 -1.4710  1.7911
  544TIP3   OH223122   6.449   2.964   0.532  0.1749 -0.6168  0.1038
  544TIP3    H123123   6.395   3.043   0.520  0.8404 -0.3163 -1.0508
  544TIP3    H223124   6.405   2.916   0.602 -1.8262 -0.5573 -1.0315
  545TIP3   OH223125   4.689   0.099  10.719  0.1987  0.2733  0.2697
  545TIP3    H123126   4.608   0.114  10.670  0.1430 -2.1630 -0.4967
  545TIP3    H223127   4.756   0.084  10.653  1.4239  2.4801  0.8876
  546TIP3   OH223128   0.567   0.587   4.286  0.2738  0.1270  0.0133
  546TIP3    H123129   0.644   0.534   4.308 -0.3129 -1.4193 -1.4490
  546TIP3    H223130   0.495   0.524   4.283 -0.8673  1.3773  0.3094
  547TIP3   OH223131   4.954   6.631   1.437  0.4378 -0.4492 -0.6252
  547TIP3    H123132   4.907   6.576   1.500 -0.2356  0.6281 -0.1732
  547TIP3    H223133   5.025   6.575   1.406  1.8636 -0.4969  2.3346
  548TIP3   OH223134   5.862   5.814  12.430 -0.1139 -0.1788 -0.0435
  548TIP3    H123135   5.803   5.787  12.500 -1.4388  0.2910 -0.9362
  548TIP3    H223136   5.804   5.837  12.357  0.9774  2.9727 -0.0762
  549TIP3   OH223137   1.703   5.886   2.814  0.1692  0.2348  0.3563
  549TIP3    H123138   1.754   5.848   2.885 -1.1823 -0.5197  0.9714
  549TIP3    H223139   1.649   5.953   2.857  0.8894  1.2952 -0.3432
  550TIP3   OH223140   6.683   2.337   1.174 -0.2651 -0.1460  0.1849
  550TIP3    H123141   6.660   2.255   1.130 -2.5121 -0.9294  2.6005
  550TIP3    H223142   6.775   2.327   1.197 -0.8194 -2.6398  1.6072
  551TIP3   OH223143   1.661   5.757   3.196  0.0883 -0.3751  0.1327
  551TIP3    H123144   1.638   5.675   3.151  0.6054 -0.3038 -0.2773
  551TIP3    H223145   1.613   5.753   3.279 -1.0454 -0.4171 -0.5069
  552TIP3   OH223146   0.732   6.140  13.244 -0.3442 -0.2128  0.3192
  552TIP3    H123147   0.818   6.182  13.240 -0.0763 -0.7869  0.0451
  552TIP3    H223148   0.673   6.211  13.270 -0.1204  0.6595 -1.4086
  553TIP3   OH223149   0.712   3.227   4.058  0.2900  0.0025  0.4431
  553TIP3    H123150   0.805   3.240   4.039  0.3280  1.6309  1.5296
  553TIP3    H223151   0.701   3.132   4.059  1.7097 -0.2216 -0.6775
  554TIP3   OH223152   3.037   3.867   3.677 -0.3279  0.5804 -0.2756
  554TIP3    H123153   3.087   3.910   3.746  2.4383 -1.5075 -0.8025
  554TIP3    H223154   2.987   3.800   3.722  0.9606 -0.3370 -0.1502
  555TIP3   OH223155   5.711   2.686  13.683  0.2513  0.0926  0.3472
  555TIP3    H123156   5.710   2.618  13.616 -0.3834  1.0997 -0.7020
  555TIP3    H223157   5.804   2.707  13.695  0.3224  0.7919 -1.1851
  556TIP3   OH223158   5.180   2.669   4.720 -0.0509  0.1328 -0.0584
  556TIP3    H123159   5.164   2.578   4.698  0.4483  0.3125 -1.2124
  556TIP3    H223160   5.107   2.717   4.681 -0.5101  0.2030  0.8583
  557TIP3   OH223161   2.814   5.643  16.415 -0.1871  0.6153  0.2647
  557TIP3    H123162   2.730   5.685  16.396  0.1606  1.7850  1.1987
  557TIP3    H223163   2.848   5.690  16.491  0.4332 -1.0911  1.1065
  558TIP3   OH223164   2.266   2.471   2.507 -0.0440 -0.6232  0.5318
  558TIP3    H123165   2.360   2.492   2.509 -0.0751  0.7241 -3.2779
  558TIP3    H223166   2.257   2.411   2.433 -2.0016 -2.3726  2.0821
  559TIP3   OH223167   0.139   6.366   1.850 -0.1003  0.0847 -0.4961
  559TIP3    H123168   0.170   6.338   1.764 -1.2371  0.9177 -1.2197
  559TIP3    H223169   0.145   6.462   1.848  1.4940  0.0713  1.0335
  560TIP3   OH223170   1.003   2.374  13.880 -0.1312 -0.0313 -0.3566
  560TIP3    H123171   0.980   2.450  13.827  0.3710  0.6353  0.3580
  560TIP3    H223172   1.010   2.302  13.817  3.1292  1.2515 -1.6617
  561TIP3   OH223173   4.406   2.378  13.353  0.0040  0.1940  0.0633
  561TIP3    H123174   4.339   2.342  13.410 -0.0866  0.0153 -0.1536
  561TIP3    H223175   4.431   2.461  13.394  1.1403 -0.7003  1.2863
  562TIP3   OH223176   4.836   2.657   3.173  0.1708  0.6403 -0.8193
  562TIP3    H123177   4.865   2.566   3.174 -2.4245 -0.2658 -0.9771
  562TIP3    H223178   4.902   2.702   3.120  1.8545 -0.9846 -0.2185
  563TIP3   OH223179   4.403   0.109  16.365 -0.2787  0.5704 -0.4309
  563TIP3    H123180   4.467   0.164  16.320 -0.0570 -0.1245 -0.9864
  563TIP3    H223181   4.385   0.155  16.446 -0.1389  1.4864 -0.9084
  564TIP3   OH223182   0.907   1.160   2.797 -0.0372  0.4023  0.3104
  564TIP3    H123183   0.962   1.089   2.830 -0.5998 -0.3068 -0.2367
  564TIP3    H223184   0.836   1.115   2.750 -1.0139  1.2837  0.8952
  565TIP3   OH223185   4.485   4.133  14.116  0.1574 -1.0729 -0.2505
  565TIP3    H123186   4.532   4.189  14.054  1.7113 -0.1765  1.6028
  565TIP3    H223187   4.465   4.191  14.190  0.9321 -2.6971  1.3146
  566TIP3   OH223188   4.037   6.749   2.005 -0.3731  0.1953 -0.0824
  566TIP3    H123189   4.072   6.835   2.028 -0.1645 -0.4409  2.1654
  566TIP3    H223190   3.975   6.768   1.934 -0.8603  2.3173  0.8064
  567TIP3   OH223191   3.975   5.968  10.731  0.0976  0.2985  0.0386
  567TIP3    H123192   4.068   5.983  10.710  0.3686 -0.5461  0.5850
  567TIP3    H223193   3.933   6.052  10.712  0.0824 -0.5155 -4.8764
  568TIP3   OH223194   0.315   2.784  14.780 -0.8376 -0.4368 -0.1333
  568TIP3    H123195   0.295   2.721  14.849 -0.9560  0.4674  0.6814
  568TIP3    H223196   0.252   2.766  14.711 -0.7430 -1.3288 -0.0025
  569TIP3   OH223197   1.342   0.826   1.625  0.4660  0.6886 -0.3680
  569TIP3    H123198   1.249   0.808   1.613  1.0364 -2.9019 -0.5602
  569TIP3    H223199   1.357   0.906   1.576 -2.3119  0.7702 -1.2871
  570TIP3   OH223200   0.291   5.203   3.151 -0.2390 -0.1616  0.0851
  570TIP3    H123201   0.231   5.261   3.197 -2.2965 -0.7983 -1.6526
  570TIP3    H223202   0.274   5.218   3.058  2.7388  0.0136 -0.5442
  571TIP3   OH223203   5.552   6.739  15.407 -0.5011  0.0831 -0.3953
  571TIP3    H123204   5.543   6.774  15.319 -1.5261  1.1143  0.0972
  571TIP3    H223205   5.589   6.811  15.458  1.6020 -0.9874 -0.2675
  572TIP3   OH223206   0.616   4.083   4.563  0.3427  0.6025 -0.5673
  572TIP3    H123207   0.702   4.109   4.595 -0.7424  2.2362  1.2822
  572TIP3    H223208   0.560   4.086   4.641 -0.9844 -2.5228 -1.2825
  573TIP3   OH223209   1.974   3.214   5.671  0.2467  0.1372  0.1968
  573TIP3    H123210   2.011   3.238   5.756 -0.7686 -1.0611  1.0097
  573TIP3    H223211   1.959   3.297   5.626 -1.4716  0.9663  2.1582
  574TIP3   OH223212   6.632   4.876  14.421 -0.7207 -0.1517  0.0022
  574TIP3    H123213   6.633   4.897  14.327 -1.0911  1.3502  0.3099
  574TIP3    H223214   6.695   4.936  14.460 -0.2703 -1.0376  0.6863
  575TIP3   OH223215   6.735   1.252   3.837 -0.1408  0.0533 -0.0758
  575TIP3    H123216   6.729   1.179   3.899 -0.0532 -0.6097 -0.8180
  575TIP3    H223217   6.784   1.215   3.763 -0.8647  0.6024 -0.8428
  576TIP3   OH223218   2.905   5.436  14.624 -0.4623 -0.4066 -0.0016
  576TIP3    H123219   2.836   5.436  14.557  0.7944 -2.4983 -1.4127
  576TIP3    H223220   2.974   5.381  14.587  1.8786  1.3355  1.4909
  577TIP3   OH223221   6.063   5.209  11.243 -0.2836  0.3541 -0.3356
  577TIP3    H123222   6.037   5.194  11.152 -0.1709 -1.0632 -0.1491
  577TIP3    H223223   6.158   5.220  11.240 -0.2671  0.1973 -0.3744
  578TIP3   OH223224   2.328   1.012   3.323 -0.1996 -0.5216  0.1727
  578TIP3    H123225   2.414   1.037   3.358 -0.2242  0.4602 -0.4299
  578TIP3    H223226   2.306   0.931   3.369  0.3718  0.0093  1.4164
  579TIP3   OH223227   2.075   5.984   3.153  0.3759  0.1155  0.3352
  579TIP3    H123228   2.113   6.029   3.229  3.8417  1.5015 -1.9647
  579TIP3    H223229   2.008   6.044   3.120  1.8194  1.5528 -0.0914
  580TIP3   OH223230   4.223   0.302  11.374 -0.0272  0.2192 -0.4574
  580TIP3    H123231   4.283   0.231  11.397  0.6694  0.3657 -1.7353
  580TIP3    H223232   4.136   0.266  11.393  0.3041 -1.0311 -1.1211
  581TIP3   OH223233   5.201   6.764   0.391 -0.2123  0.0048 -0.1678
  581TIP3    H123234   5.229   6.683   0.433  0.1189 -0.5025 -1.3110
  581TIP3    H223235   5.191   6.827   0.463 -1.5716 -1.3370  0.8698
  582TIP3   OH223236   1.619   1.501   1.046 -0.3840  0.7421  0.0823
  582TIP3    H123237   1.653   1.566   1.107 -0.8196  1.1402 -0.0956
  582TIP3    H223238   1.579   1.552   0.975 -0.8402  0.2879  0.0033
  583TIP3   OH223239   5.120   1.779  11.589 -0.1234 -0.0149 -0.2446
  583TIP3    H123240   5.145   1.816  11.504  1.2390 -1.7589 -0.6630
  583TIP3    H223241   5.036   1.737  11.573 -0.3853  0.5831 -0.4512
  584TIP3   OH223242   6.487   1.589  11.275 -0.0151  0.1765 -0.5380
  584TIP3    H123243   6.422   1.573  11.343  1.7027 -1.1881  0.8765
  584TIP3    H223244   6.482   1.512  11.218  0.0817  0.2636 -0.6660
  585TIP3   OH223245   5.572   6.746   4.954 -0.5676 -0.2431 -0.4971
  585TIP3    H123246   5.560   6.833   4.991  1.5048  1.4636 -3.4416
  585TIP3    H223247   5.650   6.712   4.999  0.1238  0.5261 -1.0885
  586TIP3   OH223248   3.329   6.088  14.434 -0.2002  0.7134  0.2027
  586TIP3    H123249   3.315   6.172  14.477  1.2800  0.0458  2.1253
  586TIP3    H223250   3.399   6.047  14.484 -1.2420 -1.9092 -0.3631
  587TIP3   OH223251   0.143   4.735  14.200 -0.7107 -0.2468 -0.2840
  587TIP3    H123252   0.101   4.717  14.285  0.7538 -0.3116  0.4632
  587TIP3    H223253   0.202   4.808  14.218 -0.7041  0.0157 -1.3641
  588TIP3   OH223254   3.240   0.971  15.015  0.4985  0.6066  0.4739
  588TIP3    H123255   3.274   0.898  14.963  1.3773  1.5613 -0.3359
  588TIP3    H223256   3.155   0.991  14.976  0.9903  1.0792 -0.3648
  589TIP3   OH223257   0.651   5.110   2.904  0.1138  0.4976  0.8532
  589TIP3    H123258   0.653   5.091   2.810  1.4501 -0.4613  1.0485
  589TIP3    H223259   0.625   5.202   2.909 -0.5496  0.4060 -0.4157
  590TIP3   OH223260   0.097   4.694  11.129 -0.0723 -0.6816  0.1069
  590TIP3    H123261   0.088   4.624  11.063  1.1530 -0.9254  0.1804
  590TIP3    H223262   0.128   4.770  11.079  1.5084 -1.0549  0.4802
  591TIP3   OH223263   6.297   1.884  14.048  0.2788  0.1361  0.4560
  591TIP3    H123264   6.274   1.893  13.956  1.0220  0.9485  0.3372
  591TIP3    H223265   6.321   1.792  14.059  1.8692  0.3950 -0.5731
  592TIP3   OH223266   3.582   4.377   3.133 -0.4975 -0.4879  0.0914
  592TIP3    H123267   3.560   4.470   3.124 -2.3488 -0.9477 -0.7689
  592TIP3    H223268   3.668   4.376   3.174 -0.9911  1.6002  1.3435
  593TIP3   OH223269   5.327   3.086  12.178  0.2140 -0.5855  0.9011
  593TIP3    H123270   5.330   3.177  12.150 -1.1039 -0.7330  0.1884
  593TIP3    H223271   5.294   3.038  12.102 -0.6383 -1.4235  1.7575
  594TIP3   OH223272   2.720   5.782   5.555  0.2190  0.3829 -0.1213
  594TIP3    H123273   2.725   5.862   5.608 -1.2497 -0.7008  1.8031
  594TIP3    H223274   2.642   5.795   5.500  1.3333  1.2066 -1.5730
  595TIP3   OH223275   3.188   6.484  11.134  0.6405  0.3101  0.0519
  595TIP3    H123276   3.130   6.515  11.064  0.5058 -0.4325 -0.1727
  595TIP3    H223277   3.132   6.481  11.212  0.5340  0.1776 -0.0304
  596TIP3   OH223278   6.600   5.713   4.021  0.3312  0.1732 -0.2062
  596TIP3    H123279   6.595   5.634   3.966 -1.8074 -0.0720  0.2292
  596TIP3    H223280   6.509   5.741   4.029  0.7450  1.0381  2.0414
  597TIP3   OH223281   2.013   0.670   0.286 -0.3198 -0.0606  0.1785
  597TIP3    H123282   2.025   0.630   0.200  1.0385  0.7969 -0.0685
  597TIP3    H223283   1.937   0.727   0.275  0.5456  0.9513 -0.8308
  598TIP3   OH223284   2.721   1.218   3.707  0.4425  0.2084 -0.0147
  598TIP3    H123285   2.786   1.198   3.639  0.5404  0.0821  0.1157
  598TIP3    H223286   2.764   1.281   3.764  0.8990 -0.7597  0.7533
  599TIP3   OH223287   5.141   6.645  17.209  0.2862  0.4566 -0.0659
  599TIP3    H123288   5.176   6.720  17.258  1.6148 -0.0034 -0.2657
  599TIP3    H223289   5.138   6.675  17.118 -0.2319  0.6189 -0.0032
  600TIP3   OH223290   2.367   0.507   1.938  0.1416  0.1688 -0.1884
  600TIP3    H123291   2.328   0.591   1.963  0.2315  0.0736  0.2720
  600TIP3    H223292   2.293   0.451   1.916 -0.0176 -0.1428  1.0838
  601TIP3   OH223293   1.307   3.292   3.330 -0.1405  0.7299 -0.1903
  601TIP3    H123294   1.355   3.368   3.298  0.0924  1.3932  1.5732
  601TIP3    H223295   1.215   3.320   3.330 -0.8754 -0.8784 -4.5212
  602TIP3   OH223296   1.316   6.491   2.369  0.0843 -0.2476 -0.0301
  602TIP3    H123297   1.274   6.471   2.285 -0.0883  1.0133 -0.2638
  602TIP3    H223298   1.408   6.502   2.347  0.0148  0.2426 -0.0975
  603TIP3   OH223299   5.715   3.195  11.573 -0.3542 -0.1826  0.3989
  603TIP3    H123300   5.620   3.189  11.587 -0.1588 -0.5483  1.7673
  603TIP3    H223301   5.729   3.159  11.486 -1.5008  0.1159  0.0720
  604TIP3   OH223302   0.686   5.840   5.437  0.2701 -0.6029  0.1797
  604TIP3    H123303   0.601   5.875   5.408  0.8020  0.4642 -0.1410
  604TIP3    H223304   0.722   5.799   5.359  0.0373 -1.0860  0.3247
  605TIP3   OH223305   3.491   1.124   4.847 -0.1095  0.3050  0.8532
  605TIP3    H123306   3.420   1.182   4.877 -0.4107  1.1233 -1.3122
  605TIP3    H223307   3.571   1.174   4.863 -0.2820  0.8293  0.0977
  606TIP3   OH223308   3.832   6.639  11.980 -0.5910  0.3721  0.4222
  606TIP3    H123309   3.806   6.580  11.910 -2.6234  0.8165  0.7458
  606TIP3    H223310   3.917   6.606  12.009 -0.6994 -1.0857 -0.8080
  607TIP3   OH223311   6.015   3.440   3.901  0.2848  0.5208 -0.1738
  607TIP3    H123312   5.997   3.390   3.822 -1.9412  0.6122  0.2165
  607TIP3    H223313   6.010   3.376   3.972 -1.4501  1.0439  0.2164
  608TIP3   OH223314   0.805   1.607   5.604  0.1344 -0.1052 -0.6366
  608TIP3    H123315   0.852   1.639   5.527  1.5764 -0.1686  0.1777
  608TIP3    H223316   0.782   1.686   5.653  0.7468 -0.1327 -0.2903
  609TIP3   OH223317   5.239   2.278   4.001 -0.6037  0.2021  0.3588
  609TIP3    H123318   5.276   2.240   4.080  1.4165 -0.2390 -0.7155
  609TIP3    H223319   5.315   2.294   3.945 -1.7583  2.4466 -0.6744
  610TIP3   OH223320   6.605   4.094  17.211 -0.0365 -0.9047 -0.2251
  610TIP3    H123321   6.612   4.058  17.123 -1.1168  0.1747 -0.7873
  610TIP3    H223322   6.511   4.108  17.223  0.0123 -1.7411  1.4090
  611TIP3   OH223323   1.538   6.279  15.387  0.0914  0.6375  0.3369
  611TIP3    H123324   1.458   6.259  15.436 -1.1936  0.7011 -1.6164
  611TIP3    H223325   1.605   6.224  15.427 -1.1817 -0.2278  1.3556
  612TIP3   OH223326   0.070   4.398  11.310  0.3741  0.9990 -0.3231
  612TIP3    H123327   0.025   4.426  11.390  1.1588  3.7459 -0.7237
  612TIP3    H223328   0.001   4.362  11.254 -0.1675 -1.1217  1.5589
  613TIP3   OH223329   5.909   2.093  14.889  0.1141  0.0540 -0.3727
  613TIP3    H123330   5.844   2.032  14.856 -0.7476  0.9594 -0.4062
  613TIP3    H223331   5.875   2.180  14.866  1.0657  0.5698  0.0824
  614TIP3   OH223332   4.787   3.499  16.060  0.2962 -0.0272 -0.0902
  614TIP3    H123333   4.832   3.453  15.989  1.3147 -2.0894  1.7480
  614TIP3    H223334   4.838   3.477  16.138 -3.1673 -1.5676  1.9901
  615TIP3   OH223335   2.035   1.919   4.583  0.5634  0.3826  0.3779
  615TIP3    H123336   1.992   1.852   4.530 -1.5496  2.4417 -0.7214
  615TIP3    H223337   2.067   1.983   4.519  2.1862  0.6682  1.4035
  616TIP3   OH223338   0.640   1.692   1.069  0.1192 -0.0252  0.2817
  616TIP3    H123339   0.665   1.617   1.124 -1.8920 -1.4895 -0.6916
  616TIP3    H223340   0.546   1.683   1.057  0.0750  1.7768 -1.2125
  617TIP3   OH223341   0.955   6.315   2.452 -0.4401 -0.0222 -0.4335
  617TIP3    H123342   0.990   6.363   2.527  0.1339 -0.5075 -0.3846
  617TIP3    H223343   0.871   6.280   2.483  1.0203 -2.5380  0.9432
  618TIP3   OH223344   1.655   2.112   3.625  0.7370 -0.3734 -0.5367
  618TIP3    H123345   1.570   2.073   3.608  1.4479 -2.3411  0.1215
  618TIP3    H223346   1.640   2.206   3.622 -1.5123 -0.6766 -0.1096
  619TIP3   OH223347   3.881   0.642  12.674 -0.0006 -0.4545 -0.1917
  619TIP3    H123348   3.845   0.676  12.756 -0.5665 -0.1499 -0.5653
  619TIP3    H223349   3.971   0.675  12.673 -0.0277 -0.3536  0.2468
  620TIP3   OH223350   3.750   1.506   6.492  0.4917 -0.0092 -0.5313
  620TIP3    H123351   3.796   1.541   6.568  2.0019 -0.4938 -1.1921
  620TIP3    H223352   3.723   1.418   6.520  1.1280 -0.2239 -0.5646
  621TIP3   OH223353   1.536   1.820  15.281  0.4923  0.2454 -0.2774
  621TIP3    H123354   1.469   1.870  15.234  1.8833  2.6354  0.1074
  621TIP3    H223355   1.612   1.877  15.282  1.7170 -1.2971  1.5810
  622TIP3   OH223356   4.977   1.244  11.570 -0.4664 -0.7240  0.2693
  622TIP3    H123357   4.910   1.276  11.629 -2.8551 -2.0519 -1.5576
  622TIP3    H223358   4.976   1.148  11.580 -0.4596 -0.9350 -1.3598
  623TIP3   OH223359   3.451   3.645  16.765 -0.3551  0.3458 -0.1315
  623TIP3    H123360   3.411   3.560  16.743  0.6814 -0.9480  2.5006
  623TIP3    H223361   3.376   3.702  16.781 -1.1345 -0.7093  0.1657
  624TIP3   OH223362   1.767   0.464   4.788 -0.0863  0.8494  0.1270
  624TIP3    H123363   1.686   0.414   4.778  1.3442 -1.1274 -3.2078
  624TIP3    H223364   1.760   0.534   4.724  0.4805  1.2625  0.5076
  625TIP3   OH223365   3.016   4.319  11.594  0.0363 -0.3963  0.8544
  625TIP3    H123366   2.982   4.350  11.510 -0.7855  0.0406  1.3457
  625TIP3    H223367   2.946   4.335  11.657  0.7814 -0.3687  1.7045
  626TIP3   OH223368   0.887   2.720   4.751  0.1923 -0.2455 -0.4297
  626TIP3    H123369   0.842   2.735   4.834 -0.7295  0.0158 -0.9580
  626TIP3    H223370   0.980   2.730   4.771 -0.0515  0.3177  0.4564
  627TIP3   OH223371   2.034   5.666   2.341  0.0689  0.2038  0.2033
  627TIP3    H123372   1.982   5.729   2.291  0.3271  1.7045  1.7229
  627TIP3    H223373   1.975   5.638   2.412  0.1754 -0.8002 -0.0961
  628TIP3   OH223374   5.627   3.634  14.035  0.8708 -0.2266 -0.3109
  628TIP3    H123375   5.594   3.691  13.966 -1.2502 -0.6424  0.3102
  628TIP3    H223376   5.567   3.646  14.108  2.2139 -0.9128  0.9645
  629TIP3   OH223377   5.783   0.386  16.686 -0.3699 -0.3989 -0.0617
  629TIP3    H123378   5.739   0.460  16.644  0.2326 -0.1016 -0.1919
  629TIP3    H223379   5.847   0.357  16.621  0.9074  0.3675  0.8139
  630TIP3   OH223380   0.799   4.618   3.036  0.4585  0.3222 -0.4438
  630TIP3    H123381   0.773   4.532   3.005 -0.7762  1.0730 -1.6223
  630TIP3    H223382   0.786   4.615   3.131  1.5371 -1.1170 -0.3174
  631TIP3   OH223383   6.301   1.309  14.795 -0.3479 -0.1634 -0.1931
  631TIP3    H123384   6.262   1.244  14.854  0.2383  1.3015  1.9436
  631TIP3    H223385   6.341   1.258  14.725  1.3292 -2.2713  2.1305
  632TIP3   OH223386   3.969   1.902   2.171  0.4049 -0.0676  0.2184
  632TIP3    H123387   3.914   1.944   2.237  1.3789 -0.2939  1.2014
  632TIP3    H223388   3.996   1.820   2.212  1.2906 -0.0590 -0.3395
  633TIP3   OH223389   0.702   1.057  11.270  0.2874 -0.1134  0.1235
  633TIP3    H123390   0.730   1.139  11.229  0.0188  0.5501  1.2389
  633TIP3    H223391   0.633   1.082  11.331  2.5916 -0.6192  3.1429
  634TIP3   OH223392   3.897   2.241   4.839  0.2841  0.1259  0.3647
  634TIP3    H123393   3.843   2.161   4.841  0.4775 -0.0899 -1.5028
  634TIP3    H223394   3.930   2.249   4.928 -0.3981 -1.4301  0.8009
  635TIP3   OH223395   6.800   4.890  16.023 -0.0900  0.0941 -0.0027
  635TIP3    H123396   6.853   4.962  15.990  0.5870 -0.3961 -0.0017
  635TIP3    H223397   6.779   4.837  15.945 -1.3014  0.7402 -0.1357
  636TIP3   OH223398   1.586   2.030  17.029 -0.4775  0.0050 -0.1214
  636TIP3    H123399   1.660   1.979  17.063 -0.9854 -0.5363  0.1940
  636TIP3    H223400   1.543   1.971  16.967 -0.4028  0.4670 -0.6149
  637TIP3   OH223401   3.774   2.808   4.779 -0.4523 -0.1578 -0.0259
  637TIP3    H123402   3.695   2.754   4.779 -1.0262  0.6455  0.9930
  637TIP3    H223403   3.821   2.783   4.858 -1.2716  1.5336  1.0699
  638TIP3   OH223404   4.320   1.375   3.642  0.4957  0.4694  0.0944
  638TIP3    H123405   4.367   1.358   3.724  1.1780  0.6105 -0.2613
  638TIP3    H223406   4.323   1.292   3.595  1.0445  0.6745 -0.2487
  639TIP3   OH223407   4.667   3.852   0.638  0.0962 -0.5344 -0.4510
  639TIP3    H123408   4.638   3.776   0.588  0.4359 -0.3117 -1.0019
  639TIP3    H223409   4.588   3.906   0.646 -0.2464 -1.1347  0.3128
  640TIP3   OH223410   1.903   4.562  13.643 -0.0987  0.4553 -0.3713
  640TIP3    H123411   1.814   4.577  13.675  0.6252  2.2112  1.0362
  640TIP3    H223412   1.893   4.543  13.550 -1.9365  0.6475 -0.2421
  641TIP3   OH223413   6.072   5.944  11.143  0.0490 -0.1003 -0.1650
  641TIP3    H123414   5.993   5.995  11.126 -0.1971 -0.8330 -1.3683
  641TIP3    H223415   6.088   5.896  11.061  0.5787 -1.5282  0.7345
  642TIP3   OH223416   2.043   4.315  16.102 -0.3147 -0.1200  0.4182
  642TIP3    H123417   2.066   4.294  16.012 -0.1439 -0.8230  0.6167
  642TIP3    H223418   2.101   4.260  16.155 -0.0785  0.6402  0.9656
  643TIP3   OH223419   6.775   5.985   2.737 -0.2738  0.2727 -0.2968
  643TIP3    H123420   6.699   5.945   2.780 -0.8645 -0.2922 -1.7890
  643TIP3    H223421   6.781   6.072   2.776 -1.4259  0.1729  0.1598
  644TIP3   OH223422   0.467   0.349   3.349  0.1660  0.1723  0.0811
  644TIP3    H123423   0.400   0.399   3.395 -1.7924 -1.8306 -0.4153
  644TIP3    H223424   0.479   0.396   3.266 -0.8203  0.4577  0.0858
  645TIP3   OH223425   2.991   2.109  13.182  0.3093  0.0831 -0.5687
  645TIP3    H123426   2.980   2.161  13.103 -0.8118  0.6087 -0.0919
  645TIP3    H223427   2.976   2.019  13.154 -0.5520  0.3121 -0.8888
  646TIP3   OH223428   4.420   2.289  12.260  0.0705 -0.5051  0.0620
  646TIP3    H123429   4.405   2.241  12.178  0.7905  0.5178 -0.6813
  646TIP3    H223430   4.338   2.336  12.275 -0.5287 -1.6829  0.6279
  647TIP3   OH223431   4.217   0.714  11.896 -0.1132 -0.7955 -0.0788
  647TIP3    H123432   4.135   0.754  11.925  0.0893 -0.5269  0.1249
  647TIP3    H223433   4.286   0.763  11.941  0.2514  0.1448 -1.5575
  648TIP3   OH223434   5.773   5.352  13.972 -0.3482  0.6127  0.1051
  648TIP3    H123435   5.778   5.299  13.893  0.1441  2.2447 -1.0174
  648TIP3    H223436   5.799   5.440  13.944 -1.6696  1.6001  1.7629
  649TIP3   OH223437   3.793   2.110   4.549 -0.4163  0.0725 -0.4014
  649TIP3    H123438   3.766   2.095   4.640 -1.2321 -1.7367 -0.8893
  649TIP3    H223439   3.739   2.183   4.520 -0.5317  0.3218  0.4077
  650TIP3   OH223440   4.702   4.940  10.434 -0.0138 -0.4189  0.1820
  650TIP3    H123441   4.748   4.901  10.360  1.4906  1.2027  0.2001
  650TIP3    H223442   4.772   4.971  10.492 -0.9595  3.2754 -0.3883
  651TIP3   OH223443   4.580   0.949  13.562  0.1747 -0.8394 -0.4941
  651TIP3    H123444   4.571   1.040  13.532 -0.9480 -1.1567 -1.2125
  651TIP3    H223445   4.627   0.956  13.645 -1.6950  0.6070  0.5355
  652TIP3   OH223446   6.479   2.058  15.686 -0.0284 -0.1315 -0.3255
  652TIP3    H123447   6.464   2.134  15.742  0.6272 -0.7438  0.7294
  652TIP3    H223448   6.539   2.090  15.618 -0.7858  0.6079 -0.6590
  653TIP3   OH223449   0.531   3.930   5.434 -0.2055  0.6776  0.5265
  653TIP3    H123450   0.562   3.993   5.499  0.0960 -0.2670  1.3293
  653TIP3    H223451   0.489   3.983   5.366  0.6152  1.7738  0.8593
  654TIP3   OH223452   1.127   2.965   6.485 -0.1457 -0.6557  0.1268
  654TIP3    H123453   1.121   3.052   6.446 -1.2406 -0.5506  0.4964
  654TIP3    H223454   1.046   2.921   6.458 -0.5086 -0.8939  1.5148
  655TIP3   OH223455   5.188   2.568   3.459 -0.2990  0.2267 -0.2974
  655TIP3    H123456   5.179   2.555   3.553 -2.2074  0.9735 -0.3415
  655TIP3    H223457   5.181   2.480   3.422  0.6008 -0.0880  0.2398
  656TIP3   OH223458   3.863   4.355  17.234  0.9967 -0.1256 -0.0667
  656TIP3    H123459   3.776   4.361  17.195  0.3657 -1.5908  1.0433
  656TIP3    H223460   3.854   4.293  17.306  2.8916 -0.0748  0.2844
  657TIP3   OH223461   1.911   3.324   2.712  0.4287  0.2009 -0.7888
  657TIP3    H123462   1.853   3.309   2.637  1.4102  0.3405 -1.5911
  657TIP3    H223463   1.973   3.251   2.709 -0.9038 -1.1326  1.2887
  658TIP3   OH223464   4.178   4.179   4.428  0.1632 -0.6730  0.0968
  658TIP3    H123465   4.257   4.221   4.461  0.3482 -0.9546  0.0155
  658TIP3    H223466   4.110   4.246   4.436  0.5682 -0.1763 -0.5353
  659TIP3   OH223467   2.715   6.726   5.035  0.2030 -0.1327 -0.3043
  659TIP3    H123468   2.737   6.670   4.961  0.2399  0.8038 -1.0177
  659TIP3    H223469   2.629   6.762   5.012  0.2517  0.2244  0.0707
  660TIP3   OH223470   3.628   0.583  15.649  0.3680  0.1803  0.1078
  660TIP3    H123471   3.654   0.656  15.593  0.9723  1.4481  1.9681
  660TIP3    H223472   3.589   0.519  15.588 -0.0758  1.9635 -1.5769
  661TIP3   OH223473   3.086   5.360  13.399  0.5848 -0.0714  0.3969
  661TIP3    H123474   3.142   5.385  13.473  0.8397  0.1047  0.1469
  661TIP3    H223475   3.107   5.424  13.331  1.0258 -0.7753 -0.1497
  662TIP3   OH223476   3.840   3.108  14.052 -0.5094 -0.1450 -0.2147
  662TIP3    H123477   3.865   3.200  14.059  1.7112 -0.5467 -1.6964
  662TIP3    H223478   3.778   3.106  13.979 -0.3255  0.1544 -0.3825
  663TIP3   OH223479   4.460   1.966   1.070 -0.0806  0.5413  0.5151
  663TIP3    H123480   4.537   2.024   1.071  0.1651  0.2570 -0.6582
  663TIP3    H223481   4.387   2.024   1.089  0.2309  1.1358 -0.0649
  664TIP3   OH223482   3.110   5.681  13.694  0.2490 -0.5229 -0.3895
  664TIP3    H123483   3.184   5.640  13.649  0.7291 -0.1186  0.0179
  664TIP3    H223484   3.058   5.608  13.727 -0.0105 -0.8213 -1.4363
  665TIP3   OH223485   1.858   3.318  13.371 -0.2960 -0.0581 -0.4132
  665TIP3    H123486   1.949   3.300  13.395  0.2538  1.1652 -1.4602
  665TIP3    H223487   1.808   3.301  13.451  0.6712 -1.8791 -0.1299
  666TIP3   OH223488   1.769   5.912  16.258 -0.2601  0.2911 -0.2232
  666TIP3    H123489   1.679   5.933  16.284  0.1977 -1.4284  3.2276
  666TIP3    H223490   1.822   5.983  16.296 -0.0305  0.9376 -1.6776
  667TIP3   OH223491   4.537   4.301  16.871 -0.5856  0.0408 -0.2924
  667TIP3    H123492   4.506   4.279  16.784  0.1884 -1.0304 -0.3254
  667TIP3    H223493   4.465   4.278  16.929 -0.2106 -1.6713 -0.4362
  668TIP3   OH223494   1.905   0.436   4.107  0.3775 -0.3979 -0.2076
  668TIP3    H123495   1.892   0.421   4.201 -0.9195  1.2955 -0.0599
  668TIP3    H223496   1.979   0.496   4.102  1.1786 -1.3716 -0.3688
  669TIP3   OH223497   0.510   3.242  10.657  0.2700 -0.0827 -0.0669
  669TIP3    H123498   0.481   3.160  10.698 -2.5689  1.3593  1.0877
  669TIP3    H223499   0.552   3.291  10.728  0.2675  0.2241 -0.2753
  670TIP3   OH223500   4.044   0.395   0.750 -0.1569 -0.0930  0.5840
  670TIP3    H123501   4.131   0.416   0.717 -0.2747 -0.2416  0.1717
  670TIP3    H223502   4.018   0.316   0.702 -1.4548  1.2049 -0.9985
  671TIP3   OH223503   2.853   0.375  15.107 -0.2984 -0.0666 -0.4450
  671TIP3    H123504   2.765   0.369  15.145 -0.1381  1.0490  0.1570
  671TIP3    H223505   2.892   0.451  15.150  0.9046 -0.4407 -0.8394
  672TIP3   OH223506   4.542   3.258  15.611  0.6967 -0.0254 -0.2119
  672TIP3    H123507   4.497   3.323  15.666  0.1879  0.0522 -0.7063
  672TIP3    H223508   4.474   3.227  15.551  1.0287 -0.7557 -0.2153
  673TIP3   OH223509   4.325   3.170   2.741  0.7865 -0.4047  0.0663
  673TIP3    H123510   4.262   3.115   2.693 -0.0906 -0.0478  0.7915
  673TIP3    H223511   4.387   3.107   2.778 -0.3369 -0.9470  1.0729
  674TIP3   OH223512   0.922   3.633  13.069  0.1199  0.1788 -0.7131
  674TIP3    H123513   0.969   3.716  13.055  0.3690 -0.0715 -1.4489
  674TIP3    H223514   0.990   3.572  13.098 -0.0680  0.2357 -0.1474
  675TIP3   OH223515   3.497   2.617  13.538 -0.1008 -0.1218  0.6394
  675TIP3    H123516   3.484   2.568  13.620  0.6239  1.1374  1.5491
  675TIP3    H223517   3.508   2.708  13.566  1.3702  0.1727 -0.7558
  676TIP3   OH223518   0.577   6.376   6.331  0.7960 -0.1630 -0.7570
  676TIP3    H123519   0.515   6.416   6.392 -0.2983  0.3354 -2.1433
  676TIP3    H223520   0.641   6.445   6.313 -0.0017  0.3551 -1.6694
  677TIP3   OH223521   0.696   3.983   0.007 -0.0968 -0.8587 -0.0297
  677TIP3    H123522   0.623   4.032   0.045  0.1232 -0.8918  0.4440
  677TIP3    H223523   0.719   4.031  -0.072  1.9647  1.5034  1.8288
  678TIP3   OH223524   0.694   0.298   1.258  0.5990  0.0827 -0.0837
  678TIP3    H123525   0.763   0.359   1.284  1.9611 -0.5692 -1.8975
  678TIP3    H223526   0.637   0.291   1.335  3.1191 -0.1312  1.9140
  679TIP3   OH223527   4.824   0.897   1.606  0.3425  0.0270 -0.2715
  679TIP3    H123528   4.864   0.874   1.523 -1.0100  0.9510 -1.2199
  679TIP3    H223529   4.868   0.978   1.633 -0.7743  1.0240 -1.2961
  680TIP3   OH223530   3.882   0.808   4.811 -0.7115  0.2132 -0.2058
  680TIP3    H123531   3.808   0.828   4.869  0.4163  1.0880  0.9792
  680TIP3    H223532   3.911   0.721   4.839 -0.7615  0.2238 -0.1211
  681TIP3   OH223533   6.730   4.041  13.354  0.3038  0.0965  0.2064
  681TIP3    H123534   6.711   3.981  13.282 -0.4719 -0.0341  0.5073
  681TIP3    H223535   6.825   4.046  13.358  0.3543  0.2578 -0.9541
  682TIP3   OH223536   1.028   4.846   4.413 -0.1638 -0.4268  0.1762
  682TIP3    H123537   1.083   4.830   4.336  1.2522  1.8207  0.6258
  682TIP3    H223538   1.070   4.919   4.458 -1.9681 -0.4874  2.1349
  683TIP3   OH223539   5.313   2.565  16.131 -0.3570  0.2272 -0.5694
  683TIP3    H123540   5.340   2.510  16.205  3.5162  0.8424 -1.2979
  683TIP3    H223541   5.260   2.507  16.077 -1.9336 -0.7108  1.8017
  684TIP3   OH223542   0.352   1.169   3.439 -0.5237 -0.2280 -0.1094
  684TIP3    H123543   0.282   1.227   3.467 -1.9681 -1.6403 -0.6092
  684TIP3    H223544   0.385   1.129   3.519  0.6321  1.3961  0.2574
  685TIP3   OH223545   2.488   1.819   5.523  0.2927  0.2696 -0.8190
  685TIP3    H123546   2.403   1.791   5.557  1.1962 -1.8559 -0.1340
  685TIP3    H223547   2.494   1.911   5.546 -1.1094  0.0362  0.6636
  686TIP3   OH223548   1.110   4.000  10.765 -0.4272 -0.3234  0.0369
  686TIP3    H123549   1.150   3.920  10.730  0.6056  0.4178 -0.5384
  686TIP3    H223550   1.072   3.973  10.849  1.4901 -1.0521  0.7420
  687TIP3   OH223551   4.237   4.841   4.758 -0.1231 -0.2941 -0.1714
  687TIP3    H123552   4.160   4.793   4.726  0.5167 -0.6354 -1.2741
  687TIP3    H223553   4.310   4.806   4.706  0.6637  0.5242  0.3559
  688TIP3   OH223554   1.594   6.374   4.515 -0.0724 -0.0090 -0.2332
  688TIP3    H123555   1.588   6.384   4.610 -3.0142 -1.1498 -0.1853
  688TIP3    H223556   1.663   6.309   4.502  0.6503  0.4639  1.0702
  689TIP3   OH223557   0.106   3.381   2.448 -0.1627  0.1344  0.2616
  689TIP3    H123558   0.131   3.296   2.411 -1.9492  0.3601 -1.6907
  689TIP3    H223559   0.182   3.437   2.434  0.4188 -0.6985  0.0072
  690TIP3   OH223560   4.489   2.938   1.428  0.7170  0.2613 -0.5864
  690TIP3    H123561   4.394   2.929   1.414  1.1619 -0.3876 -4.1244
  690TIP3    H223562   4.496   3.005   1.496 -2.2778  0.1285  0.0125
  691TIP3   OH223563   0.821   3.568   2.364  0.5159 -0.6124  0.0732
  691TIP3    H123564   0.791   3.588   2.276  1.3386 -1.5132 -0.4285
  691TIP3    H223565   0.878   3.492   2.354 -1.3835 -2.3551  1.7273
  692TIP3   OH223566   2.879   2.981   3.222  0.0789 -0.6082 -0.6456
  692TIP3    H123567   2.935   3.059   3.229  0.3225 -0.7677 -0.7954
  692TIP3    H223568   2.867   2.969   3.128  1.0543 -1.4623 -0.6852
  693TIP3   OH223569   0.013   3.310   3.092 -0.1838 -0.5203 -0.4330
  693TIP3    H123570   0.019   3.240   3.156  0.1904  2.5027  3.1641
  693TIP3    H223571   0.103   3.345   3.085 -0.5543  0.3380 -1.2498
  694TIP3   OH223572   1.452   0.177   4.086 -0.3675 -0.0331 -0.0096
  694TIP3    H123573   1.523   0.116   4.066 -2.0877 -2.1086 -0.0875
  694TIP3    H223574   1.484   0.227   4.161  1.5128 -0.2584 -0.6086
  695TIP3   OH223575   5.624   6.753   3.782 -0.1022 -0.1681 -0.0724
  695TIP3    H123576   5.674   6.772   3.703 -0.2335 -1.1022 -0.3822
  695TIP3    H223577   5.533   6.759   3.755 -0.1883  1.4563  0.4747
  696TIP3   OH223578   0.633   2.593  13.533 -0.5643 -0.0837 -0.0020
  696TIP3    H123579   0.585   2.639  13.602  0.5295  2.4562 -0.8203
  696TIP3    H223580   0.712   2.561  13.575 -0.6224  0.1202  0.2612
  697TIP3   OH223581   4.896   4.089   5.087 -0.1552  1.2174 -0.8011
  697TIP3    H123582   4.922   4.052   5.003  0.6242 -0.0758 -0.0238
  697TIP3    H223583   4.971   4.073   5.145 -2.2812 -2.0355  1.3639
  698TIP3   OH223584   1.281   0.318   5.262 -0.0599  0.5405 -0.3444
  698TIP3    H123585   1.230   0.352   5.189 -0.6147  1.2964  0.3892
  698TIP3    H223586   1.302   0.228   5.236 -2.5724 -0.1544 -0.2850
  699TIP3   OH223587   0.076   5.373   4.054 -0.5752  0.1526 -0.0015
  699TIP3    H123588   0.022   5.391   4.131 -0.5144 -2.0547  0.6237
  699TIP3    H223589   0.026   5.307   4.004  1.1732 -1.4949  0.2808
  700TIP3   OH223590   4.133   4.195  15.914 -0.3317  0.2849 -0.5462
  700TIP3    H123591   4.229   4.201  15.912 -0.3507  0.8247 -0.2638
  700TIP3    H223592   4.114   4.166  16.003 -0.4021 -0.5347 -0.8275
  701TIP3   OH223593   4.169   6.446  16.253  0.7351 -0.0212  0.0719
  701TIP3    H123594   4.218   6.399  16.321  0.0889 -0.4026  0.2762
  701TIP3    H223595   4.211   6.419  16.172  0.6673 -0.5990  0.2220
  702TIP3   OH223596   6.752   2.839   5.954 -0.3977  0.2736 -0.3804
  702TIP3    H123597   6.831   2.855   6.006 -1.1825  0.6304  0.7391
  702TIP3    H223598   6.723   2.752   5.981 -0.5308  0.2451 -0.6105
  703TIP3   OH223599   2.002   0.259  10.948 -0.4849 -0.1877  0.0190
  703TIP3    H123600   2.012   0.210  10.867 -1.3196  1.7064 -1.3127
  703TIP3    H223601   2.042   0.344  10.929  0.3330 -0.0766  2.0024
  704TIP3   OH223602   3.450   3.137   4.996 -0.2047 -0.0600  0.2927
  704TIP3    H123603   3.434   3.149   5.089 -0.8570 -2.7623  0.6148
  704TIP3    H223604   3.454   3.042   4.984  0.0557  0.1988 -2.4050
  705TIP3   OH223605   1.264   2.169  11.721  0.3466 -0.4605 -0.0147
  705TIP3    H123606   1.226   2.153  11.634  0.5935 -2.2108  0.1665
  705TIP3    H223607   1.350   2.127  11.717  1.2302  1.2252  0.4302
  706TIP3   OH223608   6.722   2.368   1.456  0.1502 -0.4029 -0.4545
  706TIP3    H123609   6.682   2.324   1.381 -1.5452 -0.7769  0.6059
  706TIP3    H223610   6.815   2.370   1.436 -0.1253 -1.4927 -2.0483
  707TIP3   OH223611   0.117   3.693   2.847 -0.1067  0.0610 -0.1550
  707TIP3    H123612   0.212   3.690   2.834  0.1519  1.4624  1.0915
  707TIP3    H223613   0.106   3.685   2.942 -1.2996 -0.8358 -0.3425
  708TIP3   OH223614   4.134   2.804   3.335 -0.1132 -0.1359 -0.1240
  708TIP3    H123615   4.045   2.774   3.317 -0.7775  1.7832 -0.3047
  708TIP3    H223616   4.130   2.837   3.425  0.4361 -0.1211 -0.1062
  709TIP3   OH223617   1.322   1.125   1.163  0.1659 -0.2833  0.5442
  709TIP3    H123618   1.235   1.086   1.165  0.1986 -0.3375  1.5033
  709TIP3    H223619   1.363   1.089   1.085 -0.2163 -1.2551  0.7810
  710TIP3   OH223620   6.284   0.043   5.456  0.0180  0.0479 -0.6180
  710TIP3    H123621   6.254   0.133   5.451 -0.8398 -0.1233  0.8447
  710TIP3    H223622   6.204  -0.009   5.467  0.6076 -0.7138  0.2667
  711TIP3   OH223623   1.007   5.691   5.526 -0.2135 -0.1121 -0.2276
  711TIP3    H123624   0.964   5.776   5.514  1.3259  0.8978  1.0335
  711TIP3    H223625   1.097   5.705   5.499 -0.3779 -1.9625 -1.9747
  712TIP3   OH223626   0.593   2.101  16.233 -0.5291  0.1039 -0.4218
  712TIP3    H123627   0.534   2.070  16.164 -0.5460 -2.7383  0.7082
  712TIP3    H223628   0.535   2.133  16.302 -0.6435  0.2040 -0.5669
  713TIP3   OH223629   6.459   1.274   0.303 -0.2396 -0.3337  0.2070
  713TIP3    H123630   6.470   1.259   0.397 -1.1870 -1.1595  0.2112
  713TIP3    H223631   6.543   1.248   0.264 -0.2751 -1.2428  0.7079
  714TIP3   OH223632   0.310   4.597  13.250 -0.4104  0.6367 -0.0984
  714TIP3    H123633   0.401   4.592  13.222  0.7724  0.2272  3.2908
  714TIP3    H223634   0.299   4.687  13.280 -0.3323  0.1259  1.5878
  715TIP3   OH223635   2.265   1.434  12.736  0.6152 -1.0020 -0.3206
  715TIP3    H123636   2.339   1.460  12.791 -1.2505  3.5146  0.4469
  715TIP3    H223637   2.297   1.443  12.646  1.2693  0.0138  0.0069
  716TIP3   OH223638   1.627   6.649  14.202  0.1453 -0.1016 -0.0335
  716TIP3    H123639   1.648   6.560  14.229  1.1909 -0.2724 -1.2804
  716TIP3    H223640   1.710   6.682  14.166  0.0553  1.7257  1.2838
  717TIP3   OH223641   4.143   5.068   4.854 -0.6307  0.1595  0.1253
  717TIP3    H123642   4.194   4.989   4.838 -0.6313  0.1106  0.3731
  717TIP3    H223643   4.185   5.109   4.929  1.7469  2.3746 -2.1842
  718TIP3   OH223644   2.224   3.670   4.586 -0.5399  0.5176 -0.5546
  718TIP3    H123645   2.239   3.578   4.611  0.1990  0.5638 -0.7810
  718TIP3    H223646   2.131   3.684   4.601 -0.4133  0.1142  0.7385
  719TIP3   OH223647   2.802   4.332  15.033  0.5631  0.2220  0.4414
  719TIP3    H123648   2.784   4.425  15.042 -2.0187 -0.0887 -0.5435
  719TIP3    H223649   2.816   4.319  14.940  0.1680 -0.4494  0.4632
  720TIP3   OH223650   2.569   2.161  13.465 -0.0850  0.2881  0.6801
  720TIP3    H123651   2.492   2.104  13.456 -0.9677  1.3671  1.1398
  720TIP3    H223652   2.643   2.104  13.448 -0.8835 -1.2252  1.9513
  721TIP3   OH223653   4.526   4.199   5.335  0.2400  0.7529 -0.1171
  721TIP3    H123654   4.487   4.160   5.257  0.9969 -0.1114 -0.0856
  721TIP3    H223655   4.452   4.232   5.385 -0.2742  1.1077 -1.0833
  722TIP3   OH223656   0.294   1.029  11.660 -0.2158  0.6107  0.7762
  722TIP3    H123657   0.276   1.122  11.646 -1.0343  0.2670 -0.7638
  722TIP3    H223658   0.238   0.984  11.596 -0.3678 -0.9825  1.9694
  723TIP3   OH223659   4.000   6.220  14.911  0.1060  0.1479 -0.4630
  723TIP3    H123660   3.975   6.151  14.850  0.1790  1.1195 -1.6166
  723TIP3    H223661   4.013   6.174  14.994 -0.2455 -1.1603 -1.0985
  724TIP3   OH223662   4.975   2.313  12.357 -0.0747  0.5602  0.3397
  724TIP3    H123663   5.028   2.387  12.390  0.8580  0.2955 -0.4963
  724TIP3    H223664   4.977   2.249  12.428  2.0609 -0.0823 -0.2089
  725TIP3   OH223665   5.706   5.533   1.498 -0.3460 -0.7050 -0.4733
  725TIP3    H123666   5.688   5.626   1.509  0.7842 -0.6200  1.0678
  725TIP3    H223667   5.763   5.528   1.422 -0.3735 -0.1442 -0.5364
  726TIP3   OH223668   3.219   2.108   4.731  0.0073  0.0857  0.1080
  726TIP3    H123669   3.240   2.015   4.723  0.2159  0.2432 -1.3578
  726TIP3    H223670   3.180   2.131   4.647 -2.6252  0.6840  1.3885
  727TIP3   OH223671   4.247   3.273   0.224 -0.1582  0.4353  0.3881
  727TIP3    H123672   4.234   3.261   0.130  0.7297 -1.5669  0.4777
  727TIP3    H223673   4.207   3.358   0.243  1.2257  1.7457 -2.0994
  728TIP3   OH223674   4.163   5.217   5.491  0.2325  0.1797  0.5507
  728TIP3    H123675   4.073   5.248   5.484 -0.0945 -0.8453  0.0311
  728TIP3    H223676   4.199   5.226   5.403  0.3474 -0.2700  0.5483
  729TIP3   OH223677   4.462   3.569  14.829  0.3288 -0.3582 -0.1289
  729TIP3    H123678   4.414   3.635  14.780 -0.4300  0.3385  1.4646
  729TIP3    H223679   4.497   3.510  14.763 -0.1474  0.8559 -1.5147
  730TIP3   OH223680   5.775   1.956   5.393  0.5940  0.0184 -0.2085
  730TIP3    H123681   5.865   1.980   5.371  0.3207  1.4074  0.0947
  730TIP3    H223682   5.723   1.987   5.319  0.0958  1.5231  0.7217
  731TIP3   OH223683   0.644   3.505   4.080  0.3691  0.2580 -0.2032
  731TIP3    H123684   0.645   3.508   3.984 -1.3543  1.2651 -0.2392
  731TIP3    H223685   0.696   3.428   4.102  2.7395  1.2723 -1.8260
  732TIP3   OH223686   1.083   1.030   5.790 -0.5992 -0.7570  0.4976
  732TIP3    H123687   1.031   0.988   5.858  0.3071 -0.3856  1.4547
  732TIP3    H223688   1.158   1.066   5.837 -1.0172  1.3691 -0.3662
  733TIP3   OH223689   4.206   2.287   5.122 -0.1883 -0.2044 -0.3227
  733TIP3    H123690   4.208   2.192   5.133 -2.4091 -0.3667 -0.8883
  733TIP3    H223691   4.250   2.302   5.038 -0.1826 -0.7620 -0.4226
  734TIP3   OH223692   5.327   6.718  12.495 -0.2482  0.3710 -0.4471
  734TIP3    H123693   5.280   6.661  12.556 -0.6116  0.3766 -0.7203
  734TIP3    H223694   5.362   6.788  12.549 -0.7714  0.5035 -0.2793
  735TIP3   OH223695   4.873   3.005   1.679  0.2743 -0.2925 -0.2616
  735TIP3    H123696   4.902   2.977   1.592  2.5636  0.3326  0.2443
  735TIP3    H223697   4.850   3.097   1.668  1.0759 -0.0645 -0.1324
  736TIP3   OH223698   0.487   1.819   3.604 -0.0164 -1.0929  0.0927
  736TIP3    H123699   0.472   1.724   3.607 -1.2841 -0.9095  0.4864
  736TIP3    H223700   0.503   1.843   3.695 -2.4199 -0.5893  0.4711
  737TIP3   OH223701   6.125   2.008  14.226 -0.0926 -0.5486 -0.1777
  737TIP3    H123702   6.188   1.950  14.183 -0.1604  1.0381 -2.6313
  737TIP3    H223703   6.041   1.963  14.217  0.1350 -0.9505 -0.3066
  738TIP3   OH223704   4.761   6.411  12.754  0.0423 -0.0087 -0.3852
  738TIP3    H123705   4.787   6.344  12.691  0.1244  0.1440 -0.5160
  738TIP3    H223706   4.690   6.458  12.711 -2.5113 -2.2253  1.0827
  739TIP3   OH223707   6.205   3.499   0.563 -0.6270 -0.0392  0.4259
  739TIP3    H123708   6.169   3.551   0.635 -0.6858 -0.1784  0.4993
  739TIP3    H223709   6.288   3.466   0.598  1.6098  3.4482 -1.0637
  740TIP3   OH223710   4.863   2.645   1.426  0.8264 -0.5838  1.0128
  740TIP3    H123711   4.876   2.633   1.332  1.0175 -2.4699  1.2390
  740TIP3    H223712   4.786   2.702   1.432  0.4808 -0.8762 -0.2782
  741TIP3   OH223713   0.139   5.586   3.546 -0.1768  0.5093  0.2791
  741TIP3    H123714   0.152   5.561   3.637 -0.0217 -0.8623 -0.0885
  741TIP3    H223715   0.223   5.621   3.517 -0.3188  1.2391  0.7446
  742TIP3   OH223716   1.983   2.380   0.839  0.3456 -0.2860 -0.1509
  742TIP3    H123717   1.900   2.426   0.856  0.8692  0.6013  0.0444
  742TIP3    H223718   2.038   2.402   0.914  0.6738 -1.0969 -0.1472
  743TIP3   OH223719   2.212   4.345  17.147 -0.1424  0.3665  0.1547
  743TIP3    H123720   2.159   4.361  17.069 -1.4962  1.5878  1.2527
  743TIP3    H223721   2.302   4.357  17.118 -0.4323 -1.3570 -1.6815
  744TIP3   OH223722   6.731   3.379  13.961  0.0445 -0.0020 -0.1238
  744TIP3    H123723   6.704   3.470  13.950  0.5738  0.1557 -0.1410
  744TIP3    H223724   6.824   3.384  13.982  0.0293 -0.5285  0.0827
  745TIP3   OH223725   3.173   6.814  11.205 -0.3301  0.4627  0.4653
  745TIP3    H123726   3.121   6.773  11.137  0.5395  0.3623 -0.1512
  745TIP3    H223727   3.263   6.804  11.176  0.1108 -0.1778  1.9597
  746TIP3   OH223728   5.351   1.023   6.813  0.0603 -0.3530 -0.2669
  746TIP3    H123729   5.423   0.998   6.872  0.6833 -0.1707 -0.9403
  746TIP3    H223730   5.322   1.108   6.847 -0.3571 -0.7783  0.4713
  747TIP3   OH223731   2.584   5.811   4.238 -0.2494  0.0840 -0.2466
  747TIP3    H123732   2.644   5.844   4.172  0.1104 -0.6416 -0.2915
  747TIP3    H223733   2.508   5.781   4.188 -0.8993  1.4740 -0.1512
  748TIP3   OH223734   3.249   5.514  12.911  0.0346 -0.0041  0.1509
  748TIP3    H123735   3.318   5.512  12.845 -0.6669  2.6644 -0.8009
  748TIP3    H223736   3.167   5.516  12.862 -0.5656  0.3944  1.1228
  749TIP3   OH223737   6.357   1.967   3.976 -0.3909 -0.1960  0.3562
  749TIP3    H123738   6.364   1.902   3.906  0.1528 -0.2994  0.4998
  749TIP3    H223739   6.347   2.050   3.930 -0.2254 -0.2842  0.1562
  750TIP3   OH223740   1.962   1.521   3.517 -0.1181 -0.5551 -0.3254
  750TIP3    H123741   1.961   1.584   3.445 -0.6657  1.0849  1.0740
  750TIP3    H223742   2.046   1.533   3.559 -0.5840 -0.1139  0.4905
  751TIP3   OH223743   1.243   1.304  16.969 -0.0602  0.7130 -0.6556
  751TIP3    H123744   1.319   1.259  16.931 -0.5779  0.7654 -1.7973
  751TIP3    H223745   1.255   1.395  16.944 -0.7871  0.6281 -1.3759
  752TIP3   OH223746   0.025   1.732   3.828  0.5386  0.4154  0.2386
  752TIP3    H123747   0.068   1.675   3.764  3.1451  2.1826  0.2410
  752TIP3    H223748  -0.054   1.763   3.783  0.5984 -0.8896 -0.8478
  753TIP3   OH223749   4.335   0.635   0.166 -0.0692 -0.1608 -0.0025
  753TIP3    H123750   4.255   0.602   0.125 -0.5299 -0.0032  0.7529
  753TIP3    H223751   4.363   0.565   0.225  0.2891 -0.1683 -0.1777
  754TIP3   OH223752   3.983   0.578  10.930  0.5092 -0.9998  0.2454
  754TIP3    H123753   3.980   0.603  11.022 -1.9796 -0.6665  0.1565
  754TIP3    H223754   3.926   0.502  10.924  1.8923 -2.0079 -0.7917
  755TIP3   OH223755   6.326   2.106   4.840  0.0007  0.1272 -0.3640
  755TIP3    H123756   6.411   2.068   4.861 -0.7082 -0.6385  1.3121
  755TIP3    H223757   6.310   2.081   4.750 -0.7827 -4.4344  0.8156
  756TIP3   OH223758   5.125   6.753  12.086  0.0559  0.4767 -0.2518
  756TIP3    H123759   5.039   6.794  12.076 -0.8949 -1.2935  0.2208
  756TIP3    H223760   5.134   6.740  12.180  0.1920 -0.6279 -0.4026
  757TIP3   OH223761   1.225   1.792  13.231 -0.0979 -0.0216 -0.5576
  757TIP3    H123762   1.317   1.812  13.219  0.0304 -0.4627 -0.3366
  757TIP3    H223763   1.216   1.701  13.203 -0.4318 -0.0323 -0.4231
  758TIP3   OH223764   0.953   5.189  14.485 -0.2827  0.2667  0.0182
  758TIP3    H123765   1.002   5.142  14.419  0.1098  0.5255  0.1234
  758TIP3    H223766   0.862   5.188  14.453 -0.1421  0.1487 -0.3781
  759TIP3   OH223767   5.474   1.706   4.710 -0.0902 -0.8745 -0.0300
  759TIP3    H123768   5.409   1.719   4.641  0.7105 -0.6179 -0.7529
  759TIP3    H223769   5.526   1.786   4.710  0.6892 -1.3636  0.0311
  760TIP3   OH223770   2.070   3.472  16.557 -0.0573  1.0416  0.2810
  760TIP3    H123771   2.117   3.531  16.617 -1.1857  1.4327  0.8003
  760TIP3    H223772   1.990   3.450  16.603  1.1800 -2.5782  1.0090
  761TIP3   OH223773   5.884   5.058   1.540  1.1474  0.0591  0.4956
  761TIP3    H123774   5.949   5.055   1.610  1.9496  1.0126 -0.1727
  761TIP3    H223775   5.904   4.982   1.485  0.3407 -0.8484  1.4247
  762TIP3   OH223776   1.786   6.102  12.581  0.5184 -0.1829  0.0172
  762TIP3    H123777   1.719   6.044  12.544  1.6927 -0.9557 -0.9845
  762TIP3    H223778   1.827   6.143  12.505  0.4417  1.1548  0.6750
  763TIP3   OH223779   6.497   1.659   4.164  0.0171  0.1753  0.1545
  763TIP3    H123780   6.491   1.564   4.153 -1.1627  0.2906 -0.3670
  763TIP3    H223781   6.520   1.671   4.256  0.0489 -0.6200  0.2612
  764TIP3   OH223782   1.417   3.000   1.531 -0.0486  0.1839 -0.6591
  764TIP3    H123783   1.502   3.042   1.516 -0.7999  2.5249  0.9160
  764TIP3    H223784   1.360   3.038   1.464 -0.3548  0.4305 -0.2659
  765TIP3   OH223785   2.842   1.824   2.202  0.0044  0.0307  0.0781
  765TIP3    H123786   2.771   1.847   2.262 -1.3511 -2.3496 -0.4669
  765TIP3    H223787   2.900   1.769   2.254  0.3063  0.2103 -0.0656
  766TIP3   OH223788   6.530   3.083  11.312  0.4630  0.3415 -0.1271
  766TIP3    H123789   6.587   3.131  11.252  0.7561  0.1295 -0.0200
  766TIP3    H223790   6.537   2.992  11.283  0.2388  0.3032 -0.0622
  767TIP3   OH223791   5.049   1.049   1.419  0.5178  0.2093 -0.1228
  767TIP3    H123792   4.999   1.081   1.494  0.3668 -1.0613  0.3564
  767TIP3    H223793   5.104   0.979   1.455 -0.5389 -1.3667 -1.3904
  768TIP3   OH223794   5.031   5.933   0.662  0.1860 -0.3607 -0.8405
  768TIP3    H123795   4.979   5.912   0.740 -1.2196  2.2791 -0.9387
  768TIP3    H223796   5.097   5.864   0.658 -0.3938 -1.2274  2.0160
  769TIP3   OH223797   0.151   6.167  17.145 -0.0865  0.1197  0.2330
  769TIP3    H123798   0.155   6.258  17.176  1.0097  0.0860  0.2411
  769TIP3    H223799   0.167   6.115  17.223  2.3589  0.0251 -0.2398
  770TIP3   OH223800   1.268   3.618  13.810  0.2138 -0.1656  0.0091
  770TIP3    H123801   1.296   3.587  13.724  1.8461 -0.4653  0.5972
  770TIP3    H223802   1.285   3.544  13.869 -0.7549  0.0744  0.6067
  771TIP3   OH223803   3.957   0.397   3.207 -0.3914 -0.5229  0.0250
  771TIP3    H123804   3.912   0.323   3.166 -0.8462 -0.1089 -0.2348
  771TIP3    H223805   3.930   0.393   3.298 -0.3000 -0.7644  0.0423
  772TIP3   OH223806   4.596   6.682  16.571 -0.4387  0.2833 -0.2823
  772TIP3    H123807   4.681   6.699  16.530 -1.0023  0.6648 -1.3354
  772TIP3    H223808   4.548   6.632  16.505 -1.1756  0.4417  0.1286
  773TIP3   OH223809   0.234   4.987   4.985 -0.7026 -0.3646  0.2293
  773TIP3    H123810   0.201   4.902   4.956 -0.5998 -0.0128 -0.9582
  773TIP3    H223811   0.288   5.018   4.913 -1.6917  1.2441  0.1309
  774TIP3   OH223812   6.319   0.261   2.385 -0.3047  0.2657  0.1053
  774TIP3    H123813   6.335   0.288   2.294 -0.0450 -1.2240 -0.3188
  774TIP3    H223814   6.240   0.208   2.380  0.4682 -0.9602  0.5118
  775TIP3   OH223815   6.235   0.445  14.997  0.0798 -0.0673 -0.7767
  775TIP3    H123816   6.196   0.531  15.014 -0.3552 -0.2692 -0.7655
  775TIP3    H223817   6.277   0.421  15.080  0.1693  0.1151 -0.7682
  776TIP3   OH223818   3.652   2.747  12.696 -0.3304  0.1842  0.0302
  776TIP3    H123819   3.688   2.834  12.677  1.4406 -0.5528 -0.1955
  776TIP3    H223820   3.607   2.722  12.615  1.6391 -0.2598 -1.0000
  777TIP3   OH223821   3.507   2.621  14.461 -0.2671  0.3257 -0.6570
  777TIP3    H123822   3.579   2.638  14.401  2.7205  2.5955  3.0663
  777TIP3    H223823   3.510   2.527  14.478  0.3425  0.0427 -2.2119
  778TIP3   OH223824   0.282   3.413  11.886 -0.6932 -0.5415 -0.1900
  778TIP3    H123825   0.264   3.323  11.912  0.1625 -1.2790 -1.9373
  778TIP3    H223826   0.332   3.451  11.958 -0.5052 -1.6649  0.2777
  779TIP3   OH223827   4.614   6.788  15.945  0.6089  0.1414  0.8908
  779TIP3    H123828   4.686   6.836  15.987  1.6003 -0.6679  0.1736
  779TIP3    H223829   4.639   6.696  15.952  0.2729 -0.0826 -0.5031
  780TIP3   OH223830   6.370   1.492   1.145  0.1566 -0.3497 -0.4642
  780TIP3    H123831   6.307   1.552   1.185 -0.2813 -0.5445 -0.8559
  780TIP3    H223832   6.455   1.534   1.159  0.0528 -0.5601  0.9334
  781TIP3   OH223833   6.261   3.189   1.394 -0.1039  0.1944 -0.5805
  781TIP3    H123834   6.215   3.202   1.477  0.6516  0.8624 -0.2492
  781TIP3    H223835   6.324   3.119   1.413 -0.1347  0.1388 -0.6800
  782TIP3   OH223836   2.533   0.327  12.198  0.1185 -0.3273  0.0497
  782TIP3    H123837   2.496   0.406  12.159 -0.2765 -0.0998  0.8547
  782TIP3    H223838   2.615   0.312  12.151 -0.1100  0.2102 -0.5218
  783TIP3   OH223839   2.785   0.344  11.346  0.5534  0.0038 -0.1274
  783TIP3    H123840   2.775   0.407  11.417  1.6162  0.6152 -0.4965
  783TIP3    H223841   2.821   0.395  11.273  0.0662 -0.7330 -0.9088
  784TIP3   OH223842   5.424   3.237   4.726 -0.1325  0.2263  0.8636
  784TIP3    H123843   5.431   3.151   4.686 -0.8129  0.5758 -0.0227
  784TIP3    H223844   5.404   3.219   4.818 -0.2441 -0.5560  0.6924
  785TIP3   OH223845   0.220   0.533  16.748  0.3331 -0.1850 -0.3661
  785TIP3    H123846   0.210   0.516  16.654  0.6629 -1.9281 -0.1196
  785TIP3    H223847   0.308   0.501  16.768  0.1479 -0.0981  0.6005
  786TIP3   OH223848   4.127   5.017  16.387  0.3101 -0.1294  0.0434
  786TIP3    H123849   4.178   4.940  16.413 -0.4123 -0.4739  0.4682
  786TIP3    H223850   4.042   4.982  16.359 -0.1886  0.5346  0.6792
  787TIP3   OH223851   2.124   1.885  15.820 -0.2615 -0.1278  0.3002
  787TIP3    H123852   2.057   1.942  15.782 -1.3450 -1.1284  0.6248
  787TIP3    H223853   2.125   1.908  15.913 -1.4628 -1.2995  0.6413
  788TIP3   OH223854   4.365   0.386   0.312 -0.0431 -0.2473  0.1341
  788TIP3    H123855   4.376   0.324   0.240 -0.5298 -0.8254  0.5428
  788TIP3    H223856   4.447   0.381   0.361  0.3516  0.2656 -0.4591
  789TIP3   OH223857   3.088   6.018   4.497 -0.1873  0.4052 -0.3238
  789TIP3    H123858   3.142   6.082   4.544  0.7636 -0.4555 -0.2059
  789TIP3    H223859   3.099   5.937   4.547  0.5835 -0.4602 -1.8336
  790TIP3   OH223860   2.949   3.950   6.087  0.1301  0.7050  0.8537
  790TIP3    H123861   3.000   4.028   6.108  1.1777  0.0334  0.8947
  790TIP3    H223862   2.973   3.929   5.997 -0.6170  0.7729  0.6293
  791TIP3   OH223863   3.007   2.859  13.610  0.3040  0.0257  0.5467
  791TIP3    H123864   2.935   2.920  13.593 -0.6756 -1.0565  0.7752
  791TIP3    H223865   3.049   2.894  13.689  1.1885  1.6795 -0.5842
  792TIP3   OH223866   6.016   4.972  13.419 -0.2076 -0.0377  0.5928
  792TIP3    H123867   6.092   4.932  13.378 -0.7031  0.2365 -0.6451
  792TIP3    H223868   5.952   4.980  13.348 -0.3566  2.3553  0.9249
  793TIP3   OH223869   5.123   5.435  13.997 -0.3818 -0.3744 -0.4456
  793TIP3    H123870   5.048   5.484  13.963 -0.5560 -0.1387  0.2492
  793TIP3    H223871   5.189   5.439  13.927 -1.2504 -1.1454 -1.3228
  794TIP3   OH223872   3.534   4.102  16.420 -0.2481  0.1362 -0.5141
  794TIP3    H123873   3.466   4.040  16.393 -0.5044 -0.2177  0.8852
  794TIP3    H223874   3.530   4.102  16.516  1.2669  0.6404 -0.4288
  795TIP3   OH223875   6.284   1.539   4.379  0.4766  0.3186 -0.0887
  795TIP3    H123876   6.351   1.528   4.313 -0.0501 -0.9821 -0.4386
  795TIP3    H223877   6.313   1.614   4.432  0.6444  1.7260 -2.0834
  796TIP3   OH223878   3.073   3.453  11.625  0.3594 -0.2959 -0.9232
  796TIP3    H123879   3.116   3.381  11.671 -0.7232 -1.1205 -1.1389
  796TIP3    H223880   3.113   3.532  11.661  1.8845 -1.0045 -0.9935
  797TIP3   OH223881   0.352   2.844   0.368 -0.2198 -0.6842  0.2717
  797TIP3    H123882   0.380   2.753   0.362  1.0682 -0.3069  0.1988
  797TIP3    H223883   0.348   2.874   0.277 -0.7843 -0.7027  0.2874
  798TIP3   OH223884   5.178   6.469  11.673  0.0685  0.6999 -0.2879
  798TIP3    H123885   5.150   6.536  11.735  0.2249  0.3337  0.1837
  798TIP3    H223886   5.272   6.482  11.664  0.4087 -0.4992  1.1068
  799TIP3   OH223887   3.263   1.110  12.024  0.3462  0.3352 -0.4152
  799TIP3    H123888   3.257   1.057  11.945 -0.1426  0.2467 -0.3194
  799TIP3    H223889   3.268   1.046  12.095 -1.1198  0.4068 -0.2296
  800TIP3   OH223890   6.662   1.607  15.999 -0.3695 -0.1371 -0.2892
  800TIP3    H123891   6.581   1.637  16.041 -1.2336 -2.0506 -0.4632
  800TIP3    H223892   6.714   1.686  15.987 -1.6921  0.9794  0.9527
  801TIP3   OH223893   5.284   5.017  15.901 -0.7334  0.2458  0.0486
  801TIP3    H123894   5.336   5.035  15.979 -0.6952  1.8334 -0.3106
  801TIP3    H223895   5.201   5.062  15.916 -1.0072 -0.0477 -0.5248
  802TIP3   OH223896   6.606   3.872  17.038  0.8895  0.3135 -0.5270
  802TIP3    H123897   6.683   3.850  17.090 -0.3436  0.7719  1.6014
  802TIP3    H223898   6.568   3.787  17.014  1.5486  0.1015 -0.8653
  803TIP3   OH223899   2.957   6.699  12.189  0.1086 -0.3058 -0.0970
  803TIP3    H123900   3.012   6.756  12.244  2.0673 -1.8048 -0.3632
  803TIP3    H223901   2.867   6.723  12.211  0.8518  1.2308  1.5120
  804TIP3   OH223902   0.763   2.645  14.936 -0.3807  0.2135  0.7332
  804TIP3    H123903   0.779   2.605  14.851  0.1591 -0.9420  1.3475
  804TIP3    H223904   0.679   2.690  14.926  0.9869  2.5424 -1.2300
  805TIP3   OH223905   5.862   2.184  15.677 -0.1808 -0.4497  0.5470
  805TIP3    H123906   5.850   2.269  15.633  0.6082 -0.6442 -0.0718
  805TIP3    H223907   5.917   2.134  15.617 -0.9844 -1.5574  0.7163
  806TIP3   OH223908   5.874   2.538   0.210 -0.1821  0.2525  0.3120
  806TIP3    H123909   5.799   2.598   0.218  0.1111  0.4557  1.8856
  806TIP3    H223910   5.942   2.577   0.264  0.1812 -1.2400  1.0012
  807TIP3   OH223911   1.098   0.070  13.046  0.1846 -0.1508  0.6267
  807TIP3    H123912   1.143  -0.004  13.005 -0.3227 -0.2486  0.2364
  807TIP3    H223913   1.012   0.071  13.006  0.2567  0.7921  0.4674
  808TIP3   OH223914   0.609   1.901  12.436  0.1729  0.2075 -0.3507
  808TIP3    H123915   0.531   1.950  12.460 -0.9233 -1.2897 -0.7638
  808TIP3    H223916   0.606   1.822  12.491  1.1631 -0.0688 -0.6708
  809TIP3   OH223917   3.536   6.797   5.849 -0.5172 -0.0416 -0.4482
  809TIP3    H123918   3.551   6.845   5.930 -0.5257  0.5326 -0.7849
  809TIP3    H223919   3.504   6.711   5.877 -0.5278  0.1588  0.1521
  810TIP3   OH223920   6.135   3.730   4.560  0.1244 -0.0456 -0.0373
  810TIP3    H123921   6.217   3.684   4.540  0.6826 -0.4421  2.6528
  810TIP3    H223922   6.104   3.687   4.640 -1.0401  2.1905  0.7812
  811TIP3   OH223923   4.085   1.825  11.459 -0.2570 -0.2349  0.4560
  811TIP3    H123924   4.152   1.768  11.421 -1.4787 -0.2483 -1.9011
  811TIP3    H223925   4.032   1.852  11.384 -2.3263  0.5126  2.0899
  812TIP3   OH223926   6.108   4.094   0.639 -0.3875 -0.1964  0.4047
  812TIP3    H123927   6.073   4.049   0.562  0.0748 -1.2041  0.7786
  812TIP3    H223928   6.030   4.117   0.690 -0.6456 -0.2613  0.0476
  813TIP3   OH223929   6.243   4.097  10.527 -0.4638  0.0284  0.2992
  813TIP3    H123930   6.329   4.094  10.571 -0.8811 -2.4279  1.0969
  813TIP3    H223931   6.181   4.069  10.595 -2.0152  2.2631 -0.1139
  814TIP3   OH223932   0.099   3.143   5.636 -0.1506  0.0537  0.0426
  814TIP3    H123933   0.082   3.218   5.694  0.4714  0.6113 -0.4767
  814TIP3    H223934   0.166   3.093   5.680  1.0184  0.9906 -0.6082
  815TIP3   OH223935   2.150   6.267   0.811 -0.4409 -0.0698  0.8788
  815TIP3    H123936   2.063   6.285   0.848  0.0810  1.1069  1.6153
  815TIP3    H223937   2.208   6.266   0.888  0.6355  2.1558  0.1858
  816TIP3   OH223938   2.209   2.108  15.363  0.0672 -0.0744 -0.7503
  816TIP3    H123939   2.184   2.190  15.321 -1.4031  0.5156  1.1520
  816TIP3    H223940   2.238   2.134  15.451  1.6367 -1.4161 -0.8150
  817TIP3   OH223941   5.657   0.183   1.405 -0.1727 -0.3859  0.1234
  817TIP3    H123942   5.618   0.270   1.415 -1.2440 -0.9910  1.6637
  817TIP3    H223943   5.724   0.178   1.473 -1.1841 -1.2856  1.0966
  818TIP3   OH223944   2.923   1.774   4.155  0.0559 -0.1873  0.0566
  818TIP3    H123945   2.947   1.810   4.069  1.6458 -0.9435  0.1542
  818TIP3    H223946   2.837   1.812   4.173 -0.4551 -0.2266 -1.9914
  819TIP3   OH223947   4.029   5.241  12.659  0.2989  0.1935 -0.0413
  819TIP3    H123948   3.981   5.322  12.673  1.0727  0.6285  0.1474
  819TIP3    H223949   4.052   5.241  12.566  0.3941  0.2435 -0.0177
  820TIP3   OH223950   5.844   1.622   5.063 -1.0996  0.5214  0.3817
  820TIP3    H123951   5.842   1.612   4.968 -0.8716  1.2801  0.2825
  820TIP3    H223952   5.760   1.590   5.094 -1.5053  1.0505 -0.1661
  821TIP3   OH223953   6.567   6.587  16.682  0.1382  0.3773 -0.5050
  821TIP3    H123954   6.659   6.603  16.700  0.3183  0.5886 -1.5517
  821TIP3    H223955   6.552   6.497  16.712  0.7480  0.2503 -0.5701
  822TIP3   OH223956   5.566   2.758   2.485  0.1142 -0.3600  0.6492
  822TIP3    H123957   5.619   2.680   2.501 -0.7576 -1.8497 -2.7598
  822TIP3    H223958   5.610   2.802   2.411 -1.9891 -0.3423 -0.6871
  823TIP3   OH223959   5.182   1.060   4.850  0.1534  0.4205  0.0912
  823TIP3    H123960   5.147   1.002   4.918  0.3958  1.5675  1.2401
  823TIP3    H223961   5.273   1.031   4.838  0.4877  0.9867  1.1663
  824TIP3   OH223962   6.422   5.643   3.450 -0.0334  0.0949 -0.1042
  824TIP3    H123963   6.460   5.703   3.514  0.8367 -0.8034  0.2566
  824TIP3    H223964   6.356   5.695   3.405 -0.0998  0.9883  0.9637
  825TIP3   OH223965   4.693   3.156  10.967 -0.1652  0.0015  0.1214
  825TIP3    H123966   4.707   3.125  10.877 -0.2777 -2.1827  0.8051
  825TIP3    H223967   4.608   3.201  10.964 -0.0580  0.1671 -0.8948
  826TIP3   OH223968   5.815   1.366  15.100 -0.7403 -0.6215  0.1824
  826TIP3    H123969   5.806   1.273  15.124  0.1152 -1.0337 -0.9744
  826TIP3    H223970   5.741   1.383  15.042  0.2947 -1.2385 -1.3928
  827TIP3   OH223971   5.726   4.831  11.069  0.4706  0.3827  0.1370
  827TIP3    H123972   5.777   4.911  11.055  0.5990 -0.0212 -1.9361
  827TIP3    H223973   5.666   4.854  11.141  1.2245  1.9777  0.3076
  828TIP3   OH223974   4.313   5.695  10.584 -0.4227 -0.0971 -0.3333
  828TIP3    H123975   4.259   5.649  10.649 -1.5677  0.7391 -0.6598
  828TIP3    H223976   4.398   5.652  10.589 -0.4164  0.0880  1.8662
  829TIP3   OH223977   3.918   6.547  16.780 -0.1150 -0.3975  0.0833
  829TIP3    H123978   3.929   6.593  16.697 -2.1253 -1.8495 -1.0662
  829TIP3    H223979   3.839   6.585  16.819  0.7200  0.1585  1.2826
  830TIP3   OH223980   4.135   0.017  14.301  0.0157  0.4132 -0.1619
  830TIP3    H123981   4.061   0.076  14.320  1.8162  2.5012  0.7699
  830TIP3    H223982   4.206   0.075  14.274  1.8889 -1.3432  0.7382
  831TIP3   OH223983   2.590   5.158  14.726 -0.1801  0.4963 -0.0148
  831TIP3    H123984   2.515   5.142  14.783 -0.4355  1.3242 -0.1210
  831TIP3    H223985   2.556   5.207  14.652  0.6475  1.8648  0.4749
  832TIP3   OH223986   3.347   5.061  13.097 -0.2338  0.5942  0.1328
  832TIP3    H123987   3.306   4.977  13.116 -1.9805  1.5704  0.9452
  832TIP3    H223988   3.368   5.098  13.183  1.1818  0.7036 -0.2344
  833TIP3   OH223989   1.653   5.364   1.493 -0.2466  0.0329 -0.2448
  833TIP3    H123990   1.572   5.406   1.524  0.7614  1.4004  0.6613
  833TIP3    H223991   1.660   5.392   1.402 -2.2313 -2.4468 -1.2788
  834TIP3   OH223992   5.242   4.914   4.400  0.1736  0.6532 -0.4046
  834TIP3    H123993   5.213   4.894   4.310 -1.3420 -1.6506  0.4782
  834TIP3    H223994   5.323   4.865   4.410 -0.1337  0.1663 -0.2564
  835TIP3   OH223995   3.074   3.192  12.650  0.1782  0.1083 -0.0428
  835TIP3    H123996   3.029   3.267  12.688  1.7711  0.7666  0.6426
  835TIP3    H223997   3.144   3.230  12.597  1.1881 -0.8843  0.5346
  836TIP3   OH223998   3.354   6.546  15.173  0.2872  0.7080 -0.1394
  836TIP3    H123999   3.375   6.462  15.212  2.0061  0.8634 -0.6672
  836TIP3    H224000   3.274   6.575  15.219 -1.1782 -1.8057 -0.9248
  837TIP3   OH224001   0.042   1.391  13.629 -0.3390 -0.0824 -0.2460
  837TIP3    H124002   0.050   1.392  13.724 -0.2357 -2.9931 -0.1420
  837TIP3    H224003   0.132   1.395  13.597 -0.3675  0.7663 -0.2362
  838TIP3   OH224004   0.548   0.131   2.428 -0.1606  0.1550 -0.2710
  838TIP3    H124005   0.481   0.196   2.450 -2.1064 -1.9111  0.3634
  838TIP3    H224006   0.547   0.070   2.502  1.6072 -0.6232 -0.8297
  839TIP3   OH224007   4.657   1.226   0.453  0.4546  0.0860 -0.2861
  839TIP3    H124008   4.684   1.144   0.412  0.1147 -0.2406  0.1244
  839TIP3    H224009   4.596   1.199   0.522  0.4498  0.6739 -0.0525
  840TIP3   OH224010   0.747   0.618  16.407 -0.2330 -0.1932  0.0029
  840TIP3    H124011   0.738   0.675  16.483 -0.5922  1.3687 -1.1703
  840TIP3    H224012   0.797   0.670  16.344 -1.3687 -0.7989 -1.4546
  841TIP3   OH224013   1.095   1.103  17.092  0.4324  0.8137 -0.1020
  841TIP3    H124014   1.150   1.169  17.051  0.4232  1.0559  0.2647
  841TIP3    H224015   1.129   1.095  17.181  1.5068 -0.8908 -0.6008
  842TIP3   OH224016   3.321   1.285  17.161 -0.6918 -0.2275  0.2319
  842TIP3    H124017   3.321   1.337  17.081 -0.4040  2.5550  1.9206
  842TIP3    H224018   3.238   1.307  17.204 -0.8159 -1.6440  0.7871
  843TIP3   OH224019   1.082   3.722   4.268  0.1019  0.4662 -0.2704
  843TIP3    H124020   1.054   3.813   4.276 -2.5189 -0.3567  1.0463
  843TIP3    H224021   1.083   3.706   4.174 -1.2622  1.3521 -0.4580
  844TIP3   OH224022   4.358   1.178   2.071 -0.8127  0.1692 -0.8239
  844TIP3    H124023   4.263   1.170   2.060 -0.8554 -2.1244  0.6813
  844TIP3    H224024   4.368   1.230   2.151 -0.8359 -0.3567 -0.4734
  845TIP3   OH224025   5.433   5.381  17.022  0.4366  0.0751  0.1778
  845TIP3    H124026   5.355   5.419  16.982  0.2755  1.6357  1.8381
  845TIP3    H224027   5.405   5.351  17.108  1.4604 -0.2259  0.4298
  846TIP3   OH224028   6.385   3.180  11.567 -0.0568 -0.1074  0.6024
  846TIP3    H124029   6.445   3.227  11.626 -0.4584  1.3100 -0.0908
  846TIP3    H224030   6.440   3.113  11.527  0.4961 -0.3643  1.7315
  847TIP3   OH224031   0.301   5.769  13.166 -0.0860  0.3017  0.2209
  847TIP3    H124032   0.252   5.822  13.103 -0.0195  1.9846  1.4976
  847TIP3    H224033   0.238   5.752  13.236  0.3351  0.0220  0.5340
  848TIP3   OH224034   3.434   1.499  14.940  0.0753 -0.0686 -0.3147
  848TIP3    H124035   3.411   1.557  15.012  0.1527  1.2588 -1.3231
  848TIP3    H224036   3.370   1.519  14.871 -0.4367 -1.8014 -0.4061
  849TIP3   OH224037   4.840   4.216   6.045 -0.3364 -0.0048  0.4617
  849TIP3    H124038   4.890   4.193   6.123 -0.2684 -1.2507  0.0736
  849TIP3    H224039   4.769   4.272   6.077 -0.3792 -0.6042  1.4390
  850TIP3   OH224040   1.342   0.516  15.093  0.5836  0.0658  0.0223
  850TIP3    H124041   1.378   0.437  15.131  2.2115  0.6905 -0.1414
  850TIP3    H224042   1.376   0.587  15.148 -0.0721  0.7147 -0.3894
  851TIP3   OH224043   1.963   0.150   4.366  0.1112  0.1766 -0.6145
  851TIP3    H124044   1.904   0.096   4.417  0.2273  0.9832  0.3981
  851TIP3    H224045   2.048   0.142   4.409  0.7884 -0.9909 -2.0676
  852TIP3   OH224046   0.488   6.466   1.172  0.2952  0.0117  0.0671
  852TIP3    H124047   0.447   6.456   1.087  1.3479 -0.6751 -0.3749
  852TIP3    H224048   0.508   6.560   1.179 -1.6385  0.4248  0.4548
  853TIP3   OH224049   0.408   1.556  15.772  0.1102 -0.0118  0.3693
  853TIP3    H124050   0.373   1.601  15.849  0.8300 -1.1324  1.3986
  853TIP3    H224051   0.473   1.616  15.736 -1.2632  1.1473 -0.2546
  854TIP3   OH224052   1.315   4.559  13.459  0.4339  0.4281  0.1680
  854TIP3    H124053   1.269   4.532  13.380 -2.7326  2.9556  0.9387
  854TIP3    H224054   1.325   4.477  13.509 -0.5759 -0.6918 -1.3619
  855TIP3   OH224055   0.336   5.299  16.686 -0.7126  0.4935 -0.6761
  855TIP3    H124056   0.323   5.385  16.726 -0.5263  0.7364 -1.1281
  855TIP3    H224057   0.324   5.237  16.758  0.0116  0.9436 -0.1545
  856TIP3   OH224058   4.307   1.027   1.692  0.0559  0.7422 -0.1700
  856TIP3    H124059   4.375   0.960   1.697 -1.2536 -0.5665  1.2589
  856TIP3    H224060   4.240   0.989   1.635  0.0517  1.5748 -0.7363
  857TIP3   OH224061   5.914   1.723  14.347 -0.4132 -0.0736 -0.2217
  857TIP3    H124062   6.004   1.694  14.359 -0.3676  0.6076  1.3645
  857TIP3    H224063   5.908   1.747  14.254  1.2956  0.7316 -0.1581
  858TIP3   OH224064   5.397   0.645   1.651  0.3228  0.1180 -0.6432
  858TIP3    H124065   5.477   0.641   1.598 -0.1917 -2.0110 -1.3569
  858TIP3    H224066   5.421   0.608   1.735  0.7939  2.2624  0.2324
  859TIP3   OH224067   1.558   6.713   0.052  0.4713  0.3777  0.3784
  859TIP3    H124068   1.635   6.766   0.072 -0.2364  2.0403 -1.0579
  859TIP3    H224069   1.506   6.766  -0.009 -1.2452 -1.1738  0.3668
  860TIP3   OH224070   2.166   2.001   0.602 -0.1180 -0.0539 -0.1201
  860TIP3    H124071   2.224   1.994   0.525  0.3831  1.9373  0.0275
  860TIP3    H224072   2.151   2.095   0.612 -3.0974 -0.4628  0.1159
  861TIP3   OH224073   2.919   5.770   2.255  0.2270  0.8885 -0.1512
  861TIP3    H124074   2.866   5.772   2.175 -0.3501  0.6259  0.2127
  861TIP3    H224075   2.855   5.775   2.326  0.6343 -0.1753  0.3137
  862TIP3   OH224076   1.472   2.603   4.683  0.0351 -0.5142 -0.1074
  862TIP3    H124077   1.478   2.680   4.626 -1.3498  0.4981  1.0394
  862TIP3    H224078   1.425   2.538   4.631  0.5077 -0.3080 -0.8014
  863TIP3   OH224079   2.162   0.834  15.735  0.6599 -0.4160 -0.4528
  863TIP3    H124080   2.117   0.751  15.749  1.0561 -0.6170 -0.3477
  863TIP3    H224081   2.193   0.828  15.644  0.5138 -0.2971 -0.5105
  864TIP3   OH224082   3.975   2.306   2.141  0.1267  0.1816 -0.5711
  864TIP3    H124083   4.062   2.315   2.101  0.2346  0.2842 -0.3184
  864TIP3    H224084   3.993   2.267   2.226  0.0599  1.5077  0.0725
  865TIP3   OH224085   1.754   6.116   5.135  0.0479  0.2464  0.1869
  865TIP3    H124086   1.677   6.085   5.183 -1.3266  1.4043 -1.1820
  865TIP3    H224087   1.770   6.204   5.168  1.4049 -0.3006  1.1111
  866TIP3   OH224088   2.493   6.639  14.946  0.4381  0.1388  0.2961
  866TIP3    H124089   2.442   6.718  14.927  0.2633 -0.3043 -1.1958
  866TIP3    H224090   2.578   6.655  14.907  1.2918  0.6049  2.2204
  867TIP3   OH224091   3.626   6.099   1.087  0.6866 -0.5639 -0.1592
  867TIP3    H124092   3.689   6.166   1.114  0.6748  0.2981 -2.0797
  867TIP3    H224093   3.646   6.083   0.995 -0.7011 -1.6585 -0.3044
  868TIP3   OH224094   4.799   0.455  14.017 -0.5017 -0.2509 -0.0236
  868TIP3    H124095   4.778   0.443  14.110  0.4003 -0.2589  0.1919
  868TIP3    H224096   4.714   0.469  13.975 -1.2713 -3.0702  0.3524
  869TIP3   OH224097   2.235   6.482   2.020 -0.1634 -0.0853 -0.4308
  869TIP3    H124098   2.163   6.545   2.022  0.6288  0.8512 -0.5517
  869TIP3    H224099   2.298   6.520   1.958  1.5696  0.4130  1.5337
  870TIP3   OH224100   4.665   4.706  15.841 -0.9337 -0.7480  0.2890
  870TIP3    H124101   4.577   4.743  15.840 -0.3664  0.7270 -1.4855
  870TIP3    H224102   4.678   4.672  15.752  1.1341  1.3913 -0.3338
  871TIP3   OH224103   0.621   3.944  15.503  0.1064 -0.1580  0.6906
  871TIP3    H124104   0.532   3.911  15.510 -0.5608  1.6956  1.6656
  871TIP3    H224105   0.611   4.036  15.480  1.8460 -0.3324 -1.0623
  872TIP3   OH224106   4.943   6.160   2.634 -0.0859  0.4156 -0.1257
  872TIP3    H124107   4.853   6.177   2.604  0.2764 -0.3403 -1.7600
  872TIP3    H224108   4.978   6.247   2.655 -1.4996  0.6326  1.5791
  873TIP3   OH224109   5.602   3.188   2.090 -0.1164 -0.0910  0.2506
  873TIP3    H124110   5.644   3.201   2.005  3.5924  0.3757  1.9523
  873TIP3    H224111   5.614   3.094   2.108 -1.1526 -0.2484  0.1512
  874TIP3   OH224112   6.498   2.569   4.625 -1.0993  0.0462 -0.6290
  874TIP3    H124113   6.572   2.582   4.684  0.0316 -2.3138 -1.4264
  874TIP3    H224114   6.456   2.655   4.621  0.1987  0.8919  1.6599
  875TIP3   OH224115   0.865   6.022   5.981 -0.9366  0.0054 -0.2004
  875TIP3    H124116   0.916   5.972   5.917  0.0618 -0.9937  1.3222
  875TIP3    H224117   0.882   6.114   5.959 -1.8852 -0.2797 -2.3292
  876TIP3   OH224118   0.539   0.067   4.162 -0.2086  0.4148 -0.2973
  876TIP3    H124119   0.444   0.072   4.158 -0.2238 -0.2323 -0.9581
  876TIP3    H224120   0.569   0.144   4.114 -0.4326 -1.2902 -3.4620
  877TIP3   OH224121   0.311   0.843  16.619  0.5574 -0.9746 -0.3064
  877TIP3    H124122   0.375   0.872  16.554  0.1607 -0.0169 -0.2898
  877TIP3    H224123   0.290   0.753  16.594  0.1789 -0.5205 -1.7019
  878TIP3   OH224124   3.406   6.646  10.588 -0.1421  0.0352 -0.1571
  878TIP3    H124125   3.501   6.646  10.583  0.0336 -1.5978  1.9365
  878TIP3    H224126   3.378   6.588  10.518  0.4293  0.0164 -0.3680
  879TIP3   OH224127   6.116   4.933   0.708  0.2679  0.7629 -0.0449
  879TIP3    H124128   6.187   4.996   0.725  0.5077  0.7337 -0.9253
  879TIP3    H224129   6.101   4.892   0.793  0.7711  1.3281  0.3292
  880TIP3   OH224130   3.909   4.888  16.332  0.2863 -0.0308 -0.2558
  880TIP3    H124131   3.868   4.888  16.419 -1.1431  0.7276 -0.8891
  880TIP3    H224132   3.922   4.796  16.312 -0.2301 -0.2523  0.3806
  881TIP3   OH224133   5.448   2.142  15.640  0.0334  0.2243  0.4806
  881TIP3    H124134   5.366   2.103  15.671  0.1047  0.1604  0.5893
  881TIP3    H224135   5.493   2.169  15.720 -1.0371  2.6583  0.3423
  882TIP3   OH224136   4.296   2.316   4.876  0.2282  0.1516  0.5237
  882TIP3    H124137   4.346   2.241   4.844  0.3655  1.0964 -1.6339
  882TIP3    H224138   4.210   2.307   4.835 -0.5684 -0.0673  2.1596
  883TIP3   OH224139   4.312   5.229  16.983 -0.1946  0.2888  0.2678
  883TIP3    H124140   4.407   5.238  16.974 -0.2026  1.0001  0.8178
  883TIP3    H224141   4.287   5.168  16.914  0.4999  1.0134 -0.6441
  884TIP3   OH224142   5.182   0.419   2.888 -0.3296 -0.0095  0.2795
  884TIP3    H124143   5.258   0.465   2.852 -0.1842 -0.4213  0.0451
  884TIP3    H224144   5.115   0.427   2.820 -0.8387  1.1897  0.8855
  885TIP3   OH224145   5.013   6.548   3.385 -0.2992 -0.2965  0.3137
  885TIP3    H124146   4.948   6.601   3.339 -0.0411  0.1816  0.4848
  885TIP3    H224147   4.976   6.538   3.474 -0.0708  0.1033  0.4550
  886TIP3   OH224148   3.051   1.297   0.308 -0.0912  1.0719 -0.0046
  886TIP3    H124149   2.969   1.336   0.338 -0.8373  0.8284 -1.6191
  886TIP3    H224150   3.080   1.243   0.381 -1.5319  0.9235  0.4899
  887TIP3   OH224151   0.822   6.624   2.914  0.3860 -0.5727  0.3003
  887TIP3    H124152   0.868   6.582   2.986  2.0673 -1.2955 -1.1274
  887TIP3    H224153   0.885   6.625   2.842 -0.9084  0.9627 -0.8910
  888TIP3   OH224154   4.826   0.078  16.064  0.1167  0.2700 -0.1593
  888TIP3    H124155   4.865   0.041  16.142  0.6796  1.7141  0.2888
  888TIP3    H224156   4.901   0.101  16.008 -0.2933 -1.3221 -1.4233
  889TIP3   OH224157   3.357   6.604   2.602  0.4480 -0.6264  0.2975
  889TIP3    H124158   3.292   6.559   2.548 -0.0885  0.4947 -0.0345
  889TIP3    H224159   3.306   6.649   2.669  1.0606 -1.4264  1.3335
  890TIP3   OH224160   5.342   4.267  15.942  0.3550 -0.5317 -0.3954
  890TIP3    H124161   5.311   4.234  15.858  1.1169  0.5709 -1.1316
  890TIP3    H224162   5.400   4.340  15.920 -0.0208  0.2743  1.1133
  891TIP3   OH224163   5.377   5.541   5.938 -0.0837 -0.3478  0.2792
  891TIP3    H124164   5.367   5.463   5.992  0.7170 -2.5899 -2.5794
  891TIP3    H224165   5.455   5.524   5.885  0.6780  2.8412  0.1093
  892TIP3   OH224166   2.428   5.403  11.351  0.6238  0.1106 -0.3063
  892TIP3    H124167   2.495   5.336  11.367 -1.6445 -2.0781  0.7607
  892TIP3    H224168   2.439   5.466  11.422  0.7154 -0.9620  0.6546
  893TIP3   OH224169   2.245   3.984  14.021  0.0190 -0.3701 -0.0990
  893TIP3    H124170   2.274   3.894  14.005  0.2876 -0.1665 -0.8099
  893TIP3    H224171   2.190   4.005  13.946 -0.8485 -0.2715  0.5539
  894TIP3   OH224172   6.506   3.316   4.449 -0.4530 -0.3538 -0.1420
  894TIP3    H124173   6.420   3.303   4.489 -0.0002  0.5800  1.2088
  894TIP3    H224174   6.499   3.402   4.407  0.8035  1.4296  2.9513
  895TIP3   OH224175   2.414   6.065  14.083  0.2646 -0.1096  0.1450
  895TIP3    H124176   2.399   5.982  14.038  0.7505  0.5484 -1.3013
  895TIP3    H224177   2.426   6.041  14.175  1.9025 -1.8407 -0.4500
  896TIP3   OH224178   6.540   2.755   3.061  0.1515  0.0982  0.0909
  896TIP3    H124179   6.532   2.751   3.156 -0.8418 -0.0961  0.0018
  896TIP3    H224180   6.572   2.843   3.043 -0.5877  0.4633  0.5465
  897TIP3   OH224181   3.459   4.180   3.286 -0.1681 -0.4316 -0.4448
  897TIP3    H124182   3.496   4.231   3.214  0.2228 -1.1097 -0.7362
  897TIP3    H224183   3.372   4.157   3.256  0.1170 -1.0003 -0.8563
  898TIP3   OH224184   5.891   1.178  16.112 -0.0875  0.7398  0.0974
  898TIP3    H124185   5.977   1.175  16.070  0.3126  0.7490  0.8999
  898TIP3    H224186   5.865   1.270  16.109 -0.0597  0.7408 -0.1215
  899TIP3   OH224187   0.579   4.085  11.285 -0.1279 -0.9480  0.5152
  899TIP3    H124188   0.486   4.106  11.296 -0.0640 -0.7605  0.7178
  899TIP3    H224189   0.619   4.168  11.258 -0.2433 -1.3544 -0.9708
  900TIP3   OH224190   0.663   2.448  13.108  0.3656 -0.4075 -0.5506
  900TIP3    H124191   0.613   2.416  13.183 -0.0099 -2.0260 -1.4513
  900TIP3    H224192   0.597   2.467  13.042  0.5812  2.2724 -0.1062
  901TIP3   OH224193   4.119   0.584   5.516 -0.2213  0.3442 -0.1722
  901TIP3    H124194   4.186   0.518   5.498 -1.2800 -0.5936 -0.8121
  901TIP3    H224195   4.164   0.668   5.508  1.1245 -0.2836  0.5231
  902TIP3   OH224196   1.992   6.340  14.099 -0.5004 -0.2285  0.4829
  902TIP3    H124197   1.967   6.269  14.039 -0.8139 -0.5357  0.9709
  902TIP3    H224198   2.087   6.341  14.096 -0.4926  1.6143 -2.1675
  903TIP3   OH224199   5.480   6.288   5.069 -0.1552 -0.4534 -0.2026
  903TIP3    H124200   5.501   6.360   5.010  1.1720 -0.3508  0.3521
  903TIP3    H224201   5.391   6.305   5.097  0.1332  0.9864 -0.0914
  904TIP3   OH224202   6.417   6.290  13.951  0.4694  0.7227 -0.4357
  904TIP3    H124203   6.443   6.379  13.977  1.0585  0.5144 -0.3097
  904TIP3    H224204   6.348   6.267  14.012  0.3792  1.0592 -0.4059
  905TIP3   OH224205   5.914   2.628  15.518  0.5070 -0.5022  0.0473
  905TIP3    H124206   5.983   2.611  15.583  0.2510  0.6087  0.6354
  905TIP3    H224207   5.903   2.723  15.520 -1.4605 -0.7062  0.3912
  906TIP3   OH224208   2.053   3.205  13.757 -0.5812 -0.4877  0.4518
  906TIP3    H124209   2.115   3.167  13.820 -0.1762  1.5096  1.3391
  906TIP3    H224210   2.086   3.293  13.742 -1.0444 -0.6888 -2.1185
  907TIP3   OH224211   5.254   1.630   5.582 -0.2423 -0.4005 -0.1087
  907TIP3    H124212   5.324   1.639   5.517 -1.9888 -1.0542 -2.2298
  907TIP3    H224213   5.282   1.683   5.656  1.4885  1.0939 -1.7406
  908TIP3   OH224214   2.213   0.523  14.436 -0.4637 -0.7612 -0.1607
  908TIP3    H124215   2.303   0.552  14.421 -0.4306 -1.5273 -1.6297
  908TIP3    H224216   2.158   0.595  14.407 -0.3394 -0.4644  0.3308
  909TIP3   OH224217   1.725   5.159  13.150  0.0879  0.5390  0.3768
  909TIP3    H124218   1.819   5.143  13.156 -0.2330 -2.7442 -1.1150
  909TIP3    H224219   1.708   5.166  13.056 -1.2230  0.6090  0.6047
  910TIP3   OH224220   0.388   0.347  16.561 -0.4484  0.0330 -0.1823
  910TIP3    H124221   0.482   0.337  16.575 -0.0956 -1.0345 -2.8623
  910TIP3    H224222   0.349   0.314  16.643  1.4599  0.4047  0.9466
  911TIP3   OH224223   2.971   2.604  13.784 -0.0570  0.1871 -0.2223
  911TIP3    H124224   2.971   2.655  13.703 -0.3416  0.8532  0.1878
  911TIP3    H224225   2.883   2.568  13.790  0.0017  0.0354 -0.2731
  912TIP3   OH224226   0.161   2.786  15.349  0.0810 -0.0497 -0.3188
  912TIP3    H124227   0.106   2.847  15.300  1.7566  1.4012 -0.4737
  912TIP3    H224228   0.243   2.781  15.299 -0.8543 -4.6695 -1.9325
  913TIP3   OH224229   0.882   3.778   5.631  0.0766  0.0764 -0.3514
  913TIP3    H124230   0.928   3.770   5.547 -0.5900  1.9019 -0.9445
  913TIP3    H224231   0.912   3.861   5.667 -2.0680  0.9236 -0.3734
  914TIP3   OH224232   3.656   3.342   4.928  0.1110 -0.2506  0.4456
  914TIP3    H124233   3.680   3.350   5.021 -1.8311  0.4010  0.9388
  914TIP3    H224234   3.594   3.269   4.926  1.4668 -1.4265 -0.6641
  915TIP3   OH224235   5.134   6.237   2.195  0.1137  0.2674 -0.2121
  915TIP3    H124236   5.094   6.151   2.199  0.6733  0.0517  1.0948
  915TIP3    H224237   5.130   6.261   2.102  0.7404 -1.5254 -0.7284
  916TIP3   OH224238   6.206   3.666  15.533 -0.6356  0.0865 -0.6410
  916TIP3    H124239   6.225   3.752  15.570 -2.1459 -0.9609  3.1275
  916TIP3    H224240   6.134   3.681  15.472 -2.5095  1.3850  1.6769
  917TIP3   OH224241   4.959   0.348   1.604 -0.0168  0.1243 -0.1071
  917TIP3    H124242   4.974   0.277   1.542  0.9071  0.9834 -0.9143
  917TIP3    H224243   4.926   0.305   1.683  2.4223 -1.4735  0.1649
  918TIP3   OH224244   3.266   4.435  14.917 -0.2640  0.2286  0.2757
  918TIP3    H124245   3.217   4.515  14.934  0.8304  0.9683  0.0080
  918TIP3    H224246   3.258   4.422  14.822  0.7792  0.8475  0.0898
  919TIP3   OH224247   1.296   3.628   3.691 -0.0443 -0.0897  0.1131
  919TIP3    H124248   1.221   3.590   3.644  0.3325 -1.0680  0.2678
  919TIP3    H224249   1.335   3.690   3.629 -0.5049 -0.1730 -0.2656
  920TIP3   OH224250   3.422   6.127   0.619 -0.0332 -0.1879  0.4667
  920TIP3    H124251   3.338   6.172   0.603 -0.0616 -0.1532  0.7196
  920TIP3    H224252   3.447   6.154   0.707  0.5736  0.3191  0.1488
  921TIP3   OH224253   4.088   1.343   1.766  0.5282 -0.2927 -0.0386
  921TIP3    H124254   4.117   1.428   1.734  2.8928 -0.5721  1.1097
  921TIP3    H224255   4.112   1.281   1.697 -0.8158 -0.0975 -0.6967
  922TIP3   OH224256   2.223   5.957   4.686 -0.0630 -0.6854 -0.3635
  922TIP3    H124257   2.192   6.048   4.684  0.2287 -0.5957 -1.7925
  922TIP3    H224258   2.314   5.962   4.714 -0.1416 -0.5800 -0.1221
  923TIP3   OH224259   5.235   1.103  14.031 -0.5696  0.3589  0.5930
  923TIP3    H124260   5.314   1.055  14.056 -0.3396  0.3651 -0.0973
  923TIP3    H224261   5.197   1.052  13.960 -1.1493  0.4019  0.8628
  924TIP3   OH224262   6.024   4.419   1.419  0.4051 -0.4701 -0.0592
  924TIP3    H124263   5.983   4.453   1.499 -1.5253  0.0845 -1.1976
  924TIP3    H224264   6.097   4.478   1.403  0.0099  0.2268  0.5887
  925TIP3   OH224265   4.805   5.870   2.621  0.5446  0.4839 -0.6284
  925TIP3    H124266   4.881   5.925   2.603  1.1428  0.4751  1.5996
  925TIP3    H224267   4.732   5.931   2.625  1.0590  1.0317  0.9146
  926TIP3   OH224268   0.224   0.334  13.467 -0.5903  0.2486  0.2440
  926TIP3    H124269   0.276   0.406  13.433  1.3975 -0.5063  1.5134
  926TIP3    H224270   0.155   0.376  13.519  0.1903  1.2537  0.4980
  927TIP3   OH224271   6.492   0.596   4.296 -0.3584  0.0758  0.1776
  927TIP3    H124272   6.486   0.674   4.352 -2.8749 -0.4139  0.6929
  927TIP3    H224273   6.461   0.524   4.351  1.5830 -1.2836 -0.4075
  928TIP3   OH224274   3.882   6.673  14.592 -0.7995  0.3149  0.7140
  928TIP3    H124275   3.812   6.663  14.528  0.5054  0.4202 -0.7959
  928TIP3    H224276   3.849   6.737  14.655 -2.3902 -0.3249  0.5665
  929TIP3   OH224277   5.152   1.633  16.783 -0.1648  0.0753  0.5621
  929TIP3    H124278   5.086   1.641  16.852 -0.3093  1.1428  0.3080
  929TIP3    H224279   5.228   1.680  16.817 -1.2144  3.2867 -1.1860
  930TIP3   OH224280   4.884   1.810   3.469 -0.0040 -0.1152 -0.1671
  930TIP3    H124281   4.957   1.749   3.458 -0.5406 -0.6713 -0.7027
  930TIP3    H224282   4.806   1.755   3.466 -0.5356  0.6770 -1.3652
  931TIP3   OH224283   1.938   5.405  10.974 -0.1402 -0.5340  0.2310
  931TIP3    H124284   1.958   5.427  10.883  0.5583 -0.8550  0.2972
  931TIP3    H224285   1.931   5.310  10.974 -0.6806 -0.4957  0.4140
  932TIP3   OH224286   4.242   2.641   0.400  0.1282  0.0809  0.7835
  932TIP3    H124287   4.295   2.595   0.465  2.0586  2.8530  1.3846
  932TIP3    H224288   4.306   2.669   0.334 -1.6459 -1.8871 -1.9779
  933TIP3   OH224289   3.822   5.973  13.378 -0.5538 -0.1034 -0.0920
  933TIP3    H124290   3.908   6.016  13.381 -0.2807 -0.5831  3.1034
  933TIP3    H224291   3.762   6.037  13.417 -0.2245 -2.0974  4.2972
  934TIP3   OH224292   0.025   0.977  16.357  0.0669 -0.0792 -0.0370
  934TIP3    H124293   0.066   0.902  16.314  0.4194  0.5924 -0.8850
  934TIP3    H224294   0.092   1.009  16.417  0.0487 -0.2146  0.0565
  935TIP3   OH224295   1.342   6.644  15.018 -0.4243  0.4382 -0.4560
  935TIP3    H124296   1.337   6.618  14.926 -0.0402  1.7991 -0.8858
  935TIP3    H224297   1.379   6.568  15.063  1.2457  0.4498 -1.7446
  936TIP3   OH224298   3.876   3.950  11.412 -0.2993 -0.4867  0.0464
  936TIP3    H124299   3.962   3.958  11.370 -0.4096 -1.2085 -0.3224
  936TIP3    H224300   3.863   3.856  11.423 -1.5538 -0.4642 -0.9732
  937TIP3   OH224301   0.018   5.875   1.336  0.2665  0.4415 -0.3189
  937TIP3    H124302  -0.070   5.837   1.326  0.7577 -1.1781  1.0545
  937TIP3    H224303   0.002   5.964   1.365 -0.9292  1.3661 -3.4296
  938TIP3   OH224304   6.677   6.069   6.543 -0.0065 -0.3113 -0.3372
  938TIP3    H124305   6.601   6.087   6.599  0.4371  0.7813 -0.0653
  938TIP3    H224306   6.752   6.071   6.603  0.3849 -0.0078 -0.8254
  939TIP3   OH224307   5.023   6.212   1.273  0.0925  0.1419  0.1625
  939TIP3    H124308   5.062   6.276   1.214  0.0805 -1.6932 -1.9722
  939TIP3    H224309   5.097   6.164   1.309  0.2222  2.2378  3.0424
  940TIP3   OH224310   2.937   6.133  11.797 -0.1811  0.1214  0.0532
  940TIP3    H124311   2.962   6.125  11.705  3.1276  0.5412  0.8021
  940TIP3    H224312   2.989   6.206  11.829 -3.3227  1.8142  1.6826
  941TIP3   OH224313   6.773   1.869   1.234  0.4107 -0.5563  0.3136
  941TIP3    H124314   6.807   1.780   1.243  2.9370  0.4630  1.4490
  941TIP3    H224315   6.727   1.885   1.316 -0.5361 -0.9518 -0.1143
  942TIP3   OH224316   6.639   5.353   6.552  0.3321  0.1513 -0.0277
  942TIP3    H124317   6.706   5.305   6.504  3.0148 -0.5825  3.9469
  942TIP3    H224318   6.595   5.287   6.606  0.4021  1.3369  1.5783
  943TIP3   OH224319   6.345   0.457   6.296  0.1650 -0.0721  0.5189
  943TIP3    H124320   6.278   0.420   6.353 -0.1313 -0.5086 -0.0967
  943TIP3    H224321   6.378   0.382   6.246  1.2554  0.1066  0.9555
  944TIP3   OH224322   3.214   3.145  12.931 -0.0281  0.0229 -0.4926
  944TIP3    H124323   3.234   3.233  12.899 -1.5019  0.8494  0.7727
  944TIP3    H224324   3.288   3.092  12.901  1.4862  1.9059 -0.2642
  945TIP3   OH224325   1.774   1.208  16.891  0.2856  0.0764  0.7891
  945TIP3    H124326   1.801   1.126  16.933 -3.1085  0.0357  3.2700
  945TIP3    H224327   1.741   1.262  16.962 -1.6276  1.8488 -1.2985
  946TIP3   OH224328   0.981   6.541   6.036  0.2090  0.0529  0.2259
  946TIP3    H124329   0.964   6.635   6.036 -0.2828 -0.0114  1.5804
  946TIP3    H224330   1.076   6.535   6.045  0.2186  0.4171  0.4063
  947TIP3   OH224331   4.376   3.457   3.193 -0.5268 -0.7220  0.5508
  947TIP3    H124332   4.471   3.442   3.191 -0.2302  0.9894 -0.0685
  947TIP3    H224333   4.341   3.399   3.126  0.3839  0.2099 -0.7925
  948TIP3   OH224334   6.259   3.308   5.993 -0.3115  0.4435  0.5352
  948TIP3    H124335   6.204   3.264   6.057 -1.9270 -0.6824 -1.4782
  948TIP3    H224336   6.321   3.241   5.964 -1.5021 -0.0288 -1.1122
  949TIP3   OH224337   1.733   0.097  11.411  0.0112  0.0812 -0.2681
  949TIP3    H124338   1.779   0.097  11.327  1.7967  0.2562  0.6623
  949TIP3    H224339   1.797   0.062  11.473 -1.1239  0.3581  1.1087
  950TIP3   OH224340   1.259   5.810   0.521  0.5506 -1.0822 -0.1082
  950TIP3    H124341   1.165   5.791   0.525  0.3841 -0.1396  1.3403
  950TIP3    H224342   1.272   5.848   0.434 -1.3202  2.7657  1.0445
  951TIP3   OH224343   4.891   1.615   4.129 -0.4371 -0.1780 -0.9454
  951TIP3    H124344   4.926   1.703   4.117 -0.9824 -0.1707 -2.6665
  951TIP3    H224345   4.803   1.618   4.093 -1.4732 -0.7808  1.3199
  952TIP3   OH224346   6.262   1.589  11.447  0.3543  0.9058 -0.7460
  952TIP3    H124347   6.289   1.526  11.514  1.0009  1.4758 -0.4596
  952TIP3    H224348   6.169   1.569  11.432  0.1387  0.8873  0.4625
  953TIP3   OH224349   1.941   0.166  12.427 -0.0993  0.3199 -0.0846
  953TIP3    H124350   1.987   0.083  12.437  0.0338  0.5528  1.3444
  953TIP3    H224351   1.930   0.176  12.332  0.4772 -0.9914 -0.3047
  954TIP3   OH224352   1.659   0.456   4.010  0.0274 -0.0609 -0.2852
  954TIP3    H124353   1.747   0.443   4.046  0.1718  0.1890 -0.5457
  954TIP3    H224354   1.649   0.386   3.946 -0.1862 -0.4369  0.1499
  955TIP3   OH224355   4.074   3.532  11.305 -0.0845  0.6715  0.7545
  955TIP3    H124356   4.154   3.487  11.334  0.8537  1.2046 -0.9171
  955TIP3    H224357   4.034   3.472  11.243 -0.6570  0.6918  1.0972
  956TIP3   OH224358   5.320   4.695  16.431 -0.4737 -0.0215 -0.0912
  956TIP3    H124359   5.299   4.788  16.439  2.6978  1.0992 -2.5064
  956TIP3    H224360   5.310   4.676  16.338  2.5913 -0.9220 -0.3703
  957TIP3   OH224361   3.317   6.276  15.308 -0.3136 -0.2710 -0.0824
  957TIP3    H124362   3.231   6.251  15.340 -1.5484  0.1113 -2.8003
  957TIP3    H224363   3.344   6.202  15.253  1.1790 -0.4264  0.7988
  958TIP3   OH224364   4.817   2.131   0.187  0.4043 -0.1051  0.0969
  958TIP3    H124365   4.902   2.103   0.221  0.6644 -1.5742 -1.6189
  958TIP3    H224366   4.754   2.076   0.231  0.1905  1.5791  2.0308
  959TIP3   OH224367   4.888   1.927   6.587  0.3972  0.3705  0.2810
  959TIP3    H124368   4.968   1.905   6.635  0.3307 -0.1676  0.1537
  959TIP3    H224369   4.885   1.863   6.516  1.0559  1.8162 -1.1030
  960TIP3   OH224370   5.000   1.892   6.920 -0.2260 -0.0274  0.2878
  960TIP3    H124371   5.058   1.849   6.982 -0.4752 -2.3167 -0.9821
  960TIP3    H224372   5.035   1.870   6.834 -0.5811  2.0596 -0.4573
  961TIP3   OH224373   5.245   3.705  12.729  0.2068 -0.1082 -0.5470
  961TIP3    H124374   5.186   3.679  12.800  0.3040 -0.5925 -0.6376
  961TIP3    H224375   5.189   3.751  12.667  0.4314  1.8748  0.6398
  962TIP3   OH224376   4.819   5.617  17.175  0.3449 -0.0568  0.0937
  962TIP3    H124377   4.845   5.601  17.266 -1.0434  1.0372  0.7191
  962TIP3    H224378   4.731   5.580  17.168  0.3229  0.1203 -0.7333
  963TIP3   OH224379   4.929   0.340  13.505  0.1228  0.0532  0.3887
  963TIP3    H124380   4.937   0.246  13.494 -1.1722  0.1368 -2.0401
  963TIP3    H224381   4.849   0.352  13.556  0.4176 -0.1427  0.9064
  964TIP3   OH224382   0.105   0.266   3.313  0.3719 -0.6064 -0.5475
  964TIP3    H124383   0.068   0.189   3.269 -0.7998  0.5446 -1.7059
  964TIP3    H224384   0.194   0.273   3.278 -0.8664  0.9146 -3.8227
  965TIP3   OH224385   4.840   2.201  11.374 -0.3627  0.1771 -0.3420
  965TIP3    H124386   4.841   2.138  11.446  1.4260 -0.6157 -0.9861
  965TIP3    H224387   4.776   2.267  11.400 -0.8124 -0.8505  1.2883
  966TIP3   OH224388   2.833   1.211   1.117  0.2138 -0.3162 -0.1305
  966TIP3    H124389   2.921   1.175   1.123 -0.4523 -1.8877  0.5988
  966TIP3    H224390   2.786   1.175   1.192 -1.1651  0.1749 -0.7092
  967TIP3   OH224391   6.038   5.616   2.473  0.1601 -0.1621 -0.4004
  967TIP3    H124392   5.946   5.593   2.481  0.5646 -3.1631 -2.8322
  967TIP3    H224393   6.039   5.690   2.412 -0.6661  0.8266  0.7438
  968TIP3   OH224394   3.366   4.518  15.651  0.0733 -0.1488  0.4950
  968TIP3    H124395   3.279   4.482  15.634 -0.2874  1.3381 -1.0354
  968TIP3    H224396   3.425   4.459  15.605 -0.3197 -0.0062 -0.2047
  969TIP3   OH224397   3.059   5.776  12.596 -1.0592 -0.1442 -0.4842
  969TIP3    H124398   2.994   5.803  12.532 -0.9698 -0.3143 -0.6489
  969TIP3    H224399   3.094   5.859  12.630  1.5806  0.1273 -3.3614
  970TIP3   OH224400   1.695   4.640  16.418 -0.1867  0.1702 -0.0107
  970TIP3    H124401   1.768   4.628  16.358 -0.9909 -0.4179 -0.9048
  970TIP3    H224402   1.674   4.552  16.450  1.5386  0.6444  2.8121
  971TIP3   OH224403   2.905   1.740  11.731  0.4301 -0.0025 -0.1281
  971TIP3    H124404   2.829   1.791  11.761 -0.7873 -0.7628 -1.7816
  971TIP3    H224405   2.935   1.693  11.808  0.2748  1.5914  0.9421
  972TIP3   OH224406   4.753   2.477  12.308  0.0298  0.1924  0.0204
  972TIP3    H124407   4.692   2.458  12.379  0.4733  1.0599  0.6547
  972TIP3    H224408   4.826   2.418  12.322 -0.1016  0.0264  0.0026
  973TIP3   OH224409   3.982   3.423  14.831  0.1083 -0.5313  0.3297
  973TIP3    H124410   3.943   3.415  14.917  1.0989 -2.6627  0.6429
  973TIP3    H224411   4.072   3.450  14.847  0.2872 -0.8931 -0.0293
  974TIP3   OH224412   5.786   4.253   2.388 -0.3715  0.1068  0.3929
  974TIP3    H124413   5.844   4.307   2.443  0.8293 -2.3352  1.7282
  974TIP3    H224414   5.771   4.305   2.310  0.7118  2.3249  1.5616
  975TIP3   OH224415   3.453   4.616  16.587  0.5092 -0.4733 -0.0019
  975TIP3    H124416   3.525   4.553  16.576  1.1093  0.5031 -2.5301
  975TIP3    H224417   3.375   4.567  16.562  0.3606 -1.3188  1.9977
  976TIP3   OH224418   1.911   1.700   4.463  0.1076  0.0764 -0.4174
  976TIP3    H124419   1.916   1.642   4.386 -0.6779 -1.2370  0.4798
  976TIP3    H224420   1.817   1.710   4.479  0.2507  1.1448 -0.1996
  977TIP3   OH224421   1.406   3.680   5.414 -0.0258  0.4327  0.2872
  977TIP3    H124422   1.414   3.610   5.350 -0.5804  1.1618 -0.6124
  977TIP3    H224423   1.379   3.636   5.495  1.1543 -0.5548  0.1607
  978TIP3   OH224424   5.814   4.211   4.734  0.2552  0.1649 -0.2153
  978TIP3    H124425   5.859   4.293   4.714 -0.5442  0.0495 -2.9020
  978TIP3    H224426   5.883   4.153   4.768  0.9376  1.7250  1.1845
  979TIP3   OH224427   0.926   5.128  13.544  0.2923  0.1012  0.7680
  979TIP3    H124428   0.952   5.196  13.606 -0.0861 -0.4012  1.4940
  979TIP3    H224429   0.833   5.143  13.530  0.4608  0.4730 -0.0249
  980TIP3   OH224430   6.223   6.683  14.836  0.0223 -0.5655 -0.5082
  980TIP3    H124431   6.303   6.713  14.879 -0.9539  0.6957  0.4891
  980TIP3    H224432   6.169   6.647  14.906 -1.2357  0.7320 -0.7590
  981TIP3   OH224433   5.920   6.503   4.166  0.0403 -0.1979 -0.3638
  981TIP3    H124434   5.932   6.498   4.071  0.6157  2.5053 -0.5247
  981TIP3    H224435   5.870   6.424   4.188 -2.5574  0.3821 -3.3228
  982TIP3   OH224436   5.838   0.840  12.988 -0.3006  0.4175  0.6266
  982TIP3    H124437   5.804   0.926  13.012 -2.3220  0.8324 -3.0938
  982TIP3    H224438   5.763   0.782  12.994 -0.1098 -0.0769 -1.3408
  983TIP3   OH224439   1.666   5.180  14.158  0.1520 -0.1590 -0.1319
  983TIP3    H124440   1.585   5.162  14.205 -0.1694 -0.3914 -0.7626
  983TIP3    H224441   1.667   5.116  14.087  1.8357 -1.4403  0.9825
  984TIP3   OH224442   5.560   3.875  15.279 -0.3338  0.4603 -0.2905
  984TIP3    H124443   5.484   3.821  15.260 -0.3893  0.7892 -1.0449
  984TIP3    H224444   5.593   3.901  15.193 -0.4017  1.7580  0.0560
  985TIP3   OH224445   5.152   1.518  13.351  0.3582  0.1262  0.2012
  985TIP3    H124446   5.115   1.430  13.340 -0.0639  0.3891 -0.5366
  985TIP3    H224447   5.226   1.506  13.409  0.0597 -0.6621  0.4293
  986TIP3   OH224448   3.546   1.226   0.655 -0.2300  0.0364 -0.3994
  986TIP3    H124449   3.609   1.163   0.690  1.8171  1.1872 -1.7480
  986TIP3    H224450   3.598   1.278   0.594 -2.4843  1.2657 -1.3453
  987TIP3   OH224451   0.352   6.076  16.684  0.1772 -0.0174  0.7348
  987TIP3    H124452   0.333   6.157  16.636  0.9563 -1.2202 -1.8261
  987TIP3    H224453   0.292   6.076  16.758 -1.1562  1.9802 -0.2765
  988TIP3   OH224454   6.075   6.324  14.810  0.5797 -0.0039  0.2602
  988TIP3    H124455   6.066   6.299  14.902 -0.7393  1.7930  0.6862
  988TIP3    H224456   6.111   6.247  14.767 -0.9005 -1.6888  1.8776
  989TIP3   OH224457   4.351   2.573   4.999 -0.0584 -0.1580 -0.0784
  989TIP3    H124458   4.353   2.635   5.072  2.2561 -0.3477  0.1052
  989TIP3    H224459   4.355   2.487   5.040  0.4686 -0.2904 -0.4011
  990TIP3   OH224460   3.553   3.438   2.784 -0.3301  0.2065  0.7280
  990TIP3    H124461   3.516   3.517   2.745 -0.1502 -1.1308 -2.4975
  990TIP3    H224462   3.648   3.452   2.782 -0.3052 -0.0135  0.3080
  991TIP3   OH224463   4.561   4.068  14.771 -0.1765  0.5441 -0.2289
  991TIP3    H124464   4.485   4.065  14.829  0.5131  0.9883  0.7185
  991TIP3    H224465   4.534   4.125  14.699 -1.4412 -0.9034 -0.9823
  992TIP3   OH224466   0.330   3.219  15.832 -0.4866  0.3352 -0.2448
  992TIP3    H124467   0.417   3.260  15.841 -0.0704 -0.0323 -2.0686
  992TIP3    H224468   0.333   3.143  15.890  0.6528 -0.0001 -0.7002
  993TIP3   OH224469   6.096   4.203   1.204  0.7563  0.5262  0.3308
  993TIP3    H124470   6.106   4.261   1.279 -2.4659 -1.2433  2.3876
  993TIP3    H224471   6.011   4.226   1.167  1.3150 -0.1076 -1.4443
  994TIP3   OH224472   4.706   3.209  15.316 -0.3095  0.0875 -0.6138
  994TIP3    H124473   4.644   3.168  15.256 -1.5768 -2.3699  2.1696
  994TIP3    H224474   4.666   3.293  15.340 -2.5065 -1.2966  0.8506
  995TIP3   OH224475   0.197   1.210  11.455  0.1094  1.0306 -0.0447
  995TIP3    H124476   0.134   1.141  11.434  1.5898  0.1983 -2.1188
  995TIP3    H224477   0.216   1.250  11.370  0.4484  2.9896  0.9136
  996TIP3   OH224478   2.161   3.284  14.412 -0.6420 -0.3222  0.2860
  996TIP3    H124479   2.208   3.359  14.374 -1.6458 -0.2772 -0.9082
  996TIP3    H224480   2.190   3.209  14.361 -2.2438 -0.2139 -0.8465
  997TIP3   OH224481   2.926   5.563  14.889 -0.1932 -0.4122  0.4834
  997TIP3    H124482   2.867   5.534  14.958 -1.1383  0.6421  0.1519
  997TIP3    H224483   2.913   5.499  14.818  0.9621 -1.6385  1.3332
  998TIP3   OH224484   5.122   0.715  16.763 -0.0138 -0.1915  0.0589
  998TIP3    H124485   5.131   0.801  16.803  0.3143 -0.1283 -0.1434
  998TIP3    H224486   5.168   0.723  16.679  1.6232 -1.0932  0.8375
  999TIP3   OH224487   3.057   5.490   0.976  0.4912 -0.7309  0.0741
  999TIP3    H124488   3.135   5.448   0.939  0.1997 -1.7132  0.5257
  999TIP3    H224489   2.994   5.418   0.985 -0.2430 -0.0697  0.3102
 1000TIP3   OH224490   2.524   3.131   3.405  0.0351 -0.1389  0.3868
 1000TIP3    H124491   2.501   3.219   3.373  0.0751 -0.1716  0.2667
 1000TIP3    H224492   2.619   3.136   3.422 -0.0299 -0.0524  0.7266
 1001TIP3   OH224493   5.423   1.265   0.616 -0.2975 -0.0256 -0.5377
 1001TIP3    H124494   5.331   1.291   0.609 -0.2237  0.1751 -0.7883
 1001TIP3    H224495   5.467   1.315   0.547  0.3630  1.5720  0.9774
 1002TIP3   OH224496   2.533   2.584   4.960  0.1330  0.1492  0.2506
 1002TIP3    H124497   2.444   2.557   4.982  0.6193 -0.2435  1.9232
 1002TIP3    H224498   2.533   2.679   4.974  0.2777 -0.0154  1.5381
 1003TIP3   OH224499   6.608   5.944   5.664 -0.4490 -0.7255  0.1360
 1003TIP3    H124500   6.691   5.900   5.681  0.3650  0.7781  0.1894
 1003TIP3    H224501   6.587   5.988   5.747  0.5160  1.7582 -0.8372
 1004TIP3   OH224502   4.444   1.582   2.687 -0.4278  0.2287  0.3845
 1004TIP3    H124503   4.482   1.593   2.600 -1.3792 -2.3612 -0.4857
 1004TIP3    H224504   4.375   1.648   2.692  0.8228  1.6002 -0.0625
 1005TIP3   OH224505   6.433   6.178   6.651 -0.1492 -0.5121 -0.2517
 1005TIP3    H124506   6.405   6.249   6.709 -0.5279 -1.8115  1.2293
 1005TIP3    H224507   6.416   6.211   6.563  2.5691  2.4311  0.1746
 1006TIP3   OH224508   4.668   0.401  15.095  0.0559  0.3266 -0.2277
 1006TIP3    H124509   4.621   0.433  15.172  0.4747  0.9664 -0.2249
 1006TIP3    H224510   4.620   0.323  15.068  0.1758 -0.1765  0.9602
 1007TIP3   OH224511   1.047   1.703  15.776  0.2902 -0.4211 -0.4207
 1007TIP3    H124512   0.988   1.772  15.746 -0.6579 -1.1119 -0.2124
 1007TIP3    H224513   1.002   1.665  15.852  1.6096 -0.1367  0.5272
 1008TIP3   OH224514   4.676   0.658   2.134  0.1399  0.0212 -0.3276
 1008TIP3    H124515   4.765   0.655   2.168  0.2204 -0.3078 -0.5651
 1008TIP3    H224516   4.621   0.659   2.212  0.2469 -2.7695 -0.1057
 1009TIP3   OH224517   5.646   0.608  12.931  0.4380  0.4535 -0.4817
 1009TIP3    H124518   5.564   0.644  12.962  0.3539  0.1986 -0.3994
 1009TIP3    H224519   5.627   0.515  12.915  0.8339  0.2787  0.0153
 1010TIP3   OH224520   5.632   5.795  12.074  0.5652  0.2702 -0.1541
 1010TIP3    H124521   5.551   5.764  12.114  0.0506  3.2869  1.4753
 1010TIP3    H224522   5.677   5.716  12.046 -1.7699 -1.6727  1.1816
 1011TIP3   OH224523   2.669   1.298  16.578  0.0881  0.7074  0.3939
 1011TIP3    H124524   2.652   1.208  16.554  0.5972 -0.2269  3.1112
 1011TIP3    H224525   2.712   1.336  16.502 -2.5065 -0.4866 -1.8277
 1012TIP3   OH224526   6.096   3.312   4.952  0.3989 -0.5853 -0.5256
 1012TIP3    H124527   6.008   3.294   4.984  0.1472  0.2803 -0.6801
 1012TIP3    H224528   6.153   3.296   5.026  0.0754 -0.8813 -0.3418
 1013TIP3   OH224529   1.817   4.348  16.425  0.5434  0.3219 -0.1858
 1013TIP3    H124530   1.818   4.303  16.341  0.9263  2.2022 -1.2299
 1013TIP3    H224531   1.909   4.360  16.448  0.5056 -1.9400  1.5676
 1014TIP3   OH224532   3.192   2.399   5.912 -0.2989 -0.3782  0.3179
 1014TIP3    H124533   3.209   2.430   5.823 -0.6157 -0.4200  0.2421
 1014TIP3    H224534   3.270   2.424   5.961  0.7619 -2.0943 -0.4083
 1015TIP3   OH224535   4.101   4.778   2.767 -0.0501 -0.0436 -0.0066
 1015TIP3    H124536   4.150   4.841   2.713 -0.2613 -0.4159 -0.6355
 1015TIP3    H224537   4.020   4.824   2.789 -1.0151 -0.7171 -1.9591
 1016TIP3   OH224538   5.161   2.151   2.568 -0.2328  0.0977 -0.1157
 1016TIP3    H124539   5.119   2.236   2.581 -0.0446  0.1210  0.3934
 1016TIP3    H224540   5.163   2.113   2.656  0.2166 -0.1778 -0.2454
 1017TIP3   OH224541   5.726   2.470   0.500 -0.1329  0.0623 -0.6705
 1017TIP3    H124542   5.684   2.446   0.418 -0.1542  1.7932 -1.2076
 1017TIP3    H224543   5.813   2.500   0.475  0.0041  0.2350 -0.0163
 1018TIP3   OH224544   6.118   5.160   1.064 -0.4551 -0.0164 -0.0016
 1018TIP3    H124545   6.119   5.079   1.115 -0.4416 -0.5942 -0.8979
 1018TIP3    H224546   6.040   5.207   1.094  0.2034  0.2437  1.4123
 1019TIP3   OH224547   0.170   2.730  15.889  0.4715  0.5011  0.4139
 1019TIP3    H124548   0.092   2.784  15.900 -0.8361 -1.0883 -0.6055
 1019TIP3    H224549   0.182   2.724  15.794  1.8037  0.6528  0.5558
 1020TIP3   OH224550   4.367   4.128  12.830 -0.8206 -0.4082 -0.5860
 1020TIP3    H124551   4.348   4.072  12.906 -0.0975 -0.2626 -0.2975
 1020TIP3    H224552   4.280   4.147  12.794 -1.2404  0.1480  0.6441
 1021TIP3   OH224553   6.736   5.688   5.926  0.2235  0.4663 -0.3440
 1021TIP3    H124554   6.729   5.767   5.871  1.1822  1.7677  1.2990
 1021TIP3    H224555   6.790   5.628   5.874  1.1552  1.6767 -0.8391
 1022TIP3   OH224556   0.620   4.205  16.703  0.2209 -0.1234 -0.3154
 1022TIP3    H124557   0.707   4.200  16.663  0.9416 -0.7658  1.2301
 1022TIP3    H224558   0.619   4.290  16.748 -0.9138  0.9954 -2.3133
 1023TIP3   OH224559   4.152   0.887  14.054 -0.2094  0.1609  0.2791
 1023TIP3    H124560   4.181   0.967  14.011  0.5831 -0.2014  0.1255
 1023TIP3    H224561   4.057   0.895  14.059 -0.0316  1.8953  1.8183
 1024TIP3   OH224562   2.391   6.789  11.336  0.1021  0.2124 -0.1804
 1024TIP3    H124563   2.299   6.790  11.308 -0.4441  2.3171  1.4761
 1024TIP3    H224564   2.387   6.781  11.431  1.6135  0.9744 -0.0245
 1025TIP3   OH224565   0.912   4.144   4.469 -0.6676 -0.6150  0.5009
 1025TIP3    H124566   0.966   4.128   4.547  0.7538 -0.2716 -0.3692
 1025TIP3    H224567   0.899   4.239   4.468  1.8734 -0.1686 -1.2027
 1026TIP3   OH224568   3.100   5.437  10.877  0.0638 -0.1790  0.4470
 1026TIP3    H124569   3.157   5.512  10.857  1.1307 -0.6876  1.4347
 1026TIP3    H224570   3.046   5.467  10.950 -0.1730 -0.0556  0.2206
 1027TIP3   OH224571   6.765   4.134   2.606  0.3640  0.2055  0.4280
 1027TIP3    H124572   6.805   4.070   2.665  0.3505  0.8202  1.1088
 1027TIP3    H224573   6.803   4.218   2.631  0.1556  0.5148 -0.2618
 1028TIP3   OH224574   3.479   2.393  16.733 -0.0303 -0.0445  0.2190
 1028TIP3    H124575   3.557   2.385  16.788  0.0517  0.4667  0.1764
 1028TIP3    H224576   3.461   2.303  16.704  0.3688 -0.2046  0.4631
 1029TIP3   OH224577   1.518   4.586   3.352  0.3166  0.5503  0.4993
 1029TIP3    H124578   1.595   4.598   3.407 -0.6549  1.4475  1.7105
 1029TIP3    H224579   1.450   4.553   3.412  0.0228 -1.3103 -0.7459
 1030TIP3   OH224580   1.549   6.616  15.972  0.2372  0.4000 -0.4954
 1030TIP3    H124581   1.544   6.565  15.892  0.4372 -0.7404  0.2020
 1030TIP3    H224582   1.491   6.571  16.033  1.1176  0.4550  0.4140
 1031TIP3   OH224583   4.987   6.715   0.973  0.4900  0.1112 -0.3968
 1031TIP3    H124584   5.075   6.746   0.996  0.7813 -0.4472 -0.7471
 1031TIP3    H224585   4.953   6.782   0.914  1.0581 -0.1460 -1.0281
 1032TIP3   OH224586   5.885   2.015  16.321 -0.1563 -0.1292  0.3119
 1032TIP3    H124587   5.951   2.072  16.358  1.6404 -2.4040  0.8692
 1032TIP3    H224588   5.814   2.013  16.385  0.2401  0.5989  0.7710
 1033TIP3   OH224589   1.127   6.302   1.107 -0.0438  0.3584  0.2183
 1033TIP3    H124590   1.060   6.305   1.040  0.1103  1.4807  0.0897
 1033TIP3    H224591   1.081   6.323   1.189  0.1360  1.1401  0.1284
 1034TIP3   OH224592   2.220   6.445   4.900 -0.1044  0.0366 -0.0653
 1034TIP3    H124593   2.238   6.420   4.991  1.1120 -1.2028 -0.6224
 1034TIP3    H224594   2.192   6.537   4.906 -3.4026 -0.9297  1.8994
 1035TIP3   OH224595   0.139   5.882  16.556 -0.5871 -0.3490 -0.5406
 1035TIP3    H124596   0.166   5.956  16.502 -1.3771 -0.6473 -1.3820
 1035TIP3    H224597   0.100   5.820  16.493 -0.8852 -1.0130  0.2811
 1036TIP3   OH224598   0.398   3.146   2.600 -0.2231  0.1559 -0.3523
 1036TIP3    H124599   0.445   3.168   2.520  0.1015  0.0633 -0.1909
 1036TIP3    H224600   0.458   3.171   2.671  0.4167 -1.7577 -0.1643
 1037TIP3   OH224601   4.064   6.121   6.608 -0.1541  0.1031  0.6877
 1037TIP3    H124602   4.096   6.085   6.691  0.5365  0.5958  0.6442
 1037TIP3    H224603   4.054   6.214   6.625  0.9435  0.3743 -0.0586
 1038TIP3   OH224604   3.623   4.704   1.759 -0.0258  0.0361 -0.4534
 1038TIP3    H124605   3.537   4.683   1.722  0.2940  0.3774 -1.4320
 1038TIP3    H224606   3.673   4.737   1.684  0.8397  0.1847  0.1829
 1039TIP3   OH224607   4.824   6.473   3.640 -0.2884  0.5420  0.3817
 1039TIP3    H124608   4.840   6.449   3.731 -1.5452 -1.1057  0.2119
 1039TIP3    H224609   4.771   6.402   3.605  1.8076  0.1025 -2.2222
 1040TIP3   OH224610   6.130   5.394  15.877  0.3324  0.2958  0.3484
 1040TIP3    H124611   6.193   5.446  15.827  1.0604 -0.4878  0.4262
 1040TIP3    H224612   6.170   5.385  15.963  2.1229 -3.5655 -0.7075
 1041TIP3   OH224613   0.579   1.601  12.639  0.0314  0.2173  0.0740
 1041TIP3    H124614   0.511   1.629  12.578 -0.4638 -2.6174 -0.8368
 1041TIP3    H224615   0.532   1.576  12.719 -0.0341 -1.5438 -0.4802
 1042TIP3   OH224616   5.975   3.629  16.122 -0.6384 -0.2467 -0.3792
 1042TIP3    H124617   6.036   3.656  16.190 -0.1740 -0.6787 -0.6242
 1042TIP3    H224618   5.979   3.698  16.057  1.1196 -1.2377 -1.3711
 1043TIP3   OH224619   0.577   2.950  12.164 -0.8039  0.1525 -0.5807
 1043TIP3    H124620   0.509   2.893  12.128  1.1544 -1.6924 -1.5863
 1043TIP3    H224621   0.606   2.905  12.244 -1.2956  1.3712  0.3251
 1044TIP3   OH224622   6.374   4.304  13.433  0.1247 -0.0826 -0.0248
 1044TIP3    H124623   6.459   4.346  13.448  0.0194  0.4757 -0.9255
 1044TIP3    H224624   6.396   4.215  13.407  0.3607 -0.5598  1.6866
 1045TIP3   OH224625   5.222   5.139   2.101  0.6777  0.2050  0.1268
 1045TIP3    H124626   5.202   5.094   2.019  0.7691  2.2895 -1.1170
 1045TIP3    H224627   5.147   5.120   2.157  0.1578 -0.5102 -0.7725
 1046TIP3   OH224628   6.265   5.150  16.880  0.3290 -0.1117 -0.3848
 1046TIP3    H124629   6.269   5.067  16.927 -2.5551 -1.2527 -1.9227
 1046TIP3    H224630   6.183   5.190  16.908  1.1367  1.7630 -0.5157
 1047TIP3   OH224631   4.906   6.180   0.982 -0.8076  0.5795 -0.1500
 1047TIP3    H124632   4.933   6.256   0.931 -0.1112 -0.1205 -0.8626
 1047TIP3    H224633   4.855   6.127   0.921  1.0489 -0.8641 -0.5580
 1048TIP3   OH224634   2.029   0.853   1.213  0.4448 -0.0474  0.3710
 1048TIP3    H124635   1.944   0.831   1.177  0.4424  0.0621  0.3096
 1048TIP3    H224636   2.036   0.948   1.204  1.0951 -0.1935 -0.7718
 1049TIP3   OH224637   4.609   1.915  15.909  0.2921 -0.1264  0.5823
 1049TIP3    H124638   4.686   1.898  15.856  0.4663  0.2984  0.6965
 1049TIP3    H224639   4.624   1.867  15.990  0.1847 -0.4895  0.3892
 1050TIP3   OH224640   6.462   0.075   1.537 -0.1554  0.2217 -0.3902
 1050TIP3    H124641   6.513   0.121   1.603 -1.8380 -1.5125  2.3391
 1050TIP3    H224642   6.444   0.141   1.470  1.9666  1.9956  0.6572
 1051TIP3   OH224643   1.350   1.987  12.218 -0.1601  0.5805  0.0602
 1051TIP3    H124644   1.436   1.955  12.243 -1.4480 -2.6445  0.9198
 1051TIP3    H224645   1.318   1.922  12.155 -2.0959  1.4853  0.0377
 1052TIP3   OH224646   4.137   4.978  13.714 -0.3094  0.0188  0.4404
 1052TIP3    H124647   4.157   4.980  13.620 -0.3719  0.0739  0.4289
 1052TIP3    H224648   4.046   4.949  13.719 -0.8234  1.5499  0.4172
 1053TIP3   OH224649   3.708   0.277   2.554 -0.1617  0.7454  0.1395
 1053TIP3    H124650   3.653   0.209   2.517  0.1294 -0.7860  2.2875
 1053TIP3    H224651   3.744   0.323   2.479 -2.3638  0.1813 -1.3492
 1054TIP3   OH224652   1.017   1.934  11.340 -0.2186  0.1758 -0.8094
 1054TIP3    H124653   1.059   1.849  11.330 -0.7985 -0.0152 -1.8545
 1054TIP3    H224654   0.924   1.917  11.322 -1.0359  0.3569  2.5233
 1055TIP3   OH224655   3.382   3.169   1.503 -0.1017  0.2610  0.4415
 1055TIP3    H124656   3.394   3.252   1.456  1.6926 -0.2682 -0.1208
 1055TIP3    H224657   3.291   3.172   1.533 -0.9989  1.1722 -2.0454
 1056TIP3   OH224658   3.819   1.729   0.685  0.2928 -0.0461 -0.2820
 1056TIP3    H124659   3.789   1.723   0.776 -0.4644 -0.3685 -0.5447
 1056TIP3    H224660   3.790   1.815   0.655 -0.0529 -0.2067 -0.4187
 1057TIP3   OH224661   2.522   4.746  16.531  0.1782  0.3115 -0.5796
 1057TIP3    H124662   2.605   4.793  16.532  0.5608 -0.3477 -1.0808
 1057TIP3    H224663   2.530   4.683  16.460  0.2864 -1.6386  1.0754
 1058TIP3   OH224664   6.499   6.825  17.224 -0.1650  0.2457  0.1464
 1058TIP3    H124665   6.431   6.887  17.197 -0.1718 -0.6747 -2.1967
 1058TIP3    H224666   6.565   6.830  17.156  0.4385 -1.4034  0.5515
 1059TIP3   OH224667   5.510   4.037  14.761 -0.4871  0.0371 -0.0268
 1059TIP3    H124668   5.515   3.943  14.744 -2.5353  0.1336 -1.5525
 1059TIP3    H224669   5.592   4.072  14.727 -0.1698 -1.0736 -0.4409
 1060TIP3   OH224670   5.529   1.237   2.744 -0.2810 -0.1252 -1.1234
 1060TIP3    H124671   5.611   1.272   2.709  0.2500  0.0667  0.2427
 1060TIP3    H224672   5.521   1.276   2.831 -1.1371 -1.1991 -0.6887
 1061TIP3   OH224673   1.126   1.230   3.277  0.4039  0.3209 -0.0965
 1061TIP3    H124674   1.205   1.282   3.261 -0.2295  1.0391 -0.9128
 1061TIP3    H224675   1.060   1.294   3.304  0.0980 -0.2789  0.6082
 1062TIP3   OH224676   0.182   1.147  15.912 -0.1434  0.2554  0.2420
 1062TIP3    H124677   0.108   1.155  15.851  0.2854 -0.1498 -0.3395
 1062TIP3    H224678   0.255   1.188  15.866  0.0427  0.4872  0.7407
 1063TIP3   OH224679   0.101   1.139  14.881 -0.0509 -0.0224  0.6116
 1063TIP3    H124680   0.110   1.134  14.976 -1.2900 -0.3275  0.7244
 1063TIP3    H224681   0.157   1.213  14.856  0.2244  0.1168  1.5770
 1064TIP3   OH224682   6.796   2.990  11.833  0.7734 -0.0150  0.2814
 1064TIP3    H124683   6.840   2.906  11.845 -1.2145 -0.9164  1.8023
 1064TIP3    H224684   6.729   2.972  11.767  1.0322  0.6953 -0.1919
 1065TIP3   OH224685   4.498   1.215  10.615  0.3579 -0.6780 -0.4117
 1065TIP3    H124686   4.567   1.276  10.586 -0.3918  0.3403 -0.0944
 1065TIP3    H224687   4.433   1.271  10.657  0.0655 -1.8073  0.6854
 1066TIP3   OH224688   6.815   4.202   5.630  0.6176  0.8773 -0.0216
 1066TIP3    H124689   6.884   4.268   5.631  1.2311  0.2883  1.8915
 1066TIP3    H224690   6.811   4.171   5.721 -1.1562 -0.1546 -0.4118
 1067TIP3   OH224691   1.164   0.536   5.977  0.2122 -0.1002 -0.0686
 1067TIP3    H124692   1.132   0.499   6.059  0.2995 -1.6694 -0.6984
 1067TIP3    H224693   1.244   0.486   5.957 -0.5001 -0.6669 -1.7266
 1068TIP3   OH224694   1.842   6.288  13.791 -0.4633 -0.0634  0.6314
 1068TIP3    H124695   1.935   6.308  13.777 -0.5156  0.3109  0.8081
 1068TIP3    H224696   1.802   6.303  13.705 -0.5061  0.6329  0.7696
 1069TIP3   OH224697   1.910   3.591   3.673 -0.0624 -0.0401  0.3248
 1069TIP3    H124698   1.831   3.644   3.685  0.8631  1.8323 -1.2360
 1069TIP3    H224699   1.899   3.552   3.586  0.8265  0.4558 -0.0182
 1070TIP3   OH224700   2.493   5.639   3.362  0.5894 -0.0211  0.1869
 1070TIP3    H124701   2.412   5.658   3.315  0.8130  0.5721  0.0269
 1070TIP3    H224702   2.469   5.644   3.455  0.1280 -1.2823  0.1558
 1071TIP3   OH224703   2.394   5.668   4.083  0.0948 -0.3128 -0.8069
 1071TIP3    H124704   2.389   5.609   4.158  0.8872  0.4162 -0.1601
 1071TIP3    H224705   2.375   5.613   4.007 -0.6546 -1.0768 -0.0868
 1072TIP3   OH224706   3.495   1.749  14.745 -0.0453 -0.1645 -0.5486
 1072TIP3    H124707   3.566   1.686  14.732  1.2362  0.7514  1.3873
 1072TIP3    H224708   3.491   1.762  14.840 -1.2680  1.5234 -0.7693
 1073TIP3   OH224709   5.000   5.805  13.464 -0.2011  0.1625  0.1546
 1073TIP3    H124710   5.082   5.813  13.414 -0.3473 -0.2362 -0.1559
 1073TIP3    H224711   4.939   5.864  13.420 -0.1500  0.2814  0.2426
 1074TIP3   OH224712   1.551   5.526   4.535  0.1611 -0.5798  0.3525
 1074TIP3    H124713   1.613   5.576   4.482 -1.1096  1.4660  0.7134
 1074TIP3    H224714   1.573   5.434   4.516  2.7911  0.0419 -0.0732
 1075TIP3   OH224715   2.738   0.037   5.820  0.2781  0.5231 -0.3799
 1075TIP3    H124716   2.808  -0.018   5.854  0.7527  1.3298 -0.0012
 1075TIP3    H224717   2.682   0.055   5.896 -0.6950 -0.6114 -0.8054
 1076TIP3   OH224718   3.935   2.431   4.634 -0.6466  0.2097  0.4338
 1076TIP3    H124719   3.928   2.374   4.711  0.4168  0.2904  0.5916
 1076TIP3    H224720   3.850   2.421   4.591  0.2289 -3.3151 -0.7965
 1077TIP3   OH224721   4.414   4.593   5.115  0.3486 -0.1381  0.6326
 1077TIP3    H124722   4.495   4.542   5.116 -1.1427 -2.6827  1.3562
 1077TIP3    H224723   4.414   4.639   5.199  1.0184 -0.1896  0.6668
 1078TIP3   OH224724   0.309   4.403   0.159  0.0800 -0.3885 -0.4194
 1078TIP3    H124725   0.245   4.474   0.152 -1.0333 -1.2615  0.5499
 1078TIP3    H224726   0.265   4.336   0.212  1.1137 -1.7890 -1.2737
 1079TIP3   OH224727   4.946   3.943   1.344  0.3857  0.3786  0.2034
 1079TIP3    H124728   4.857   3.914   1.367 -0.3602  1.8943 -0.6073
 1079TIP3    H224729   4.992   3.863   1.318 -0.7927 -0.4108  0.4735
 1080TIP3   OH224730   6.346   2.473  15.730 -0.0064 -0.6182 -0.1851
 1080TIP3    H124731   6.422   2.415  15.737  1.1228  0.8585  0.6413
 1080TIP3    H224732   6.301   2.464  15.814 -0.6867 -1.3918 -0.6246
 1081TIP3   OH224733   4.773   5.437   2.823  0.0131 -0.2802 -0.2071
 1081TIP3    H124734   4.716   5.362   2.841 -2.9594  2.0251  0.5824
 1081TIP3    H224735   4.757   5.498   2.895 -1.1660  3.0527 -3.0267
 1082TIP3   OH224736   1.979   5.195   1.914 -0.4198  0.9861 -0.0464
 1082TIP3    H124737   1.922   5.118   1.917  0.8155  0.0190 -0.4054
 1082TIP3    H224738   1.920   5.269   1.905 -1.5839 -0.0359 -1.0777
 1083TIP3   OH224739   0.879   2.186   6.134  0.3330 -0.0148  0.2834
 1083TIP3    H124740   0.855   2.142   6.053  0.1908 -2.2172  1.4205
 1083TIP3    H224741   0.804   2.240   6.156 -0.5187 -1.0638  0.0206
 1084TIP3   OH224742   4.779   2.528  11.816 -0.3266 -0.6803 -0.1147
 1084TIP3    H124743   4.863   2.545  11.775  0.0628 -1.2295  0.4403
 1084TIP3    H224744   4.749   2.614  11.846 -1.5327  0.1001 -3.1764
 1085TIP3   OH224745   6.498   3.974   2.115 -0.2863 -0.5635 -0.5325
 1085TIP3    H124746   6.469   3.905   2.175  2.5197 -2.1467 -0.8543
 1085TIP3    H224747   6.586   3.948   2.089  1.5564  3.8710  0.3862
 1086TIP3   OH224748   4.309   1.793   2.822 -0.5771  0.8689  0.6353
 1086TIP3    H124749   4.230   1.817   2.774 -0.3070  0.5877  0.0428
 1086TIP3    H224750   4.285   1.712   2.868 -0.2868  0.1400 -0.4660
 1087TIP3   OH224751   1.427   4.233   3.651 -0.1025 -0.1879  0.4217
 1087TIP3    H124752   1.486   4.181   3.596  0.2278 -0.2473  0.8275
 1087TIP3    H224753   1.413   4.179   3.729 -0.5058 -0.0714  0.4320
 1088TIP3   OH224754   6.034   0.099  15.099 -0.3251  0.2787 -0.2606
 1088TIP3    H124755   6.031   0.044  15.021 -1.1942  0.7465 -0.5766
 1088TIP3    H224756   6.000   0.044  15.169  0.2661 -0.0776 -0.2444
 1089TIP3   OH224757   5.193   3.775   4.441 -0.0949  0.2070  0.5270
 1089TIP3    H124758   5.270   3.724   4.464  0.0957  0.3179  0.1407
 1089TIP3    H224759   5.123   3.710   4.431  0.0185  0.0764  0.5819
 1090TIP3   OH224760   3.369   0.137   2.420  0.5483 -0.1066 -0.5463
 1090TIP3    H124761   3.307   0.135   2.347 -0.8385  0.0103  0.5787
 1090TIP3    H224762   3.368   0.227   2.451  1.7186  0.0259 -0.8418
 1091TIP3   OH224763   5.406   3.659   4.583 -0.4686 -0.2793 -0.1531
 1091TIP3    H124764   5.403   3.732   4.645 -2.3508 -1.5204  1.3745
 1091TIP3    H224765   5.410   3.581   4.639 -2.2465 -1.4674 -1.5471
 1092TIP3   OH224766   3.677   1.051  12.781 -0.0138 -0.0500  0.6816
 1092TIP3    H124767   3.768   1.058  12.752 -0.0003 -1.8541  0.1606
 1092TIP3    H224768   3.646   1.142  12.786  1.9558  0.6230  1.4054
 1093TIP3   OH224769   0.621   1.732   5.909  0.6734  0.5022  0.3148
 1093TIP3    H124770   0.693   1.763   5.965 -1.4157  4.5682  1.1519
 1093TIP3    H224771   0.609   1.802   5.845 -1.8896 -0.4855 -0.3833
 1094TIP3   OH224772   1.263   1.782  16.353 -0.0445 -0.8504  0.8087
 1094TIP3    H124773   1.217   1.727  16.289 -0.8233  0.4717  0.1947
 1094TIP3    H224774   1.235   1.749  16.438  0.1216 -1.8990  0.4754
 1095TIP3   OH224775   3.981   3.804  12.707  0.5553  0.2844  0.4367
 1095TIP3    H124776   3.968   3.731  12.766 -0.0539  0.0696  0.0465
 1095TIP3    H224777   3.966   3.882  12.760 -2.0462  0.0659  0.1192
 1096TIP3   OH224778   1.220   1.497  15.826 -0.0887  0.0127  0.4510
 1096TIP3    H124779   1.303   1.534  15.855 -0.2255 -0.1255  1.0408
 1096TIP3    H224780   1.169   1.573  15.797  0.4696  0.0282 -0.5186
 1097TIP3   OH224781   2.056   3.801   0.543 -0.1599 -0.0312  0.1242
 1097TIP3    H124782   2.127   3.860   0.567 -1.0020  0.9265  0.3495
 1097TIP3    H224783   2.099   3.718   0.524  0.9358  0.3175  0.9759
 1098TIP3   OH224784   3.814   1.371  16.138  0.9843 -0.2944 -0.6137
 1098TIP3    H124785   3.774   1.305  16.196  1.3719 -0.6284 -0.7215
 1098TIP3    H224786   3.803   1.335  16.050  1.1246 -0.1731 -0.6806
 1099TIP3   OH224787   6.006   1.145   2.031 -0.1623 -0.1759  0.0432
 1099TIP3    H124788   5.954   1.152   1.950 -0.7380  1.3586  0.5120
 1099TIP3    H224789   5.988   1.227   2.078 -1.4519 -1.8460  2.7015
 1100TIP3   OH224790   5.531   3.547   2.432 -0.4563  0.3703  0.1491
 1100TIP3    H124791   5.626   3.552   2.422 -0.4458 -1.1443 -0.8538
 1100TIP3    H224792   5.502   3.638   2.438  0.9566  0.8982 -0.6183
 1101TIP3   OH224793   6.470   4.624  12.365  0.5508 -0.0952  0.2234
 1101TIP3    H124794   6.550   4.626  12.313 -0.6593  1.4544 -1.6866
 1101TIP3    H224795   6.501   4.618  12.456  2.7562 -1.5092 -0.5368
 1102TIP3   OH224796   2.417   2.760  13.834  0.1517  0.9915  0.8125
 1102TIP3    H124797   2.494   2.749  13.889  0.2620  0.9236  0.6451
 1102TIP3    H224798   2.450   2.757  13.744 -0.0436  0.9749  0.7394
 1103TIP3   OH224799   0.151   6.189   2.542  0.2979  0.1389  0.0728
 1103TIP3    H124800   0.138   6.096   2.527  0.3570 -0.0714  1.2032
 1103TIP3    H224801   0.065   6.228   2.532  0.1257 -0.1588  0.3844
 1104TIP3   OH224802   3.107   5.329   0.359  0.2450 -0.5076 -0.0336
 1104TIP3    H124803   3.191   5.338   0.316  0.3515  0.4922  0.3483
 1104TIP3    H224804   3.083   5.419   0.384  0.0566 -0.9977  1.7011
 1105TIP3   OH224805   3.434   2.040   0.306 -0.0421  0.2596  0.0984
 1105TIP3    H124806   3.527   2.064   0.305 -0.1250  0.5848  0.2289
 1105TIP3    H224807   3.434   1.945   0.293  0.4851 -0.2628  3.2371
 1106TIP3   OH224808   5.813   6.044  14.870 -0.6721 -0.2235 -0.1793
 1106TIP3    H124809   5.824   6.126  14.919 -2.5513  0.2130 -0.4235
 1106TIP3    H224810   5.827   6.070  14.778 -0.2621 -0.3912 -0.1647
 1107TIP3   OH224811   4.393   5.979  12.581  0.1961 -0.2556  0.1101
 1107TIP3    H124812   4.362   5.984  12.490 -1.2587  0.6222  0.6131
 1107TIP3    H224813   4.425   5.889  12.590 -0.1845 -0.5412 -1.0995
 1108TIP3   OH224814   0.090   3.449  15.589 -0.0665  0.7921 -0.0153
 1108TIP3    H124815   0.003   3.476  15.617 -0.6515  1.0941 -1.9672
 1108TIP3    H224816   0.106   3.499  15.509  0.9769 -0.8653 -0.8981
 1109TIP3   OH224817   2.433   2.709  13.140  0.5548 -0.1451  0.0884
 1109TIP3    H124818   2.355   2.715  13.085  0.9865 -0.5872 -0.5885
 1109TIP3    H224819   2.446   2.798  13.174 -0.5411 -0.1854  0.6363
 1110TIP3   OH224820   0.831   2.479   5.704  0.3165 -0.7860  0.0055
 1110TIP3    H124821   0.832   2.569   5.671  0.1048 -0.4113  0.9674
 1110TIP3    H224822   0.917   2.468   5.744  0.5492 -1.2108 -0.5994
 1111TIP3   OH224823   4.210   1.972   3.326 -0.2826  0.3706  0.6106
 1111TIP3    H124824   4.250   1.885   3.325 -1.3602 -0.1602  1.2749
 1111TIP3    H224825   4.161   1.976   3.243 -1.9995 -0.5664  1.5089
 1112TIP3   OH224826   0.848   1.127  12.489 -0.2306  0.1588 -0.1622
 1112TIP3    H124827   0.781   1.194  12.504  0.4842  0.9975 -0.6343
 1112TIP3    H224828   0.924   1.175  12.459  0.4105 -0.8453 -0.2042
 1113TIP3   OH224829   4.222   5.176   5.740  0.1544 -0.3769 -0.3791
 1113TIP3    H124830   4.208   5.224   5.658 -0.3193  0.6654  0.2845
 1113TIP3    H224831   4.156   5.106   5.739 -1.3138  0.9218  0.0391
 1114TIP3   OH224832   0.186   4.530  17.070  0.0008  0.0461  0.0052
 1114TIP3    H124833   0.105   4.579  17.057  0.5526  0.8358 -0.5693
 1114TIP3    H224834   0.221   4.563  17.152 -0.2914 -0.3494  0.2926
 1115TIP3   OH224835   2.838   4.922   1.815 -0.9216 -0.2424 -0.0497
 1115TIP3    H124836   2.801   4.901   1.901  0.2998 -0.6938  0.3989
 1115TIP3    H224837   2.823   5.016   1.805  0.0000  0.0750  1.2341
 1116TIP3   OH224838   0.485   3.399   5.799  0.4247  0.6181  0.7831
 1116TIP3    H124839   0.549   3.348   5.849  0.8402  0.9764  0.6259
 1116TIP3    H224840   0.440   3.453   5.864  0.6907  0.7954  0.8204
 1117TIP3   OH224841   3.413   2.224   4.901 -0.9031  0.3003 -0.4805
 1117TIP3    H124842   3.358   2.292   4.942 -3.5197 -1.4855 -0.8174
 1117TIP3    H224843   3.351   2.157   4.872  1.5154 -2.0483 -0.5930
 1118TIP3   OH224844   3.055   1.659  17.241  0.7017  0.0924 -0.3095
 1118TIP3    H124845   3.028   1.568  17.248 -2.3689  0.9512  0.2562
 1118TIP3    H224846   3.109   1.674  17.319 -0.5498 -0.7164  0.7619
 1119TIP3   OH224847   5.233   3.886   5.112 -0.1942 -0.3136  0.3107
 1119TIP3    H124848   5.328   3.881   5.103 -0.2582  0.0399 -0.6971
 1119TIP3    H224849   5.205   3.796   5.128  0.5708 -0.0621  3.8504
 1120TIP3   OH224850   1.691   6.082   2.307  0.1574 -0.5715 -0.4928
 1120TIP3    H124851   1.767   6.028   2.284 -0.3528 -1.3700 -0.3092
 1120TIP3    H224852   1.637   6.026   2.362 -1.0124 -0.3312 -1.3556
 1121TIP3   OH224853   3.555   5.210   3.030  0.3886 -0.0307  0.0997
 1121TIP3    H124854   3.640   5.242   3.060  0.3768 -0.2267  0.3428
 1121TIP3    H224855   3.492   5.274   3.062  0.4451  0.1339 -0.1116
 1122TIP3   OH224856   6.232   3.822   3.250  0.0160 -0.1128 -0.3576
 1122TIP3    H124857   6.143   3.817   3.285  0.1062 -2.6548 -0.3352
 1122TIP3    H224858   6.220   3.847   3.158 -0.5951  0.9392 -0.0114
 1123TIP3   OH224859   3.367   5.983   5.161 -0.3927 -0.0683 -0.5709
 1123TIP3    H124860   3.393   5.897   5.129  2.6605  0.6570 -0.3502
 1123TIP3    H224861   3.450   6.029   5.176 -1.8647  3.4085 -1.9763
 1124TIP3   OH224862   4.098   3.421  17.041  0.3909  0.0435  0.3797
 1124TIP3    H124863   4.186   3.412  17.005  0.7957  0.9213  1.1233
 1124TIP3    H224864   4.057   3.335  17.026  1.3591 -0.3684  0.0287
 1125TIP3   OH224865   4.763   3.009  13.244  0.2105 -0.0589  0.1790
 1125TIP3    H124866   4.800   2.974  13.325  0.2337  0.0437  0.2133
 1125TIP3    H224867   4.748   3.101  13.263 -0.9553 -0.2976  0.4802
 1126TIP3   OH224868   3.375   3.817   5.369  0.5695  0.2979  0.2025
 1126TIP3    H124869   3.403   3.726   5.362 -0.0909 -0.1782  2.8542
 1126TIP3    H224870   3.419   3.850   5.448  0.6193  2.2332 -0.5645
 1127TIP3   OH224871   1.179   6.190   0.364 -0.0613  0.2181 -0.0550
 1127TIP3    H124872   1.210   6.155   0.447  0.7303 -0.2804 -0.5386
 1127TIP3    H224873   1.149   6.279   0.384 -2.7376 -0.9065  1.3302
 1128TIP3   OH224874   4.798   6.402   1.499  0.1415 -0.0538  0.5044
 1128TIP3    H124875   4.835   6.349   1.570  1.5768  1.5451  1.0084
 1128TIP3    H224876   4.716   6.437   1.536  0.6086  0.3350  1.1951
 1129TIP3   OH224877   5.686   4.206   5.438 -0.2220 -0.0894  0.0908
 1129TIP3    H124878   5.762   4.262   5.423 -0.7483  0.9872  1.2873
 1129TIP3    H224879   5.617   4.265   5.468 -0.8313 -1.3479  1.3181
 1130TIP3   OH224880   4.188   0.851  16.575  0.0931  0.2467  0.4118
 1130TIP3    H124881   4.265   0.819  16.623  0.9344  0.2460 -0.8644
 1130TIP3    H224882   4.225   0.911  16.510 -1.0133  0.3881 -0.0989
 1131TIP3   OH224883   4.485   6.050   4.189 -0.4753  0.5093  0.7782
 1131TIP3    H124884   4.424   6.117   4.156 -0.6143 -0.9924 -2.3588
 1131TIP3    H224885   4.572   6.089   4.177 -0.5076 -0.0154 -1.7588
 1132TIP3   OH224886   4.834   0.934   0.926 -0.1005  0.3088 -0.0766
 1132TIP3    H124887   4.879   1.018   0.928 -2.4788  1.6757 -0.6284
 1132TIP3    H224888   4.850   0.896   1.012  1.7861  0.8404 -0.1428
 1133TIP3   OH224889   2.929   2.745   4.165  0.5016  0.3498 -0.0491
 1133TIP3    H124890   2.983   2.673   4.133 -0.8812 -0.7369 -0.0256
 1133TIP3    H224891   2.965   2.823   4.122  2.5457 -0.2081  0.5722
 1134TIP3   OH224892   3.207   1.971  12.500 -0.0626  0.4442  0.0410
 1134TIP3    H124893   3.186   2.063  12.517  1.8443  1.0469 -0.5365
 1134TIP3    H224894   3.291   1.974  12.454  1.0211 -1.6570  1.6936
 1135TIP3   OH224895   0.830   1.921  13.678 -0.1297 -0.1937  0.8923
 1135TIP3    H124896   0.917   1.895  13.709 -0.9549 -1.4091  2.3468
 1135TIP3    H224897   0.808   1.998  13.731 -0.9101 -1.3602  2.3401
 1136TIP3   OH224898   3.822   0.278  14.825  0.1569  1.0741  0.0792
 1136TIP3    H124899   3.858   0.268  14.913  2.3076  0.4103 -0.8243
 1136TIP3    H224900   3.812   0.373  14.814  0.8438  1.2238  0.6646
 1137TIP3   OH224901   4.327   3.371  12.221 -0.2185 -0.1908 -0.5261
 1137TIP3    H124902   4.288   3.378  12.308 -0.6199 -0.0021 -0.7204
 1137TIP3    H224903   4.325   3.461  12.187  0.5202 -0.1472 -0.4807
 1138TIP3   OH224904   1.440   1.100  16.894 -0.1438 -0.4133  0.0827
 1138TIP3    H124905   1.460   1.093  16.988 -0.9601 -1.5620  0.1878
 1138TIP3    H224906   1.423   1.010  16.866 -2.1489  0.1435 -0.6446
 1139TIP3   OH224907   0.148   6.430  17.250  0.6018  0.2596  0.2643
 1139TIP3    H124908   0.209   6.472  17.311 -0.0769 -0.5990  1.5854
 1139TIP3    H224909   0.073   6.490  17.247 -0.4441 -0.8314  2.2887
 1140TIP3   OH224910   6.249   2.191  17.106 -0.5018  0.1181  0.3803
 1140TIP3    H124911   6.274   2.274  17.066  1.0613 -0.5437 -0.0680
 1140TIP3    H224912   6.211   2.216  17.191 -2.3168  1.4170 -0.7298
 1141TIP3   OH224913   4.974   4.925  13.743 -0.4113 -0.4715  0.1873
 1141TIP3    H124914   4.895   4.874  13.760 -0.4239  0.1228  2.1996
 1141TIP3    H224915   4.961   5.006  13.791  1.3365 -0.2818  0.4073
 1142TIP3   OH224916   1.815   2.279  13.153  0.4336 -0.0491 -0.2540
 1142TIP3    H124917   1.757   2.354  13.169 -0.6139 -1.0935  1.1013
 1142TIP3    H224918   1.766   2.224  13.092  0.5016 -0.3773 -0.0168
 1143TIP3   OH224919   5.472   4.969  16.696  0.2974 -0.7176  0.3337
 1143TIP3    H124920   5.423   5.050  16.712 -0.6243 -1.0518 -0.6838
 1143TIP3    H224921   5.551   4.998  16.651  0.3236 -0.3179  0.6295
 1144TIP3   OH224922   4.187   0.497   1.702  0.5978 -0.1334  0.4559
 1144TIP3    H124923   4.241   0.488   1.779  0.9614  2.7089  0.6186
 1144TIP3    H224924   4.215   0.425   1.644  2.0871 -0.7585  1.8908
 1145TIP3   OH224925   4.582   0.869  16.448  0.0299  0.6564 -0.1694
 1145TIP3    H124926   4.548   0.882  16.359 -0.0690 -0.0059 -0.2370
 1145TIP3    H224927   4.628   0.950  16.468  1.4872  0.2109 -1.4790
 1146TIP3   OH224928   3.278   1.840   3.618  0.4599 -0.3275 -0.3459
 1146TIP3    H124929   3.258   1.767   3.676  1.4268 -0.0146  0.4124
 1146TIP3    H224930   3.235   1.818   3.536 -0.5487 -1.0084  0.3335
 1147TIP3   OH224931   3.730   4.341  11.764 -0.3977  0.6150 -0.0596
 1147TIP3    H124932   3.693   4.416  11.809 -1.8621  0.5542 -1.0901
 1147TIP3    H224933   3.670   4.269  11.784 -0.5412  0.3700 -1.2564
 1148TIP3   OH224934   4.827   4.538   3.516  0.0001  0.2314  0.5284
 1148TIP3    H124935   4.886   4.464   3.504 -0.2831 -0.1152  1.2095
 1148TIP3    H224936   4.880   4.606   3.558  0.2890  0.4616 -0.1969
 1149TIP3   OH224937   6.436   6.545  13.418 -0.0634  0.1257 -0.2502
 1149TIP3    H124938   6.437   6.583  13.330 -0.0827  3.3887  1.0079
 1149TIP3    H224939   6.344   6.548  13.444 -0.0687 -0.8869 -0.1268
 1150TIP3   OH224940   1.253   0.002  11.619 -0.6169 -0.0605  0.0824
 1150TIP3    H124941   1.187   0.055  11.574 -2.1781 -3.7185 -2.3126
 1150TIP3    H224942   1.332   0.012  11.566 -0.3908  1.0622  0.5942
 1151TIP3   OH224943   4.183   3.198  16.312  0.1157 -0.1640  0.0098
 1151TIP3    H124944   4.150   3.108  16.314 -1.2138  0.2764 -0.9794
 1151TIP3    H224945   4.271   3.190  16.274 -1.8053 -0.6440 -5.0189
 1152TIP3   OH224946   3.072   0.797   4.032  0.6542  0.0364 -0.8118
 1152TIP3    H124947   3.028   0.833   4.110  1.5533 -0.6198  0.0148
 1152TIP3    H224948   3.000   0.775   3.973 -0.0688  0.2691 -0.0443
 1153TIP3   OH224949   5.820   4.344  13.940  0.3650  0.0142  0.0635
 1153TIP3    H124950   5.915   4.359  13.939  0.3024  0.4227 -0.2152
 1153TIP3    H224951   5.783   4.421  13.897 -0.0440 -0.5303 -0.5753
 1154TIP3   OH224952   2.438   5.300  16.948 -0.3363 -0.1903 -0.7540
 1154TIP3    H124953   2.421   5.324  17.039  0.8596  2.4060 -1.1164
 1154TIP3    H224954   2.375   5.352  16.897  1.0981  0.8775 -1.5130
 1155TIP3   OH224955   5.594   6.158   4.029 -0.5317  0.2657 -0.3316
 1155TIP3    H124956   5.583   6.140   3.936 -0.4256  0.1314 -0.3191
 1155TIP3    H224957   5.649   6.086   4.061 -2.9122 -1.3090  0.4375
 1156TIP3   OH224958   5.500   2.018   4.264 -0.8482  0.4942  0.0007
 1156TIP3    H124959   5.468   1.930   4.286  1.6014 -0.7304 -0.9049
 1156TIP3    H224960   5.492   2.022   4.168  2.7406 -0.4746 -0.4791
 1157TIP3   OH224961   5.941   0.582  14.009  0.4386 -0.1870  0.9248
 1157TIP3    H124962   5.978   0.615  13.927 -1.3265  1.0952  0.5909
 1157TIP3    H224963   5.866   0.529  13.982 -0.4666  0.6616  1.6885
 1158TIP3   OH224964   3.358   4.850  16.731 -0.0144  0.3967 -0.6664
 1158TIP3    H124965   3.407   4.769  16.715  0.6294  0.7213 -0.3815
 1158TIP3    H224966   3.360   4.896  16.647  0.8299  0.7523 -0.4622
 1159TIP3   OH224967   2.979   3.669  14.000  0.5866  0.4110  0.5407
 1159TIP3    H124968   3.066   3.638  13.973  0.4997  1.1250 -0.6240
 1159TIP3    H224969   2.996   3.727  14.074  1.2704  1.5416 -0.4506
 1160TIP3   OH224970   2.359   5.676  12.462 -0.0693 -0.9801  0.3495
 1160TIP3    H124971   2.401   5.730  12.395  0.1445 -2.0685 -0.4225
 1160TIP3    H224972   2.408   5.695  12.542  0.3639 -0.4656 -0.0322
 1161TIP3   OH224973   3.019   2.777   5.311  0.4614  0.5585 -0.3222
 1161TIP3    H124974   3.086   2.734   5.363 -1.0187 -1.8842 -0.2677
 1161TIP3    H224975   2.997   2.713   5.243  0.2240  2.4646 -2.1452
 1162TIP3   OH224976   6.192   6.390  16.836  0.4840  0.1204  0.2013
 1162TIP3    H124977   6.225   6.383  16.926  0.6127 -0.6222  0.0991
 1162TIP3    H224978   6.198   6.301  16.801 -0.3815  0.2352 -0.2583
 1163TIP3   OH224979   5.759   3.165   5.537 -0.5635  0.1154  0.3037
 1163TIP3    H124980   5.679   3.130   5.576  0.7039 -2.8894  0.4749
 1163TIP3    H224981   5.819   3.177   5.611  0.5510 -1.9137 -0.1915
 1164TIP3   OH224982   5.106   5.179   5.179  0.0198 -0.3318 -0.0236
 1164TIP3    H124983   5.095   5.231   5.099 -0.4758  0.9673  0.8664
 1164TIP3    H224984   5.017   5.165   5.211  0.2364 -0.6027  0.4651
 1165TIP3   OH224985   4.445   4.512   2.238  0.0741  0.0639 -0.2146
 1165TIP3    H124986   4.479   4.518   2.327  0.4958  0.3965 -0.4009
 1165TIP3    H224987   4.499   4.445   2.196 -0.0341  0.0080 -0.2659
 1166TIP3   OH224988   4.228   1.228  15.063  0.1827 -0.9976  0.3448
 1166TIP3    H124989   4.138   1.201  15.082 -0.3688 -1.1284 -2.1098
 1166TIP3    H224990   4.246   1.299  15.125 -1.9492 -0.3513  0.2756
 1167TIP3   OH224991   2.688   5.129  12.650  0.1779 -0.0985 -0.1210
 1167TIP3    H124992   2.740   5.207  12.669  0.5305 -0.3383 -0.0855
 1167TIP3    H224993   2.729   5.091  12.573  0.9692 -1.0792  0.7529
 1168TIP3   OH224994   2.871   5.815  13.625  0.2051  0.1214  0.6625
 1168TIP3    H124995   2.955   5.774  13.642  0.0298 -0.9697 -0.8236
 1168TIP3    H224996   2.809   5.742  13.620 -0.8228  0.8941  1.6171
 1169TIP3   OH224997   6.714   6.528   1.498 -0.3243  0.2857  0.4444
 1169TIP3    H124998   6.622   6.554   1.508 -0.4287  0.7462 -1.4317
 1169TIP3    H224999   6.763   6.603   1.531 -0.6000  0.2325  1.0038
 1170TIP3   OH225000   6.705   6.291   2.598  0.9893  0.1874  0.0358
 1170TIP3    H125001   6.749   6.323   2.677  1.5330  0.2436 -0.2829
 1170TIP3    H225002   6.626   6.249   2.630  0.8215  0.8720  0.5554
 1171TIP3   OH225003   6.322   1.826   2.373  0.7296  1.4815  1.0800
 1171TIP3    H125004   6.399   1.781   2.408 -1.8514 -3.3743  1.3584
 1171TIP3    H225005   6.274   1.854   2.451 -1.7378 -3.3996  1.7305
 1172TIP3   OH225006   1.570   4.596  12.303  0.2977  1.0063 -0.7537
 1172TIP3    H125007   1.562   4.628  12.393 -0.2474  0.7544 -0.7042
 1172TIP3    H225008   1.526   4.662  12.250  0.1794  0.9108 -0.7767
 1173TIP3   OH225009   5.749   0.470  14.434  0.2635  0.1525  0.0557
 1173TIP3    H125010   5.753   0.471  14.530 -0.2801 -0.4096  0.0917
 1173TIP3    H225011   5.821   0.527  14.406  2.0406 -1.6081  0.7655
 1174TIP3   OH225012   3.966   1.677  12.102  0.2417  0.1720 -0.0352
 1174TIP3    H125013   3.976   1.698  12.009 -1.6268  0.1470 -0.2831
 1174TIP3    H225014   3.893   1.615  12.105  0.8898 -0.5742  1.3817
 1175TIP3   OH225015   4.725   2.791  10.795 -1.1440 -0.2127  0.1342
 1175TIP3    H125016   4.661   2.745  10.740 -0.6464 -0.8367  0.0618
 1175TIP3    H225017   4.710   2.756  10.883 -0.2384 -1.1404 -0.0515
 1176TIP3   OH225018   6.663   6.325   6.050 -0.4851  0.1352 -0.2957
 1176TIP3    H125019   6.626   6.394   6.106 -0.8488 -0.8786  0.7688
 1176TIP3    H225020   6.597   6.312   5.982 -1.0529 -0.0740  0.2754
 1177TIP3   OH225021   2.049   5.464   1.638 -0.2051  0.2453  0.2530
 1177TIP3    H125022   1.967   5.493   1.598 -2.3428 -1.4201  3.0470
 1177TIP3    H225023   2.053   5.370   1.621  1.3909  0.3725 -0.2026
 1178TIP3   OH225024   5.695   3.926  16.256 -0.1816  0.0515 -0.8113
 1178TIP3    H125025   5.695   3.854  16.192  1.5589 -0.3868 -0.3866
 1178TIP3    H225026   5.785   3.927  16.290 -0.9147  0.5936  1.2576
 1179TIP3   OH225027   3.846   0.443  11.950 -0.4819  0.2625  0.0846
 1179TIP3    H125028   3.886   0.384  12.014 -2.1986 -0.3801  0.6251
 1179TIP3    H225029   3.869   0.531  11.981  2.1652 -0.0223 -0.7677
 1180TIP3   OH225030   2.131   2.864  15.195 -1.0528 -0.1659  0.0469
 1180TIP3    H125031   2.109   2.957  15.184 -2.1348 -0.3994  0.0880
 1180TIP3    H225032   2.069   2.833  15.261 -0.7370 -0.9294 -0.0165
 1181TIP3   OH225033   4.593   3.750   5.396 -0.3919  0.0895  0.3270
 1181TIP3    H125034   4.640   3.823   5.356  0.9546 -0.7935  0.2278
 1181TIP3    H225035   4.540   3.790   5.465  1.5003  1.0253  1.3254
 1182TIP3   OH225036   2.774   1.026  14.166 -0.0389 -0.5368  0.1051
 1182TIP3    H125037   2.743   1.117  14.167  2.8874  0.5880 -0.8069
 1182TIP3    H225038   2.694   0.974  14.159 -1.8004  1.9831  0.0446
 1183TIP3   OH225039   4.755   0.766   4.174 -0.3479 -0.4013  0.5343
 1183TIP3    H125040   4.745   0.860   4.155  0.5083 -0.2987  0.5671
 1183TIP3    H225041   4.699   0.723   4.110 -0.7821  0.1347  0.5447
 1184TIP3   OH225042   3.226   0.649  16.103  0.1645  0.2201 -0.1688
 1184TIP3    H125043   3.305   0.597  16.088  0.9902  0.0012  3.7693
 1184TIP3    H225044   3.254   0.740  16.092  0.5631  0.0831 -0.2879
 1185TIP3   OH225045   6.480   4.198  12.514  0.0426  0.2334 -0.7555
 1185TIP3    H125046   6.459   4.210  12.421  1.8272  0.6157 -1.1562
 1185TIP3    H225047   6.396   4.177  12.555 -0.8224  0.2285 -2.4184
 1186TIP3   OH225048   1.704   5.596   3.885  0.2887 -0.4888  0.0477
 1186TIP3    H125049   1.745   5.517   3.850  2.1073  0.8516 -1.0543
 1186TIP3    H225050   1.761   5.623   3.958 -0.5505 -0.4270  0.6893
 1187TIP3   OH225051   4.717   1.819   5.361  0.5670 -0.2199 -0.0750
 1187TIP3    H125052   4.746   1.772   5.439 -1.3424  0.4634  1.1339
 1187TIP3    H225053   4.778   1.893   5.355  0.1587  0.2865  1.4027
 1188TIP3   OH225054   3.045   5.377  11.850 -0.3041  0.1976  0.4498
 1188TIP3    H125055   3.054   5.471  11.865  0.5508  0.0555  0.9200
 1188TIP3    H225056   2.953   5.358  11.869 -0.1098  0.6599  2.0332
 1189TIP3   OH225057   6.412   6.576   1.057 -0.2372  0.1121 -0.3561
 1189TIP3    H125058   6.428   6.489   1.092 -1.6431 -0.0630 -0.0763
 1189TIP3    H225059   6.427   6.568   0.963 -3.0153 -1.1989 -0.7987
 1190TIP3   OH225060   3.649   6.735   5.232 -0.3523  0.1356  0.4552
 1190TIP3    H125061   3.694   6.761   5.312 -0.6256  1.4563  0.2006
 1190TIP3    H225062   3.661   6.808   5.172 -1.9485  0.0919  0.0235
 1191TIP3   OH225063   6.528   6.779  15.069 -0.1409  0.1872 -0.5928
 1191TIP3    H125064   6.600   6.802  15.128 -1.0861 -1.8299  1.4733
 1191TIP3    H225065   6.491   6.864  15.043  2.2441  1.2349 -0.8513
 1192TIP3   OH225066   4.947   2.401   3.193  0.7800  0.0295 -0.0773
 1192TIP3    H125067   4.990   2.378   3.275  0.7740  0.1428 -0.0424
 1192TIP3    H225068   5.019   2.417   3.132  0.7875  0.2293 -0.0161
 1193TIP3   OH225069   1.558   4.830   2.871 -0.7030  0.1084  0.2268
 1193TIP3    H125070   1.498   4.772   2.824 -0.0823 -0.2407 -0.1442
 1193TIP3    H225071   1.550   4.803   2.963 -1.9170  0.7922  0.3533
 1194TIP3   OH225072   6.501   2.435  14.237 -0.0066  0.4387 -0.1939
 1194TIP3    H125073   6.524   2.527  14.249 -2.7344  0.9261  2.4326
 1194TIP3    H225074   6.484   2.402  14.325 -0.2500 -2.2919 -1.1507
 1195TIP3   OH225075   6.690   1.988  11.769  0.3943  0.0527 -0.7539
 1195TIP3    H125076   6.686   2.053  11.840  0.3386 -1.5183  0.7555
 1195TIP3    H225077   6.776   1.999  11.731  0.5867  0.6662 -0.1632
 1196TIP3   OH225078   0.183   2.439   2.707  0.0521 -0.6868  0.3532
 1196TIP3    H125079   0.196   2.348   2.679 -1.6030 -1.0263  0.6315
 1196TIP3    H225080   0.110   2.470   2.654 -0.0090  0.1863  0.9427
 1197TIP3   OH225081   1.911   2.963   5.739  0.2403 -0.2967 -0.9414
 1197TIP3    H125082   1.912   3.057   5.722  1.0788 -0.1433 -0.1083
 1197TIP3    H225083   1.827   2.947   5.782  0.7562  0.3546  0.3545
 1198TIP3   OH225084   0.607   2.033   4.750  0.4698 -0.3311  0.4581
 1198TIP3    H125085   0.544   2.030   4.678  1.2052 -0.4517 -0.1899
 1198TIP3    H225086   0.579   2.107   4.804  1.3450  1.3456 -1.2909
 1199TIP3   OH225087   3.848   3.038   4.290 -0.0619  0.7510 -0.0160
 1199TIP3    H125088   3.927   3.075   4.330  1.6084 -1.4334 -1.0443
 1199TIP3    H225089   3.830   2.959   4.341 -2.5486  1.9430  1.1216
 1200TIP3   OH225090   0.194   4.683   1.587 -0.3252 -0.3267  0.7031
 1200TIP3    H125091   0.277   4.723   1.564 -0.1918  1.2170  3.3709
 1200TIP3    H225092   0.189   4.603   1.535  1.4871  0.9543 -1.5678
 1201TIP3   OH225093   2.889   1.117   3.527 -0.6804  0.1005  0.2824
 1201TIP3    H125094   2.893   1.021   3.517  0.0407 -0.0809  1.9964
 1201TIP3    H225095   2.955   1.150   3.466 -1.1310 -0.4651 -0.5360
 1202TIP3   OH225096   5.326   3.919   1.348  0.0311  0.0756  0.2514
 1202TIP3    H125097   5.322   3.903   1.442  0.1183 -0.8046  0.1114
 1202TIP3    H225098   5.302   4.012   1.339  1.1829  0.4923  1.2277
 1203TIP3   OH225099   2.253   5.780   3.214 -0.1757 -0.1308  0.4869
 1203TIP3    H125100   2.310   5.831   3.271 -0.4068  0.6329  0.0682
 1203TIP3    H225101   2.168   5.824   3.221  0.0270  0.6470 -1.2116
 1204TIP3   OH225102   2.078   0.244  14.327  0.5335  0.0420 -0.1099
 1204TIP3    H125103   2.000   0.189  14.319  0.1099  0.1951  2.2169
 1204TIP3    H225104   2.044   0.332  14.342  1.1799  0.3804 -0.5852
 1205TIP3   OH225105   4.373   3.635   4.072  0.4177 -0.5436  0.0761
 1205TIP3    H125106   4.389   3.541   4.073  0.5623 -0.5490 -1.2229
 1205TIP3    H225107   4.318   3.649   3.995 -1.6043  0.1505  1.5350
 1206TIP3   OH225108   4.979   3.319  12.101 -0.3688  0.2364 -0.2500
 1206TIP3    H125109   5.005   3.230  12.076  1.0398  0.8105 -0.9501
 1206TIP3    H225110   5.036   3.341  12.174 -2.1094 -0.1516  1.2822
 1207TIP3   OH225111   2.678   3.057   5.960  0.1865 -0.9485 -0.2314
 1207TIP3    H125112   2.619   3.020   6.025  1.1531  0.6946  1.6693
 1207TIP3    H225113   2.760   3.074   6.007  0.9425  0.2814 -1.8542
 1208TIP3   OH225114   4.952   1.510   0.104  0.6000 -0.0634  0.3422
 1208TIP3    H125115   4.913   1.510   0.017  0.2828  1.0974  0.4703
 1208TIP3    H225116   4.909   1.437   0.150 -0.3964  0.3182  0.0355
 1209TIP3   OH225117   5.698   3.780   3.527 -0.6969 -0.0197 -0.3857
 1209TIP3    H125118   5.665   3.740   3.607  1.1829  1.9850  1.5228
 1209TIP3    H225119   5.714   3.872   3.550  0.9343  0.3892 -2.7328
 1210TIP3   OH225120   4.129   6.824  12.046 -0.0300  0.1060  0.5261
 1210TIP3    H125121   4.171   6.837  11.961 -0.0116  0.4702  0.5898
 1210TIP3    H225122   4.185   6.761  12.092 -0.1403 -0.2335  0.2005
 1211TIP3   OH225123   0.361   5.712   6.782  0.6527 -0.3589  0.0799
 1211TIP3    H125124   0.369   5.770   6.706 -2.4099  1.5963  1.0827
 1211TIP3    H225125   0.391   5.627   6.750 -0.7992  0.2765 -3.4515
 1212TIP3   OH225126   5.679   4.612  13.969  0.1800 -0.1875  0.4674
 1212TIP3    H125127   5.629   4.534  13.994 -0.0440  0.1269  1.0304
 1212TIP3    H225128   5.744   4.622  14.040 -0.0411  0.3524  0.5971
 1213TIP3   OH225129   4.559   0.434   4.174 -0.6067  0.3140  0.5970
 1213TIP3    H125130   4.582   0.513   4.125  0.3324  0.4633  1.2600
 1213TIP3    H225131   4.463   0.430   4.170 -0.6512  1.4198  0.4610
 1214TIP3   OH225132   6.170   5.097   0.231 -0.0317 -0.7272  0.2903
 1214TIP3    H125133   6.147   5.036   0.300 -0.8997 -2.2082 -1.2430
 1214TIP3    H225134   6.231   5.159   0.272 -0.2140 -1.7907  2.2337
 1215TIP3   OH225135   2.272   1.141  11.357  0.0944 -0.3753 -0.0539
 1215TIP3    H125136   2.351   1.154  11.304 -0.4161  1.1944 -0.4887
 1215TIP3    H225137   2.306   1.113  11.443  1.0060 -1.4541 -0.7358
 1216TIP3   OH225138   4.325   0.080   0.773 -0.4645 -0.1671 -0.4634
 1216TIP3    H125139   4.385   0.066   0.699 -0.1528  1.7013 -0.6201
 1216TIP3    H225140   4.383   0.102   0.846 -0.7999 -1.6024  0.2727
 1217TIP3   OH225141   0.076   3.349   0.955  0.2640 -0.6688  0.2688
 1217TIP3    H125142   0.162   3.346   0.913  0.7084 -0.3667  1.1483
 1217TIP3    H225143   0.093   3.375   1.045 -0.6177 -2.0122  0.8478
 1218TIP3   OH225144   0.052   4.157   4.644 -0.5847  0.0760 -0.5158
 1218TIP3    H125145   0.089   4.214   4.578  0.5773  1.7621  1.4704
 1218TIP3    H225146   0.088   4.070   4.625  1.3768  0.9345 -0.8812
 1219TIP3   OH225147   6.590   2.332   0.809  0.2294  0.3075 -0.1122
 1219TIP3    H125148   6.577   2.304   0.718 -0.6644 -0.2848  0.1830
 1219TIP3    H225149   6.661   2.275   0.840  0.5764  0.5482 -0.4494
 1220TIP3   OH225150   1.712   3.294   1.833  0.7703 -0.1045  0.3647
 1220TIP3    H125151   1.641   3.270   1.892  1.6940  2.3174  2.6632
 1220TIP3    H225152   1.697   3.387   1.815  1.7463 -0.2629 -1.5081
 1221TIP3   OH225153   2.688   1.742  14.735  0.4209 -0.0939  0.1201
 1221TIP3    H125154   2.632   1.819  14.740 -1.3085 -1.3572  1.6086
 1221TIP3    H225155   2.724   1.743  14.646 -0.3345  1.8545 -0.2055
 1222TIP3   OH225156   4.716   6.679   3.373 -0.1230 -0.7983 -0.0103
 1222TIP3    H125157   4.755   6.689   3.460  0.2028 -1.5080 -0.0673
 1222TIP3    H225158   4.630   6.639   3.390 -0.2742 -0.4681  0.0169
 1223TIP3   OH225159   3.231   2.355  14.918  0.2621  0.0448  0.3949
 1223TIP3    H125160   3.187   2.429  14.876  0.4653 -0.1746 -0.2178
 1223TIP3    H225161   3.191   2.350  15.005 -2.1954 -1.1961 -0.7110
 1224TIP3   OH225162   3.750   3.241   3.226 -0.1434 -0.9999 -0.6802
 1224TIP3    H125163   3.723   3.206   3.310 -1.1960  1.9496  0.3436
 1224TIP3    H225164   3.671   3.239   3.172  0.1295 -1.4236 -1.0745
 1225TIP3   OH225165   6.590   5.830   0.016 -0.4684 -0.4606  0.4658
 1225TIP3    H125166   6.668   5.876   0.047 -0.5195 -1.5249  2.3006
 1225TIP3    H225167   6.619   5.740   0.003 -1.3797 -0.8613  1.1327
 1226TIP3   OH225168   5.530   0.990  15.007  0.5582 -0.3368  0.3559
 1226TIP3    H125169   5.530   1.054  15.079 -0.4154 -1.8371  1.7545
 1226TIP3    H225170   5.601   1.020  14.950 -1.3109  3.3332 -0.3523
 1227TIP3   OH225171   2.474   5.929   4.447  0.1242 -0.1943 -0.1917
 1227TIP3    H125172   2.382   5.907   4.431  0.2624 -2.1307  1.2469
 1227TIP3    H225173   2.521   5.892   4.372 -0.2851  1.2823 -1.2103
 1228TIP3   OH225174   1.497   5.080  16.710 -0.0690  0.4442 -0.0030
 1228TIP3    H125175   1.519   4.990  16.688 -0.9517  0.0970  0.4979
 1228TIP3    H225176   1.499   5.126  16.626 -0.1829 -0.1650 -0.3433
 1229TIP3   OH225177   2.144   5.865  15.190  0.3690  0.7494  0.3327
 1229TIP3    H125178   2.160   5.944  15.139 -0.3946  1.1713  0.7263
 1229TIP3    H225179   2.100   5.806  15.128 -0.9646  1.4269  0.5882
 1230TIP3   OH225180   4.968   1.613  12.178  0.3442  0.4262 -0.1800
 1230TIP3    H125181   5.028   1.669  12.128 -0.6778 -0.4534 -2.5245
 1230TIP3    H225182   5.025   1.555  12.227  1.4115  2.2834  0.9171
 1231TIP3   OH225183   4.878   1.246  10.717 -0.4615 -0.4110  0.5603
 1231TIP3    H125184   4.896   1.154  10.738  1.4924  0.0823  1.2474
 1231TIP3    H225185   4.815   1.274  10.783  1.6722 -0.3087  2.6667
 1232TIP3   OH225186   2.682   6.597  14.156  0.4046  0.3529 -0.7446
 1232TIP3    H125187   2.670   6.633  14.068 -1.3337 -0.2512 -0.7903
 1232TIP3    H225188   2.657   6.505  14.149 -3.5102  1.0458  1.0344
 1233TIP3   OH225189   4.028   1.473   0.649  0.4618 -0.7241 -0.0278
 1233TIP3    H125190   3.973   1.528   0.594  0.7619  0.7172  1.0523
 1233TIP3    H225191   3.994   1.384   0.637 -0.5303 -0.2014 -1.2172
 1234TIP3   OH225192   1.846   1.673  12.625  0.2398  0.2398 -0.1536
 1234TIP3    H125193   1.898   1.752  12.639 -2.1644  2.2715 -1.7793
 1234TIP3    H225194   1.876   1.612  12.692  2.2025  2.5159  1.1814
 1235TIP3   OH225195   3.556   5.450   0.034  0.6827 -0.0391  0.7166
 1235TIP3    H125196   3.619   5.460  -0.037 -0.2457  0.9896  0.0161
 1235TIP3    H225197   3.610   5.446   0.113  1.6874 -0.5354  0.0353
 1236TIP3   OH225198   2.648   2.738  13.995 -0.1504  0.2688 -0.5215
 1236TIP3    H125199   2.733   2.780  13.982 -0.1225  0.1765 -0.6329
 1236TIP3    H225200   2.630   2.750  14.088 -1.4682  3.0649 -1.0122
 1237TIP3   OH225201   2.614   2.139   4.339  0.3168 -0.3751  0.6849
 1237TIP3    H125202   2.528   2.107   4.365 -0.7656  2.1071  0.4339
 1237TIP3    H225203   2.599   2.187   4.258  2.3685 -1.7096 -0.5827
 1238TIP3   OH225204   3.171   0.311   0.028 -0.4252 -0.0399 -0.0357
 1238TIP3    H125205   3.228   0.354   0.091 -0.8222  2.4026 -1.1972
 1238TIP3    H225206   3.228   0.252  -0.021  0.5037  0.2854  0.6354
 1239TIP3   OH225207   0.225   1.472  12.442 -0.2427 -0.1622 -1.1391
 1239TIP3    H125208   0.176   1.454  12.361 -1.8016 -1.0716 -0.0487
 1239TIP3    H225209   0.158   1.503  12.503  0.5351 -1.4083  0.4084
 1240TIP3   OH225210   3.199   4.755   1.549  0.1280 -0.4525  0.4371
 1240TIP3    H125211   3.110   4.789   1.555 -0.1315 -0.9921 -0.2249
 1240TIP3    H225212   3.241   4.784   1.630 -1.2399 -1.9249  1.7480
 1241TIP3   OH225213   2.282   4.115  15.509 -0.3585 -0.0937  0.5120
 1241TIP3    H125214   2.332   4.186  15.548  0.5022  0.0034 -0.7169
 1241TIP3    H225215   2.200   4.155  15.482  0.0094  0.3728  0.0757
 1242TIP3   OH225216   0.892   1.282  16.028 -0.0683  0.6263 -0.1455
 1242TIP3    H125217   0.882   1.366  15.983 -0.7592  0.1372 -0.9095
 1242TIP3    H225218   0.804   1.259  16.056 -0.0136 -0.2491 -0.6723
 1243TIP3   OH225219   0.896   6.608  11.619 -0.0863 -0.3109 -0.7825
 1243TIP3    H125220   0.907   6.541  11.687 -0.9794  0.7128  0.4285
 1243TIP3    H225221   0.898   6.691  11.668 -3.7147  0.3737 -1.5580
 1244TIP3   OH225222   3.106   6.282  12.185  0.4203  0.4691  0.3993
 1244TIP3    H125223   3.034   6.333  12.147  1.1274  1.6427  0.5696
 1244TIP3    H225224   3.185   6.326  12.154  1.0370  0.3762  1.7730
 1245TIP3   OH225225   5.816   4.103  10.560 -0.0637  0.3491  0.6089
 1245TIP3    H125226   5.854   4.033  10.613 -0.9899 -1.0255 -0.4686
 1245TIP3    H225227   5.858   4.095  10.475 -0.3915  0.9309  0.3788
 1246TIP3   OH225228   2.783   5.518  10.740 -0.5492 -0.2335  0.5454
 1246TIP3    H125229   2.878   5.527  10.751 -0.8863  1.2162  2.7037
 1246TIP3    H225230   2.757   5.455  10.807 -1.5681  2.3584  2.7289
 1247TIP3   OH225231   6.024   3.020   0.999 -0.5939 -0.0303  0.4563
 1247TIP3    H125232   6.088   3.091   1.001  0.0795 -0.3745 -2.8914
 1247TIP3    H225233   6.074   2.942   1.024  0.3648 -0.2466 -1.8516
 1248TIP3   OH225234   6.812   0.301   5.285  0.3049 -0.3805  0.2027
 1248TIP3    H125235   6.904   0.320   5.267  0.5881 -2.9635 -1.6332
 1248TIP3    H225236   6.804   0.310   5.380  2.2676  0.5277  0.3400
 1249TIP3   OH225237   2.829   5.332   1.052  0.5033  0.6273 -0.6184
 1249TIP3    H125238   2.784   5.366   1.129  0.1504 -0.3120 -0.3910
 1249TIP3    H225239   2.763   5.282   1.005  0.9986  0.2470 -0.9264
 1250TIP3   OH225240   4.191   2.509  12.297 -0.1431 -0.3515  0.0346
 1250TIP3    H125241   4.188   2.604  12.302  0.2264 -0.2873 -0.8051
 1250TIP3    H225242   4.105   2.484  12.262  0.6425 -0.1190 -2.2406
 1251TIP3   OH225243   2.513   1.654  15.117  0.2625 -0.4026 -0.2752
 1251TIP3    H125244   2.504   1.668  15.211  3.0617  0.1719 -0.0092
 1251TIP3    H225245   2.596   1.696  15.094 -0.0496 -1.0463 -2.8981
 1252TIP3   OH225246   2.623   5.327   1.239  0.0199  0.4701  0.3603
 1252TIP3    H125247   2.658   5.292   1.321  0.9499 -2.5496 -1.1873
 1252TIP3    H225248   2.538   5.285   1.230  0.2222  0.2406 -0.5277
 1253TIP3   OH225249   2.379   6.731   1.604 -0.5060 -0.0198 -0.0055
 1253TIP3    H125250   2.290   6.722   1.570 -0.1189  0.0682 -1.0662
 1253TIP3    H225251   2.385   6.823   1.630 -0.4837  0.1529 -0.6251
 1254TIP3   OH225252   4.358   2.514  14.624  0.4331 -0.5843  0.2984
 1254TIP3    H125253   4.434   2.528  14.681  1.5239 -3.3784 -0.3083
 1254TIP3    H225254   4.354   2.593  14.570  2.8287 -0.2720  0.4801
 1255TIP3   OH225255   0.087   6.664  11.884  0.1032 -0.2884 -0.1149
 1255TIP3    H125256   0.146   6.589  11.892  0.9252  0.1731 -1.6168
 1255TIP3    H225257   0.005   6.626  11.853 -0.4382 -0.9251  1.9299
 1256TIP3   OH225258   2.890   1.941   5.000  0.6250  0.2228 -0.2016
 1256TIP3    H125259   2.976   1.970   4.968  0.2734  0.4529 -0.9604
 1256TIP3    H225260   2.891   1.963   5.093  1.1560  0.7845 -0.3305
 1257TIP3   OH225261   2.033   6.779   2.032 -0.4962  0.1395 -0.5144
 1257TIP3    H125262   2.054   6.806   1.942  0.7764  1.2437  0.0707
 1257TIP3    H225263   2.109   6.808   2.083 -0.4744 -1.8586  0.6908
 1258TIP3   OH225264   3.086   2.301   0.561 -0.3317  0.2902  0.3894
 1258TIP3    H125265   3.026   2.277   0.491 -0.0061 -0.8544  0.4920
 1258TIP3    H225266   3.172   2.274   0.530 -0.2457 -0.6484  1.4071
 1259TIP3   OH225267   4.142   5.904  11.965 -0.3018 -0.0891  0.6500
 1259TIP3    H125268   4.117   5.997  11.956 -1.2034 -0.0636  2.8029
 1259TIP3    H225269   4.068   5.857  11.927 -0.0456  0.0492 -0.0406
 1260TIP3   OH225270   1.713   2.259   2.001 -0.5865 -0.2924  0.2391
 1260TIP3    H125271   1.739   2.196   2.068  0.2086 -0.2671 -0.0381
 1260TIP3    H225272   1.747   2.222   1.919 -0.1594  0.4784  0.0676
 1261TIP3   OH225273   4.428   4.501  14.541 -0.0146 -0.1450 -0.3125
 1261TIP3    H125274   4.486   4.576  14.553  0.7590 -0.6160 -1.0405
 1261TIP3    H225275   4.340   4.539  14.544  0.3030  0.5423  1.0215
 1262TIP3   OH225276   6.355   2.735   5.862  0.2273  0.1293  0.1979
 1262TIP3    H125277   6.388   2.812   5.817  2.1763 -0.7507  0.0272
 1262TIP3    H225278   6.356   2.666   5.796 -0.5143 -0.3077  0.6185
 1263TIP3   OH225279   6.752   2.861  16.207  0.3581  0.0669 -0.3201
 1263TIP3    H125280   6.801   2.804  16.267 -0.9862  1.4295  2.2209
 1263TIP3    H225281   6.661   2.830  16.214  0.2003  0.1197 -1.8701
 1264TIP3   OH225282   4.524   1.445  15.632 -0.1137  0.3821  0.1401
 1264TIP3    H125283   4.508   1.497  15.710 -0.1915  0.2787  0.1941
 1264TIP3    H225284   4.565   1.365  15.665  0.8212  0.7814 -0.0268
 1265TIP3   OH225285   6.786   4.313   1.909 -0.4206  0.3275  0.0428
 1265TIP3    H125286   6.810   4.389   1.856 -0.2517 -0.9778 -1.8557
 1265TIP3    H225287   6.690   4.317   1.915 -0.3239  1.6433  1.5557
 1266TIP3   OH225288   3.023   5.794  11.370 -0.0977 -0.2428  0.2292
 1266TIP3    H125289   3.072   5.876  11.363  0.7541 -0.8402 -1.4278
 1266TIP3    H225290   3.087   5.726  11.347 -1.2039 -1.2200 -0.0795
 1267TIP3   OH225291   5.794   4.383  10.534  0.0284  0.8545  1.0090
 1267TIP3    H125292   5.700   4.373  10.522  0.0390 -0.1981  1.6956
 1267TIP3    H225293   5.831   4.299  10.509  0.8810  1.4996  0.0053
 1268TIP3   OH225294   1.457   5.886   4.415  0.1234 -0.4453  0.0482
 1268TIP3    H125295   1.550   5.882   4.437  0.6141  0.0965 -1.7385
 1268TIP3    H225296   1.431   5.794   4.404 -0.4697 -0.8550  3.7771
 1269TIP3   OH225297   5.868   2.853  16.147  0.4460  0.7356  0.3873
 1269TIP3    H125298   5.838   2.830  16.059  0.6600  1.0354  0.2340
 1269TIP3    H225299   5.886   2.769  16.189  0.7474  0.6073  0.0022
 1270TIP3   OH225300   6.514   6.572   2.620  0.3397 -0.3565 -0.1092
 1270TIP3    H125301   6.578   6.634   2.655 -0.1461 -0.2538  0.6235
 1270TIP3    H225302   6.566   6.495   2.596  0.5114 -1.2760  2.7900
 1271TIP3   OH225303   6.657   6.424   3.229 -0.2041 -0.0935  0.3554
 1271TIP3    H125304   6.721   6.354   3.246  0.3278  0.3118  0.0305
 1271TIP3    H225305   6.612   6.436   3.313 -0.2120 -0.7294  0.4514
 1272TIP3   OH225306   3.588   0.356   2.776  0.8134  0.0286 -0.1946
 1272TIP3    H125307   3.524   0.287   2.794  1.6373 -0.5496  0.6015
 1272TIP3    H225308   3.636   0.324   2.699 -0.3143  0.8144 -1.2710
 1273TIP3   OH225309   4.866   3.507  16.499  0.0114 -0.2906 -0.7373
 1273TIP3    H125310   4.932   3.509  16.429  1.4940 -1.8986  0.5081
 1273TIP3    H225311   4.913   3.470  16.574 -2.0253 -0.3658  0.5576
 1274TIP3   OH225312   3.830   4.499   5.437  0.1611  0.4684  0.4555
 1274TIP3    H125313   3.754   4.467   5.388  0.4242 -0.4165  0.6187
 1274TIP3    H225314   3.838   4.591   5.410  1.5937 -0.4656 -2.9065
 1275TIP3   OH225315   6.055   0.534  15.796  0.1827  0.1249  0.4616
 1275TIP3    H125316   6.125   0.586  15.756 -0.4148  0.8872  0.3664
 1275TIP3    H225317   6.005   0.500  15.721 -0.4641  0.8903  0.5266
 1276TIP3   OH225318   5.222   5.639  16.478 -0.4094  0.2616 -0.2007
 1276TIP3    H125319   5.299   5.667  16.428 -0.7815 -0.5619 -1.2770
 1276TIP3    H225320   5.162   5.606  16.412 -1.7071  0.9006  0.6267
 1277TIP3   OH225321   0.280   5.264  16.415 -0.6081 -0.3027 -0.1524
 1277TIP3    H125322   0.228   5.188  16.442 -1.4950  0.4450  0.3100
 1277TIP3    H225323   0.321   5.295  16.495 -1.1665  0.3789 -0.1225
 1278TIP3   OH225324   6.396   3.538   4.189 -0.6909 -0.6378  0.0932
 1278TIP3    H125325   6.361   3.576   4.109 -1.1096 -1.7255 -0.2664
 1278TIP3    H225326   6.474   3.490   4.161  0.0682  0.2678  0.6002
 1279TIP3   OH225327   5.584   2.958  16.269 -0.0936 -0.0215  0.5109
 1279TIP3    H125328   5.590   3.036  16.324 -0.8083  0.8809 -0.6537
 1279TIP3    H225329   5.675   2.928  16.260  0.1190  0.2930  1.4910
 1280TIP3   OH225330   2.003   2.953  14.603  0.0246  0.1160  0.1037
 1280TIP3    H125331   2.002   2.913  14.690  1.6357 -0.0615  0.0766
 1280TIP3    H225332   1.963   3.039  14.615 -0.2211 -0.1032  0.9072
 1281TIP3   OH225333   6.797   1.787   1.965  0.4534  0.1676  0.9459
 1281TIP3    H125334   6.788   1.731   2.042  0.7142 -0.0368  0.8295
 1281TIP3    H225335   6.890   1.780   1.941  0.4948  0.6742  0.9493
 1282TIP3   OH225336   6.319   5.355   3.045  0.6789  0.0558 -0.0496
 1282TIP3    H125337   6.357   5.369   2.959  0.2555 -0.3645 -0.3119
 1282TIP3    H225338   6.367   5.415   3.103 -0.3131  1.7573 -0.9063
 1283TIP3   OH225339   6.282   5.012   4.643 -0.1355 -0.0177 -0.3212
 1283TIP3    H125340   6.300   5.094   4.596  1.5796 -0.3011 -0.2353
 1283TIP3    H225341   6.368   4.981   4.669 -0.9159 -0.8012  1.4599
 1284TIP3   OH225342   2.591   0.178   0.875  0.0273  0.2993  0.9476
 1284TIP3    H125343   2.676   0.221   0.871  0.1843 -0.0810 -0.9721
 1284TIP3    H225344   2.528   0.250   0.888  0.4236  0.9382 -0.4755
 1285TIP3   OH225345   1.991   3.857   3.483  0.0001  0.1392 -0.2363
 1285TIP3    H125346   2.007   3.951   3.493  1.4892  0.0284 -1.1883
 1285TIP3    H225347   2.054   3.816   3.542 -0.5978 -0.2654  0.1205
 1286TIP3   OH225348   3.114   4.363  14.616  0.1021  0.0657  0.3704
 1286TIP3    H125349   3.139   4.285  14.566 -1.5356 -0.6597  0.6286
 1286TIP3    H225350   3.096   4.429  14.550  1.1294  0.1237  0.1344
 1287TIP3   OH225351   1.617   3.414  15.512 -0.3662 -0.4976 -0.4674
 1287TIP3    H125352   1.678   3.385  15.444  1.1703 -0.7656  0.9538
 1287TIP3    H225353   1.548   3.460  15.465  1.4706  0.7509 -2.0917
 1288TIP3   OH225354   3.519   0.205   3.996  1.0143 -0.5016 -0.1374
 1288TIP3    H125355   3.439   0.202   4.049  2.0249  1.2642  1.6109
 1288TIP3    H225356   3.516   0.290   3.953  1.7875 -0.5598 -0.3219
 1289TIP3   OH225357   0.857   3.766  16.852  0.0839  0.0803 -0.5098
 1289TIP3    H125358   0.887   3.717  16.776  1.3268  0.6267 -0.3965
 1289TIP3    H225359   0.762   3.774  16.841  0.2027 -0.1921 -1.7832
 1290TIP3   OH225360   0.633   5.336  17.114  0.1603 -0.1132 -0.4760
 1290TIP3    H125361   0.716   5.340  17.067 -0.9241  3.1825 -2.5010
 1290TIP3    H225362   0.649   5.386  17.194  0.8229 -1.9320  0.5695
 1291TIP3   OH225363   1.333   4.322   4.833 -0.7627  0.0285  0.3830
 1291TIP3    H125364   1.425   4.306   4.811 -1.7020 -1.9157 -2.7894
 1291TIP3    H225365   1.325   4.299   4.925  1.8953  0.1982  0.7236
 1292TIP3   OH225366   4.166   5.432  15.971  0.0204  0.2186  0.1342
 1292TIP3    H125367   4.187   5.525  15.966 -0.9949  0.3997 -1.5474
 1292TIP3    H225368   4.111   5.415  15.894 -1.7240 -1.2787  1.5958
 1293TIP3   OH225369   0.158   6.172  15.759 -0.1586  0.1909  0.7331
 1293TIP3    H125370   0.071   6.207  15.779 -0.3192  0.2416 -0.0118
 1293TIP3    H225371   0.208   6.248  15.728 -0.8059 -0.3441 -1.8602
 1294TIP3   OH225372   3.207   5.938   1.244 -0.5112  0.0443  0.1307
 1294TIP3    H125373   3.191   5.950   1.338 -1.3132  2.4654 -0.2498
 1294TIP3    H225374   3.295   5.972   1.230 -0.4745 -0.1173 -0.0288
 1295TIP3   OH225375   4.353   2.053   6.735  0.2173  0.1405  0.3352
 1295TIP3    H125376   4.323   2.132   6.781  0.2296  0.7178 -0.6139
 1295TIP3    H225377   4.448   2.052   6.750  0.2824  0.5630 -0.0253
 1296TIP3   OH225378   5.669   1.893  12.714 -0.4099 -0.3620  0.6005
 1296TIP3    H125379   5.614   1.815  12.722 -0.0942 -0.4285  2.5788
 1296TIP3    H225380   5.758   1.859  12.717 -0.0713 -0.3214 -3.1763
 1297TIP3   OH225381   5.311   1.135   3.728 -0.0600 -0.0871  0.7122
 1297TIP3    H125382   5.286   1.064   3.669 -1.2720  1.5641 -0.9024
 1297TIP3    H225383   5.355   1.199   3.672  2.0726 -0.0168  2.3336
 1298TIP3   OH225384   2.746   2.122  15.260 -0.0840 -0.4177 -0.2649
 1298TIP3    H125385   2.661   2.081  15.243  0.3984 -0.8515 -1.8039
 1298TIP3    H225386   2.726   2.215  15.270 -0.6096 -0.2983 -2.0722
 1299TIP3   OH225387   4.163   5.529   3.414 -0.0913 -0.0261 -0.0750
 1299TIP3    H125388   4.215   5.536   3.494 -0.5651  1.5195  0.1317
 1299TIP3    H225389   4.073   5.521   3.444 -0.0885 -1.8909 -0.4464
 1300TIP3   OH225390   4.919   4.056   2.147  0.1116 -0.0664  0.5539
 1300TIP3    H125391   4.835   4.096   2.129  1.1725  2.8629  1.6102
 1300TIP3    H225392   4.928   3.988   2.080 -3.7687 -1.7195  1.4414
 1301TIP3   OH225393   0.424   3.742   1.855  0.3867  0.2313 -0.0817
 1301TIP3    H125394   0.479   3.692   1.915  0.9402 -2.0426 -2.3104
 1301TIP3    H225395   0.450   3.834   1.868  0.2342 -0.0964  3.2694
 1302TIP3   OH225396   3.172   0.401   1.253  0.2610 -0.3846  0.3755
 1302TIP3    H125397   3.236   0.464   1.221  0.5468 -0.8612 -0.0247
 1302TIP3    H225398   3.145   0.353   1.174 -1.4196  0.5406  0.3608
 1303TIP3   OH225399   0.107   2.301   2.280 -0.0697 -0.3194 -0.1964
 1303TIP3    H125400   0.140   2.212   2.274 -0.9852 -0.8596  1.8499
 1303TIP3    H225401   0.146   2.335   2.361 -0.1040  0.9697 -0.7005
 1304TIP3   OH225402   5.444   2.554   5.816 -0.0946 -0.2225  0.3358
 1304TIP3    H125403   5.450   2.493   5.742 -1.0012 -1.3789  1.1783
 1304TIP3    H225404   5.511   2.619   5.798 -0.3221 -0.4350 -1.5385
 1305TIP3   OH225405   4.199   1.432   0.010 -0.2739 -0.3599  0.0662
 1305TIP3    H125406   4.273   1.372   0.010  0.2670  0.2816 -1.1461
 1305TIP3    H225407   4.207   1.480   0.093  1.1836  0.2952 -0.4145
 1306TIP3   OH225408   6.259   1.688   1.320  0.2461 -0.0373  0.0566
 1306TIP3    H125409   6.319   1.719   1.389 -0.3431  3.9239 -0.9486
 1306TIP3    H225410   6.283   1.738   1.243 -0.6781 -2.6038 -2.0355
 1307TIP3   OH225411   3.027   3.957   1.055  0.7286 -0.0416 -0.0368
 1307TIP3    H125412   2.999   4.005   0.977 -1.1713 -0.3025  0.4350
 1307TIP3    H225413   3.031   4.024   1.124  0.3543 -0.1491  0.0945
 1308TIP3   OH225414   6.770   2.657   3.387  0.0230 -0.0069  0.2797
 1308TIP3    H125415   6.753   2.618   3.473  0.5413  0.4934  0.6121
 1308TIP3    H225416   6.855   2.621   3.361 -0.7466 -1.2459 -0.6603
 1309TIP3   OH225417   1.575   6.118  16.209  0.1782  0.5694 -0.4380
 1309TIP3    H125418   1.566   6.194  16.267 -0.3658 -0.3456  0.7283
 1309TIP3    H225419   1.487   6.102  16.175 -0.5182 -1.5142  1.9931
 1310TIP3   OH225420   3.413   6.404  11.810  0.2098  0.0123  0.0409
 1310TIP3    H125421   3.486   6.345  11.794  0.1628 -0.0598  0.0915
 1310TIP3    H225422   3.381   6.428  11.723  0.2940  0.0433  0.0189
 1311TIP3   OH225423   0.285   5.565  10.779 -0.2504 -0.0355 -0.3291
 1311TIP3    H125424   0.353   5.623  10.746 -0.2750 -0.1736 -0.6295
 1311TIP3    H225425   0.225   5.555  10.705  0.5869 -1.7150 -0.8302
 1312TIP3   OH225426   3.722   3.058  16.271 -0.3024 -0.0620 -0.5670
 1312TIP3    H125427   3.751   3.148  16.283  0.4132 -0.0257 -2.2178
 1312TIP3    H225428   3.777   3.007  16.330 -1.6544  0.6728  1.4077
 1313TIP3   OH225429   2.607   6.004   0.811  0.1652  0.6494  0.0274
 1313TIP3    H125430   2.537   5.978   0.870  0.6454 -0.6623  0.0581
 1313TIP3    H225431   2.667   6.054   0.866  0.0574  0.3827  0.3900
 1314TIP3   OH225432   5.303   2.337  11.878 -0.5727  0.0409  0.0623
 1314TIP3    H125433   5.258   2.333  11.963  0.8713  0.9276  0.9104
 1314TIP3    H225434   5.368   2.407  11.889  0.4976 -0.6827 -1.3645
 1315TIP3   OH225435   0.016   5.456   1.607 -0.1135  0.4914  0.1978
 1315TIP3    H125436   0.034   5.366   1.634  1.5879  0.8767  0.4968
 1315TIP3    H225437   0.063   5.510   1.671 -0.7942  1.5839 -0.2005
 1316TIP3   OH225438   3.341   5.099   1.051  0.1752 -0.4182  0.4363
 1316TIP3    H125439   3.248   5.125   1.054 -0.8928 -3.5617 -1.0283
 1316TIP3    H225440   3.376   5.144   0.975 -0.0585  0.9309  1.0978
 1317TIP3   OH225441   0.756   3.944   2.703  0.2823 -0.5422 -0.2919
 1317TIP3    H125442   0.823   3.941   2.635 -0.3138 -4.1389 -0.9171
 1317TIP3    H225443   0.679   3.979   2.659  1.4425  3.2769  0.3411
 1318TIP3   OH225444   2.341   5.827  13.918 -0.2742  0.0519 -0.2269
 1318TIP3    H125445   2.355   5.803  13.826  0.7089  1.3043 -0.4376
 1318TIP3    H225446   2.285   5.905  13.915 -0.5321 -0.1111  0.2472
 1319TIP3   OH225447   5.721   2.304  16.244 -0.0046  0.7573 -0.4954
 1319TIP3    H125448   5.726   2.344  16.331 -2.3748  1.8217 -0.7729
 1319TIP3    H225449   5.746   2.374  16.184 -0.6325  0.7498 -0.7781
 1320TIP3   OH225450   5.286   2.058   0.440  0.2424  0.3232 -0.0504
 1320TIP3    H125451   5.193   2.077   0.430  0.6258  1.5480 -1.7353
 1320TIP3    H225452   5.305   1.996   0.370  0.5580 -0.5561  0.7876
 1321TIP3   OH225453   2.595   6.279  14.046 -0.0778  0.4552 -0.1484
 1321TIP3    H125454   2.667   6.216  14.041  0.5829  1.1484  0.4504
 1321TIP3    H225455   2.517   6.225  14.058  0.3369 -0.3013 -0.7410
 1322TIP3   OH225456   4.132   1.173  12.943  0.0965 -0.7742 -0.2116
 1322TIP3    H125457   4.082   1.227  13.005 -0.5405 -1.1674 -0.3709
 1322TIP3    H225458   4.204   1.229  12.914  1.3637 -1.0838  2.0800
 1323TIP3   OH225459   4.849   5.388  11.422  1.4070 -0.1724  0.1839
 1323TIP3    H125460   4.834   5.354  11.333  1.0232  1.3237 -0.3487
 1323TIP3    H225461   4.827   5.481  11.416 -3.3969 -0.7886  2.9161
 1324TIP3   OH225462   5.056   5.533   3.874  0.2052 -0.8521 -0.0917
 1324TIP3    H125463   5.080   5.542   3.966  1.5614 -0.0636 -0.4860
 1324TIP3    H225464   5.006   5.452   3.870 -2.8918  0.7518  1.8883
 1325TIP3   OH225465   5.490   6.128  13.270 -1.2025  0.3061  0.1557
 1325TIP3    H125466   5.472   6.092  13.357  0.7340  0.8364  0.8375
 1325TIP3    H225467   5.412   6.179  13.248 -1.4515  0.7509  1.9212
 1326TIP3   OH225468   3.525   4.621   4.655  0.0493 -0.5707  0.5361
 1326TIP3    H125469   3.561   4.561   4.720 -1.2303 -2.0863 -0.1010
 1326TIP3    H225470   3.435   4.591   4.641 -0.4760  1.2035 -0.1798
 1327TIP3   OH225471   6.030   5.055  12.405 -0.7328  0.8312 -0.7068
 1327TIP3    H125472   5.992   5.034  12.319 -2.9780  0.1362  0.3682
 1327TIP3    H225473   6.047   5.149  12.401 -1.1301  0.8753 -1.7885
 1328TIP3   OH225474   3.054   2.169  12.720 -0.2614 -0.2650  0.0763
 1328TIP3    H125475   3.001   2.185  12.642 -1.1647 -0.2545  0.6798
 1328TIP3    H225476   2.993   2.179  12.793  0.8291  0.9827  0.8639
 1329TIP3   OH225477   4.655   0.733  14.130 -0.3765  0.2742 -0.5689
 1329TIP3    H125478   4.716   0.749  14.058 -0.4405  0.2555 -0.6270
 1329TIP3    H225479   4.687   0.653  14.171  1.5555  1.9572  1.4052
 1330TIP3   OH225480   1.047   3.934   3.197 -0.3852  0.1301 -0.2025
 1330TIP3    H125481   1.072   4.026   3.189 -1.6148  0.5646  0.5164
 1330TIP3    H225482   0.953   3.937   3.219 -0.1451 -1.2328  1.2399
 1331TIP3   OH225483   5.917   6.517   2.944  0.5862  0.4209  0.1926
 1331TIP3    H125484   5.897   6.462   2.868 -2.0742  0.8737  0.4745
 1331TIP3    H225485   6.011   6.534   2.936  0.3940  0.6643 -3.1410
 1332TIP3   OH225486   1.749   3.970  16.973 -0.1633 -0.2876  0.7084
 1332TIP3    H125487   1.682   3.931  16.916 -3.0823  1.8989  2.3957
 1332TIP3    H225488   1.701   3.999  17.050  3.1148 -0.2429  2.9109
 1333TIP3   OH225489   2.716   5.329  16.923  0.4776 -0.5276 -0.4528
 1333TIP3    H125490   2.626   5.299  16.930 -0.4125  1.8615 -0.7845
 1333TIP3    H225491   2.756   5.307  17.007 -1.3755  1.2445  0.9651
 1334TIP3   OH225492   3.471   3.544  10.682  0.3862  0.1463  0.2754
 1334TIP3    H125493   3.503   3.535  10.592 -0.4768 -0.3475  0.0151
 1334TIP3    H225494   3.377   3.559  10.674  0.3044  0.1478  1.0942
 1335TIP3   OH225495   6.555   1.309  12.928 -0.2060  0.0227 -0.0832
 1335TIP3    H125496   6.476   1.294  12.981 -1.0379 -0.6653 -1.4521
 1335TIP3    H225497   6.602   1.226  12.931  0.1965  0.2542  0.2524
 1336TIP3   OH225498   2.510   6.037   2.224  0.2288 -0.1097 -0.3190
 1336TIP3    H125499   2.418   6.039   2.199  0.4607 -1.3441 -1.3365
 1336TIP3    H225500   2.509   6.032   2.320 -0.7179  1.0964 -0.2453
 1337TIP3   OH225501   6.322   2.823   0.725  0.0034  0.1056  0.2602
 1337TIP3    H125502   6.379   2.812   0.801  2.7270 -0.7256 -1.7266
 1337TIP3    H225503   6.251   2.760   0.738  2.8226 -3.4375  0.1423
 1338TIP3   OH225504   0.351   1.686   0.929 -0.2028 -0.2057 -0.0657
 1338TIP3    H125505   0.266   1.730   0.932 -0.7906 -1.3302  2.6933
 1338TIP3    H225506   0.352   1.642   0.844 -2.5155 -0.4096 -0.0563
 1339TIP3   OH225507   0.717   5.902   1.696 -0.0491 -0.0195 -0.0910
 1339TIP3    H125508   0.794   5.923   1.643 -0.0280 -0.0552 -0.0748
 1339TIP3    H225509   0.643   5.909   1.636  0.0057 -0.3700 -0.2056
 1340TIP3   OH225510   5.842   1.183  14.269  0.0061 -0.0623 -0.1119
 1340TIP3    H125511   5.824   1.089  14.269  0.3990 -0.1403  0.2848
 1340TIP3    H225512   5.800   1.216  14.348  0.1552  0.0348 -0.0709
 1341TIP3   OH225513   4.021   2.345   3.365  0.1140  0.0642 -0.4067
 1341TIP3    H125514   4.116   2.356   3.357  0.2380  0.7768  1.3927
 1341TIP3    H225515   4.000   2.271   3.308  1.8514 -0.5127 -0.3633
 1342TIP3   OH225516   2.338   1.685   4.249  0.2528 -0.0134 -0.7255
 1342TIP3    H125517   2.300   1.601   4.224 -0.1863  0.1851 -0.7399
 1342TIP3    H225518   2.364   1.673   4.340 -0.1009 -0.0700 -0.6275
 1343TIP3   OH225519   3.254   6.697   3.416  0.0652 -0.1702  0.1418
 1343TIP3    H125520   3.201   6.646   3.354  0.2996 -0.6551  0.3416
 1343TIP3    H225521   3.301   6.759   3.360 -0.4214  0.0059 -0.0755
 1344TIP3   OH225522   2.183   2.380  16.437  0.1484 -0.2266  0.0851
 1344TIP3    H125523   2.182   2.410  16.528  0.7177 -2.0236  0.7225
 1344TIP3    H225524   2.093   2.394  16.407  0.0993  0.9630  0.6944
 1345TIP3   OH225525   3.045   5.865   1.736  0.3666  0.1405  0.1401
 1345TIP3    H125526   2.959   5.907   1.740  0.3882  0.2317 -0.2661
 1345TIP3    H225527   3.107   5.937   1.724  0.4058  0.0037 -0.5194
 1346TIP3   OH225528   2.643   1.627   1.314 -0.2939 -0.9088 -0.0770
 1346TIP3    H125529   2.728   1.665   1.290 -1.0075  0.7319 -0.1247
 1346TIP3    H225530   2.579   1.695   1.293 -1.2978 -0.5898  3.3993
 1347TIP3   OH225531   3.305   2.327  14.140 -0.0782  0.0013  0.1036
 1347TIP3    H125532   3.321   2.371  14.223 -1.3002 -0.1252  0.4225
 1347TIP3    H225533   3.390   2.326  14.097  0.5815  0.0258  1.3663
 1348TIP3   OH225534   6.040   1.039  16.531 -0.1907 -0.1545  0.0410
 1348TIP3    H125535   6.090   1.121  16.535  2.4076 -1.5490 -1.5250
 1348TIP3    H225536   5.989   1.047  16.451  0.2217 -0.1421 -0.2254
 1349TIP3   OH225537   3.538   6.553  16.517  0.0224 -0.1430 -0.0621
 1349TIP3    H125538   3.493   6.572  16.599  0.4461  0.6858 -0.0150
 1349TIP3    H225539   3.468   6.552  16.452 -0.4596 -1.8215  0.4374
 1350TIP3   OH225540   6.633   0.195  13.428  0.0501 -0.2829  0.3384
 1350TIP3    H125541   6.629   0.281  13.470 -0.7438 -0.1027 -0.0886
 1350TIP3    H225542   6.721   0.162  13.449  0.4617  0.7406  0.2825
 1351TIP3   OH225543   3.141   6.597   5.655 -0.5405 -0.6034  0.3182
 1351TIP3    H125544   3.087   6.522   5.677 -0.5452 -0.7241 -0.1051
 1351TIP3    H225545   3.224   6.559   5.624  0.5529 -0.4334  2.7794
 1352TIP3   OH225546   2.504   1.485   0.720  0.6084  0.3287  0.3218
 1352TIP3    H125547   2.487   1.420   0.652 -0.2353  1.7029 -0.8495
 1352TIP3    H225548   2.542   1.436   0.793  0.4378 -1.3680 -0.7021
 1353TIP3   OH225549   5.138   3.812  12.496  0.3188  0.3831  0.0124
 1353TIP3    H125550   5.068   3.862  12.537  0.9169 -0.2380  1.8796
 1353TIP3    H225551   5.183   3.876  12.441 -2.3084  0.5500 -2.1493
 1354TIP3   OH225552   4.900   1.537  12.596  0.1119  0.2991  0.5002
 1354TIP3    H125553   4.932   1.626  12.609 -0.4053  0.6401 -0.4324
 1354TIP3    H225554   4.964   1.497  12.536  0.2240  0.1083  0.7436
 1355TIP3   OH225555   0.630   3.874   4.387  0.1815  0.3667 -0.5514
 1355TIP3    H125556   0.630   3.949   4.446  0.2035  0.1168 -0.2323
 1355TIP3    H225557   0.684   3.809   4.431 -0.7081 -0.2355 -0.3245
 1356TIP3   OH225558   4.467   6.091   4.849  0.0021  0.3687 -0.6317
 1356TIP3    H125559   4.373   6.097   4.831  0.3239 -0.4788 -2.9625
 1356TIP3    H225560   4.508   6.102   4.764  2.1590  2.4930  0.5690
 1357TIP3   OH225561   0.999   6.477   0.080 -0.4910  0.1253  0.1039
 1357TIP3    H125562   0.915   6.485   0.037  0.0225  0.0203 -0.9472
 1357TIP3    H225563   1.049   6.553   0.051 -0.5576  0.7507  1.5394
 1358TIP3   OH225564   1.354   4.122   3.246 -0.3015 -0.5381 -0.4569
 1358TIP3    H125565   1.375   4.113   3.339 -0.8987 -1.1231 -0.3708
 1358TIP3    H225566   1.394   4.046   3.205  2.1543  0.9841 -1.1025
 1359TIP3   OH225567   0.263   0.012  11.770  0.0279 -0.2076 -0.6054
 1359TIP3    H125568   0.219   0.095  11.753  0.0089 -0.4495 -1.8596
 1359TIP3    H225569   0.197  -0.042  11.812 -0.6065 -0.2451 -1.6034
 1360TIP3   OH225570   0.081   5.608  14.764  0.1765  0.0657  0.4617
 1360TIP3    H125571   0.073   5.528  14.815 -0.4752 -0.1688 -0.0069
 1360TIP3    H225572   0.016   5.668  14.801  0.5495  0.3260  0.7050
 1361TIP3   OH225573   1.656   1.011  13.794 -0.0264  0.6339  0.0068
 1361TIP3    H125574   1.680   0.966  13.713 -0.6963  0.9908 -0.3999
 1361TIP3    H225575   1.659   1.104  13.772  0.5167  0.7684  0.6058
 1362TIP3   OH225576   4.911   0.325   1.149 -0.4120  0.1616 -0.2994
 1362TIP3    H125577   4.889   0.416   1.129  1.4260  1.1353  1.6800
 1362TIP3    H225578   4.850   0.300   1.219 -1.1488 -0.2668 -1.0859
 1363TIP3   OH225579   4.604   6.698   5.240 -0.1765  0.1239  0.2389
 1363TIP3    H125580   4.650   6.661   5.315  0.9992  0.6405 -0.2083
 1363TIP3    H225581   4.605   6.628   5.175  0.3960  0.3042  0.0573
 1364TIP3   OH225582   2.792   2.510   1.102  0.5338  0.2241 -0.1880
 1364TIP3    H125583   2.826   2.486   1.188 -0.8088  2.2554  0.9646
 1364TIP3    H225584   2.705   2.544   1.118  0.6652  1.7038 -2.2176
 1365TIP3   OH225585   1.610   0.252   0.973 -0.3017 -0.5004 -0.2057
 1365TIP3    H125586   1.583   0.297   1.052 -1.0607 -0.7045 -0.3356
 1365TIP3    H225587   1.596   0.315   0.903  1.3137  0.0312 -0.0862
 1366TIP3   OH225588   6.011   1.827   3.331 -0.2026  0.2084  0.1228
 1366TIP3    H125589   6.071   1.784   3.270 -0.0853  1.9292 -1.0597
 1366TIP3    H225590   6.044   1.804   3.418  1.5921  0.3312 -0.4867
 1367TIP3   OH225591   4.513   2.890  11.193  0.0074 -0.3736 -0.4078
 1367TIP3    H125592   4.498   2.985  11.199 -3.1111 -0.8118 -0.0825
 1367TIP3    H225593   4.494   2.868  11.102 -0.0916 -0.8258 -0.2799
 1368TIP3   OH225594   1.873   3.627  14.106  0.0944 -0.3032 -0.1502
 1368TIP3    H125595   1.843   3.641  14.016  2.2229  0.1465 -0.8576
 1368TIP3    H225596   1.892   3.533  14.110  0.5042 -0.2341 -0.3635
 1369TIP3   OH225597   3.764   1.051   0.631  0.1160  0.3329 -0.2131
 1369TIP3    H125598   3.821   0.974   0.636  2.0040  1.7448  1.2008
 1369TIP3    H225599   3.815   1.117   0.584 -0.5977  1.4328  0.5127
 1370TIP3   OH225600   0.113   6.458   3.739 -0.1433  0.3090 -0.3671
 1370TIP3    H125601   0.205   6.444   3.760  0.0263 -0.0001 -1.2925
 1370TIP3    H225602   0.098   6.405   3.661 -1.0736  0.4603 -0.2975
 1371TIP3   OH225603   3.696   6.061   1.785  0.0886 -0.0166  0.1620
 1371TIP3    H125604   3.785   6.027   1.784 -0.1719 -0.6983 -0.3828
 1371TIP3    H225605   3.668   6.058   1.694  0.1535  1.9432  0.0404
 1372TIP3   OH225606   1.842   2.160   3.361  0.3464 -0.3781  0.6473
 1372TIP3    H125607   1.937   2.149   3.359  0.3352 -0.4173 -0.0091
 1372TIP3    H225608   1.808   2.072   3.376  0.4320 -0.1961  2.0944
 1373TIP3   OH225609   6.113   3.658  13.879 -0.2675  0.2346 -0.1655
 1373TIP3    H125610   6.055   3.629  13.949  1.0427 -0.2863  0.7437
 1373TIP3    H225611   6.106   3.590  13.812 -1.1504  0.4803 -0.3305
 1374TIP3   OH225612   5.991   1.637  13.550  0.7531  0.1247  0.8686
 1374TIP3    H125613   5.979   1.543  13.538  0.2879  0.2381  0.3755
 1374TIP3    H225614   5.907   1.675  13.525  1.4837  0.8137 -0.7052
 1375TIP3   OH225615   3.425   4.418   5.883  0.0821  0.6016 -0.3790
 1375TIP3    H125616   3.373   4.391   5.807 -1.2132  0.1970  0.6053
 1375TIP3    H225617   3.413   4.513   5.888 -1.2102  0.4268  0.2613
 1376TIP3   OH225618   5.197   4.902  12.982  0.0809  0.0923  0.6737
 1376TIP3    H125619   5.220   4.969  12.918 -2.3828  0.4491  0.0678
 1376TIP3    H225620   5.115   4.933  13.021 -0.1222 -1.6497  1.7381
 1377TIP3   OH225621   0.804   1.829   2.839 -0.4811  0.3503 -0.3358
 1377TIP3    H125622   0.873   1.856   2.900  1.0156 -1.5312 -1.0828
 1377TIP3    H225623   0.791   1.906   2.783  0.1892  1.1372  0.5520
 1378TIP3   OH225624   0.299   4.457  13.783 -0.0069 -0.4327  0.1026
 1378TIP3    H125625   0.344   4.415  13.710 -0.3545  2.5145 -1.9899
 1378TIP3    H225626   0.206   4.443  13.765 -0.0826 -0.3550  0.4205
 1379TIP3   OH225627   6.726   2.507  16.946  0.1239 -0.0211  0.0227
 1379TIP3    H125628   6.696   2.588  16.989  0.9762  0.6811 -0.6763
 1379TIP3    H225629   6.657   2.443  16.965 -0.5472  0.8563  0.6240
 1380TIP3   OH225630   2.759   1.735   5.783  0.1791 -0.1359  0.0123
 1380TIP3    H125631   2.838   1.781   5.813 -1.5163  2.1195  1.2399
 1380TIP3    H225632   2.690   1.765   5.842 -1.5781 -2.3139 -0.8105
 1381TIP3   OH225633   5.768   4.989   1.110  0.7584  0.2389  0.3064
 1381TIP3    H125634   5.744   4.924   1.176 -1.8288  2.6146  1.9470
 1381TIP3    H225635   5.755   4.944   1.026 -0.1844 -1.5746  1.3559
 1382TIP3   OH225636   5.805   2.077  12.503 -0.5371  0.3256 -0.5954
 1382TIP3    H125637   5.740   2.058  12.570 -0.1524  0.4761 -0.1750
 1382TIP3    H225638   5.888   2.084  12.550 -0.6263  3.0307 -0.6602
 1383TIP3   OH225639   1.707   0.502  15.583 -0.1027 -0.2354  0.1585
 1383TIP3    H125640   1.685   0.548  15.502  0.4501 -1.1680 -0.5421
 1383TIP3    H225641   1.637   0.437  15.593  0.2294 -0.6255  0.0067
 1384TIP3   OH225642   2.607   0.771   0.203  0.0515 -0.1893 -0.2294
 1384TIP3    H125643   2.634   0.721   0.126  0.2967 -0.1953 -0.1386
 1384TIP3    H225644   2.511   0.771   0.199  0.0478 -0.7612 -0.1671
 1385TIP3   OH225645   0.880   2.664   0.623 -0.1512  0.7746 -0.0445
 1385TIP3    H125646   0.954   2.725   0.628 -0.9722  1.7173  0.9940
 1385TIP3    H225647   0.833   2.675   0.706 -0.5120 -1.0561  0.0545
 1386TIP3   OH225648   3.867   3.655  14.259  0.6096  0.3936  0.1896
 1386TIP3    H125649   3.897   3.743  14.281  1.7278  0.2468 -0.6986
 1386TIP3    H225650   3.841   3.617  14.343 -0.0423  1.6090  0.5637
 1387TIP3   OH225651   5.965   4.503  12.221 -0.0936 -0.3572 -0.4484
 1387TIP3    H125652   6.029   4.553  12.272  0.8462 -0.5045 -1.4341
 1387TIP3    H225653   5.974   4.413  12.253 -1.5870  0.0112  1.1309
 1388TIP3   OH225654   1.187   4.112  13.605 -0.1556 -0.1331  0.3632
 1388TIP3    H125655   1.138   4.080  13.529 -0.5322 -0.2276  0.6445
 1388TIP3    H225656   1.185   4.040  13.667  0.0730 -0.0206  0.5001
 1389TIP3   OH225657   3.014   2.144   4.080 -0.6352  0.5457 -0.4406
 1389TIP3    H125658   3.009   2.190   3.997 -1.6085  0.9933 -0.1483
 1389TIP3    H225659   2.994   2.053   4.058 -0.4334  0.5777 -0.7617
 1390TIP3   OH225660   1.402   4.161   2.539  0.3300  0.7422 -0.3937
 1390TIP3    H125661   1.470   4.151   2.606 -1.2325  0.0213  1.1808
 1390TIP3    H225662   1.442   4.216   2.472  2.5604  0.0638  0.2974
 1391TIP3   OH225663   5.288   6.310  15.614  0.1434  0.0345  0.3793
 1391TIP3    H125664   5.304   6.385  15.558 -1.4038 -0.8781 -1.3940
 1391TIP3    H225665   5.329   6.236  15.570 -0.7929 -0.6402  0.5844
 1392TIP3   OH225666   1.577   3.828  16.199  0.6068 -0.2673  0.0347
 1392TIP3    H125667   1.666   3.796  16.183  1.2814  1.7459 -0.6094
 1392TIP3    H225668   1.540   3.841  16.111 -0.5966 -1.6983  0.2920
 1393TIP3   OH225669   6.444   4.408  17.032 -0.5124 -0.4293 -0.2587
 1393TIP3    H125670   6.518   4.368  17.077  0.0627  0.7610 -0.1252
 1393TIP3    H225671   6.478   4.435  16.947  0.0241  2.5730  0.7808
 1394TIP3   OH225672   4.356   5.316   4.109 -0.3298 -0.6355  0.1447
 1394TIP3    H125673   4.279   5.360   4.146  1.1385  1.9238  0.3668
 1394TIP3    H225674   4.420   5.386   4.098  1.1366 -2.2384 -2.3603
 1395TIP3   OH225675   0.812   4.148   4.771 -0.1047 -0.0642 -0.2650
 1395TIP3    H125676   0.763   4.226   4.798  1.4119  0.8611 -0.1065
 1395TIP3    H225677   0.896   4.181   4.740  0.3078 -1.5861 -0.8932
 1396TIP3   OH225678   2.975   6.386   4.512  0.4299 -0.2286 -0.2018
 1396TIP3    H125679   2.894   6.338   4.496 -0.1524  0.4147  0.7255
 1396TIP3    H225680   3.035   6.356   4.443 -0.0535 -1.9177  0.0836
 1397TIP3   OH225681   1.508   1.458   1.463  0.0809  0.0753 -0.2517
 1397TIP3    H125682   1.531   1.366   1.466  2.4366  0.5724 -1.3824
 1397TIP3    H225683   1.435   1.463   1.401 -2.2523 -1.3369  2.1616
 1398TIP3   OH225684   2.032   6.630   1.782  0.0866 -0.8105 -0.5799
 1398TIP3    H125685   1.947   6.613   1.743 -0.6524 -1.7480  1.3120
 1398TIP3    H225686   2.043   6.725   1.775 -1.9307 -0.4242  0.6491
 1399TIP3   OH225687   6.760   2.492  13.544 -0.2166 -0.0262 -0.3506
 1399TIP3    H125688   6.821   2.465  13.477 -0.3544  1.6348 -1.1914
 1399TIP3    H225689   6.681   2.518  13.496 -0.0580  1.8956  0.3476
 1400TIP3   OH225690   1.412   1.200   2.756  0.0166  0.3036 -0.0156
 1400TIP3    H125691   1.358   1.194   2.677 -0.3406 -0.1375  0.2652
 1400TIP3    H225692   1.486   1.142   2.738 -0.7150 -0.8075  0.4947
 1401TIP3   OH225693   4.068   2.050  11.170  0.5765 -0.2316  0.7506
 1401TIP3    H125694   4.093   1.960  11.152 -1.2903 -0.8053  0.7812
 1401TIP3    H225695   4.075   2.095  11.086 -1.0913 -1.1080  0.1009
 1402TIP3   OH225696   6.553   6.325   4.433  0.2308 -0.1183 -0.7637
 1402TIP3    H125697   6.509   6.332   4.349 -1.9076 -0.1339  0.2866
 1402TIP3    H225698   6.562   6.415   4.464  0.6371 -0.1374 -0.8169
 1403TIP3   OH225699   0.425   5.883  12.731  0.7477  0.2292 -0.0007
 1403TIP3    H125700   0.496   5.828  12.700  0.5304 -0.7302  1.1185
 1403TIP3    H225701   0.466   5.941  12.796  0.7132  0.4495 -0.1734
 1404TIP3   OH225702   5.117   1.762   7.143 -0.2952  0.0324 -0.4664
 1404TIP3    H125703   5.212   1.776   7.141 -0.3517  1.0185  1.5192
 1404TIP3    H225704   5.102   1.719   7.228 -1.7075  0.7687 -0.3236
 1405TIP3   OH225705   4.431   0.406   6.626  0.0588  0.1435 -0.3358
 1405TIP3    H125706   4.401   0.413   6.717 -0.3455 -0.4387 -0.4219
 1405TIP3    H225707   4.404   0.319   6.598 -0.8386  0.7232 -1.3801
 1406TIP3   OH225708   1.366   4.025   4.592  0.6428  0.2696  0.3600
 1406TIP3    H125709   1.375   4.026   4.497  0.8832  0.2295  0.3809
 1406TIP3    H225710   1.426   3.956   4.621  0.4126  0.1357  0.5247
 1407TIP3   OH225711   2.103   6.710   4.924 -0.1484  0.4914 -0.5316
 1407TIP3    H125712   2.016   6.673   4.933 -0.4652  1.1232 -0.9404
 1407TIP3    H225713   2.114   6.724   4.830  1.0626 -1.1630 -0.6801
 1408TIP3   OH225714   3.155   3.262  13.413 -0.0021  0.9887  0.1553
 1408TIP3    H125715   3.228   3.284  13.355  1.8292 -0.6495  1.6805
 1408TIP3    H225716   3.128   3.175  13.384 -0.2642  0.9088  0.6367
 1409TIP3   OH225717   4.856   6.029  14.990  0.1095  0.3261 -0.5432
 1409TIP3    H125718   4.767   6.063  14.985 -0.6109 -1.5255 -1.9193
 1409TIP3    H225719   4.863   5.971  14.913  2.0550 -0.5641  0.2405
 1410TIP3   OH225720   0.363   3.478  15.646  0.7284  0.4420  0.0294
 1410TIP3    H125721   0.268   3.491  15.640  0.6641 -0.2266 -0.4325
 1410TIP3    H225722   0.380   3.471  15.740  0.0636 -1.2229  0.0433
 1411TIP3   OH225723   6.394   5.347  12.725 -0.2798 -0.0709 -0.5207
 1411TIP3    H125724   6.417   5.430  12.766 -0.1048 -0.8962  1.1299
 1411TIP3    H225725   6.321   5.313  12.778  0.2295 -1.3661 -0.6102
 1412TIP3   OH225726   4.139   3.097   0.398  0.0581  0.5188 -0.0613
 1412TIP3    H125727   4.168   3.172   0.347 -0.0280  0.5207 -0.1082
 1412TIP3    H225728   4.066   3.130   0.449 -0.3596  0.3213 -0.5189
 1413TIP3   OH225729   0.299   0.398   2.395  0.1326  0.0036  0.6837
 1413TIP3    H125730   0.260   0.340   2.329 -0.3231 -1.4077  2.1102
 1413TIP3    H225731   0.378   0.432   2.353 -1.2263  0.8935 -1.3518
 1414TIP3   OH225732   3.572   4.069   1.162 -0.6320  0.0147 -0.1475
 1414TIP3    H125733   3.595   4.124   1.237  1.4987  1.1284 -1.5006
 1414TIP3    H225734   3.642   4.004   1.157  0.1845  0.9443 -2.0205
 1415TIP3   OH225735   4.876   6.180  12.589  0.0592  0.2272 -0.0840
 1415TIP3    H125736   4.784   6.158  12.602 -0.3637  1.5181 -0.7200
 1415TIP3    H225737   4.912   6.104  12.543 -1.0914  0.3562 -1.2747
 1416TIP3   OH225738   0.923   2.358  13.121  0.6610 -0.3302  0.0676
 1416TIP3    H125739   0.955   2.418  13.188  0.7391  1.4929 -1.4957
 1416TIP3    H225740   0.829   2.374  13.117  0.5191 -1.0593  0.3140
 1417TIP3   OH225741   2.954   1.431   1.737  0.2866 -0.2673 -0.1700
 1417TIP3    H125742   2.975   1.523   1.720  0.0760 -0.1324  0.2946
 1417TIP3    H225743   2.862   1.433   1.764  0.6197 -0.4799  0.9952
 1418TIP3   OH225744   4.308   2.173   1.865 -0.0491 -0.1461 -0.4134
 1418TIP3    H125745   4.240   2.117   1.902  0.4992 -0.8775 -0.4985
 1418TIP3    H225746   4.339   2.125   1.788  0.2876  0.3706 -0.6052
 1419TIP3   OH225747   4.124   0.479   2.162  0.1568 -0.2035 -0.1404
 1419TIP3    H125748   4.067   0.548   2.199  0.8672 -0.0588  0.7097
 1419TIP3    H225749   4.194   0.527   2.119 -0.2754 -0.3877 -1.0924
 1420TIP3   OH225750   2.598   0.796  16.927 -0.1999  0.2089 -0.2947
 1420TIP3    H125751   2.513   0.758  16.903 -0.6244  0.9273  0.0409
 1420TIP3    H225752   2.645   0.801  16.843  0.4256 -2.2925 -0.1857
 1421TIP3   OH225753   1.877   4.229   0.166  0.3700  0.6966  0.3301
 1421TIP3    H125754   1.797   4.193   0.206  0.0401  0.1300 -0.7998
 1421TIP3    H225755   1.844   4.289   0.099  0.9188  2.0587  1.2210
 1422TIP3   OH225756   6.658   2.927   6.579 -0.3452  0.0649 -0.2689
 1422TIP3    H125757   6.691   2.841   6.604 -1.5175 -1.2273 -2.8390
 1422TIP3    H225758   6.563   2.917   6.579 -0.4656  0.9821 -1.7481
 1423TIP3   OH225759   2.047   2.200   4.919 -0.2149  0.8375  0.3141
 1423TIP3    H125760   2.075   2.163   5.002 -1.3698 -1.4996 -0.2610
 1423TIP3    H225761   1.989   2.273   4.943 -0.2612  0.4133  1.5476
 1424TIP3   OH225762   0.252   2.825   4.276 -0.2715  0.7025 -0.3931
 1424TIP3    H125763   0.284   2.875   4.200  1.0516  1.1013  0.3886
 1424TIP3    H225764   0.327   2.772   4.302 -1.0344 -0.1897  0.0397
 1425TIP3   OH225765   3.913   2.686  11.069  0.2823  0.0515  0.8243
 1425TIP3    H125766   3.995   2.636  11.064 -0.4185 -1.1309  0.9644
 1425TIP3    H225767   3.882   2.692  10.979 -0.3568 -1.0146  0.9600
 1426TIP3   OH225768   4.191   3.353   1.368  0.5964  0.7384  0.2609
 1426TIP3    H125769   4.211   3.439   1.331 -1.0381  0.9236 -0.2809
 1426TIP3    H225770   4.114   3.368   1.423 -1.3149 -0.7672 -1.8192
 1427TIP3   OH225771   0.415   4.529  11.630 -0.2239  0.0162 -0.0909
 1427TIP3    H125772   0.470   4.452  11.636  0.0137  0.1474 -0.5269
 1427TIP3    H225773   0.475   4.601  11.609 -0.4917  0.2477 -0.0791
 1428TIP3   OH225774   5.689   3.941  11.941 -0.2314 -0.1274  0.0381
 1428TIP3    H125775   5.682   4.012  11.877 -0.1116  0.9367  1.1425
 1428TIP3    H225776   5.611   3.888  11.927 -0.2828  0.1725 -0.8772
 1429TIP3   OH225777   0.163   6.101  13.335 -0.2484 -0.2314  0.2347
 1429TIP3    H125778   0.253   6.077  13.354  0.6093  1.3935 -1.5551
 1429TIP3    H225779   0.117   6.017  13.327  1.4712 -1.1363 -0.5526
 1430TIP3   OH225780   5.878   2.480  10.940  0.0208  0.2321  0.4982
 1430TIP3    H125781   5.790   2.449  10.957  0.3717  0.3205  2.8931
 1430TIP3    H225782   5.922   2.408  10.896 -1.4629  0.5493 -1.6351
 1431TIP3   OH225783   5.780   0.649  16.995  0.1115 -0.5624 -0.1626
 1431TIP3    H125784   5.703   0.650  16.938 -0.1888  0.0829  0.2480
 1431TIP3    H225785   5.852   0.675  16.937 -0.1045 -0.4283 -0.3753
 1432TIP3   OH225786   3.798   6.296   5.028 -0.8839  0.3549 -0.2577
 1432TIP3    H125787   3.872   6.303   4.967 -0.8771  0.8456 -0.2016
 1432TIP3    H225788   3.840   6.280   5.113 -0.9848 -3.0255 -0.7313
 1433TIP3   OH225789   5.898   0.992   6.241 -0.0454 -0.1777 -0.2309
 1433TIP3    H125790   5.822   0.943   6.273  1.4467 -0.7129  2.9467
 1433TIP3    H225791   5.879   1.083   6.261 -0.6897 -0.0463 -1.3913
 1434TIP3   OH225792   5.670   4.578   5.065 -0.0222  0.3040  0.2388
 1434TIP3    H125793   5.715   4.644   5.118 -0.4133  1.9826 -1.4073
 1434TIP3    H225794   5.580   4.610   5.058 -1.0215 -1.9290  1.7312
 1435TIP3   OH225795   4.756   2.125  14.988  0.5470 -0.0613  0.2734
 1435TIP3    H125796   4.851   2.134  14.987  0.5344  0.1433  0.5871
 1435TIP3    H225797   4.741   2.032  15.006  0.6838 -0.2373 -0.5002
 1436TIP3   OH225798   0.773   2.346   0.004 -0.6889 -0.3760 -0.1278
 1436TIP3    H125799   0.764   2.440   0.022  1.2238 -0.0109 -0.8830
 1436TIP3    H225800   0.760   2.338  -0.090  0.4848 -0.6729 -0.2749
 1437TIP3   OH225801   6.589   5.145  13.507  0.3034  0.3658 -0.1349
 1437TIP3    H125802   6.540   5.224  13.483  0.4174  0.9400  1.3790
 1437TIP3    H225803   6.540   5.073  13.467 -0.7011  1.0835 -0.2463
 1438TIP3   OH225804   1.905   5.694   4.028 -0.2975 -0.2290  0.3438
 1438TIP3    H125805   1.982   5.657   3.986  0.5945 -0.2820  1.9593
 1438TIP3    H225806   1.901   5.651   4.114 -2.1774 -0.2996  0.2670
 1439TIP3   OH225807   2.868   5.261  13.970 -0.2342  0.4029  0.0377
 1439TIP3    H125808   2.781   5.238  13.936 -0.3295 -0.8345  1.0473
 1439TIP3    H225809   2.872   5.356  13.963 -1.9539  0.5477  0.6172
 1440TIP3   OH225810   1.821   3.001   2.531  0.4480  0.0450  0.6294
 1440TIP3    H125811   1.795   3.093   2.530 -0.1223 -0.0951  1.6114
 1440TIP3    H225812   1.888   2.994   2.463  0.4425  1.1642  0.4991
 1441TIP3   OH225813   0.522   3.948   2.933  0.2287 -0.3213 -0.2262
 1441TIP3    H125814   0.599   3.988   2.974  0.0776  0.0980 -0.3421
 1441TIP3    H225815   0.546   3.939   2.841  0.1775 -0.2872 -0.2426
 1442TIP3   OH225816   3.559   4.000  16.067 -0.2739 -0.3047  0.3018
 1442TIP3    H125817   3.589   4.054  15.994 -2.0261 -0.0647 -0.2885
 1442TIP3    H225818   3.544   4.062  16.138  0.7551 -0.4477  0.6558
 1443TIP3   OH225819   1.708   1.222  15.711 -0.5314 -0.5007  0.2074
 1443TIP3    H125820   1.788   1.185  15.673 -0.4103  0.1499 -0.1841
 1443TIP3    H225821   1.637   1.185  15.658 -0.4182 -0.2386 -0.1293
 1444TIP3   OH225822   3.890   2.687   2.210 -0.1606  0.7256 -0.1423
 1444TIP3    H125823   3.811   2.732   2.240 -0.3052 -0.6087  1.5871
 1444TIP3    H225824   3.895   2.608   2.263  1.8472  0.3092 -0.8685
 1445TIP3   OH225825   0.561   3.371   3.448  0.1265 -0.2423  0.3035
 1445TIP3    H125826   0.474   3.333   3.446  0.1756 -0.3622  0.4635
 1445TIP3    H225827   0.593   3.354   3.536  0.2562 -0.0750  0.2888
 1446TIP3   OH225828   3.197   0.662   1.691 -0.6389  0.6282  0.6321
 1446TIP3    H125829   3.115   0.633   1.652 -1.1317  1.4402  1.0392
 1446TIP3    H225830   3.214   0.600   1.762  0.3827 -0.9957 -0.9564
 1447TIP3   OH225831   5.787   4.358  13.419  0.3127 -0.0511  0.1486
 1447TIP3    H125832   5.709   4.316  13.455  0.0724  1.4041  1.4496
 1447TIP3    H225833   5.755   4.433  13.370  0.8750  1.7500  2.3423
 1448TIP3   OH225834   0.622   6.475  14.969  0.4406  0.3268  0.2323
 1448TIP3    H125835   0.557   6.405  14.981  0.0871  0.7641  0.9249
 1448TIP3    H225836   0.637   6.478  14.875 -2.8651  2.2563 -0.4045
 1449TIP3   OH225837   0.930   5.539  12.510 -0.0438  0.1772  0.0062
 1449TIP3    H125838   0.951   5.570  12.598  0.3997  0.2912 -0.1346
 1449TIP3    H225839   0.938   5.617  12.455  2.3957 -0.3942 -0.5688
 1450TIP3   OH225840   6.151   4.695  14.059 -0.0397  0.1517 -0.2094
 1450TIP3    H125841   6.159   4.636  13.984  1.8440 -0.0679  0.1092
 1450TIP3    H225842   6.238   4.735  14.067 -0.2333  0.2724  1.7594
 1451TIP3   OH225843   0.290   5.480  14.097  0.1512 -0.0259 -0.0676
 1451TIP3    H125844   0.196   5.462  14.100  0.1517 -0.0804 -0.3612
 1451TIP3    H225845   0.322   5.428  14.023  0.6754 -1.2145  0.9623
 1452TIP3   OH225846   1.139   6.130   2.519  0.3318 -0.4939  0.4423
 1452TIP3    H125847   1.058   6.177   2.498 -0.2362 -2.4638 -2.2421
 1452TIP3    H225848   1.207   6.198   2.515 -0.8247  0.6827 -0.1617
 1453TIP3   OH225849   5.168   3.844  14.603 -0.2329 -0.1365 -0.1096
 1453TIP3    H125850   5.149   3.931  14.569  2.0369  0.2321 -0.6066
 1453TIP3    H225851   5.170   3.787  14.526  0.7268 -0.1272 -0.1008
 1454TIP3   OH225852   3.606   3.691   2.228 -0.7422 -0.0499 -0.0793
 1454TIP3    H125853   3.695   3.684   2.193 -1.1240 -1.4652 -0.8358
 1454TIP3    H225854   3.618   3.718   2.319  0.3988  0.7925 -0.4535
 1455TIP3   OH225855   3.558   2.716  15.481  0.6590 -0.2922 -0.4077
 1455TIP3    H125856   3.482   2.718  15.538 -0.6648 -0.2739 -2.0912
 1455TIP3    H225857   3.536   2.651  15.414  1.4452  0.8347 -1.8104
 1456TIP3   OH225858   3.641   5.981  16.202 -0.0421  0.6851  0.4156
 1456TIP3    H125859   3.639   5.931  16.284 -1.6427  0.7058  0.4091
 1456TIP3    H225860   3.696   5.928  16.144 -1.2177 -0.7934  0.6034
 1457TIP3   OH225861   4.618   1.329   4.800  0.4408 -0.6992 -0.3534
 1457TIP3    H125862   4.622   1.351   4.707  0.9869 -2.1468 -0.6989
 1457TIP3    H225863   4.705   1.297   4.821  1.0684  1.8246  1.2883
 1458TIP3   OH225864   1.519   2.935  15.939 -0.0754 -0.3143 -0.5965
 1458TIP3    H125865   1.593   2.892  15.982  1.8121  1.9748 -1.3500
 1458TIP3    H225866   1.529   3.028  15.961 -4.1340 -0.1089  1.2175
 1459TIP3   OH225867   1.848   5.923  15.237  0.9519  0.3209  0.3228
 1459TIP3    H125868   1.810   5.948  15.322  0.9374 -1.2341  0.8098
 1459TIP3    H225869   1.942   5.923  15.252  0.9312 -3.2655  1.4588
 1460TIP3   OH225870   3.676   2.671  12.951  0.3582 -0.1957 -0.1960
 1460TIP3    H125871   3.664   2.705  12.863 -0.1379 -0.8395 -0.3852
 1460TIP3    H225872   3.746   2.607  12.943  1.8817  1.3308  0.3188
 1461TIP3   OH225873   2.805   1.191  13.197  0.0619 -0.0693 -0.3240
 1461TIP3    H125874   2.811   1.213  13.290  1.4474 -1.0635 -0.1448
 1461TIP3    H225875   2.722   1.145  13.189 -0.7460  1.2427  0.1303
 1462TIP3   OH225876   3.495   5.729   0.181  0.2288  0.0158 -0.4860
 1462TIP3    H125877   3.568   5.788   0.200 -0.1859  0.4399 -0.1783
 1462TIP3    H225878   3.536   5.646   0.159  0.7950  0.0306  0.4522
 1463TIP3   OH225879   4.289   1.602  15.484 -0.2577  0.1574  0.2126
 1463TIP3    H125880   4.255   1.688  15.463 -0.3344  0.6086  1.9777
 1463TIP3    H225881   4.383   1.615  15.497  0.2081 -0.5673 -2.0403
 1464TIP3   OH225882   3.569   3.623  13.436  0.3187  0.0361  0.4930
 1464TIP3    H125883   3.475   3.611  13.448  0.3728 -0.1726  0.7109
 1464TIP3    H225884   3.608   3.539  13.461  0.5538  0.0856  0.2957
 1465TIP3   OH225885   1.128   6.438  13.853  0.3069  0.2228  0.7765
 1465TIP3    H125886   1.209   6.409  13.812 -0.4287  0.2410 -0.7651
 1465TIP3    H225887   1.064   6.370  13.831 -0.6889  1.4125 -0.2231
 1466TIP3   OH225888   4.297   2.047  17.042 -0.6394  0.0266 -0.0920
 1466TIP3    H125889   4.293   2.107  16.967 -1.8379 -1.2047 -1.0704
 1466TIP3    H225890   4.258   1.966  17.009  1.8140 -1.6734  0.8390
 1467TIP3   OH225891   6.746   2.545  15.079  0.2793 -0.2955 -0.1109
 1467TIP3    H125892   6.718   2.512  15.164  0.1465 -1.5220 -0.6155
 1467TIP3    H225893   6.760   2.467  15.026  0.5027  0.4452 -1.1765
 1468TIP3   OH225894   1.352   2.774   3.446  0.0807  0.0646  0.6107
 1468TIP3    H125895   1.411   2.704   3.417  0.7329  0.5089  0.8451
 1468TIP3    H225896   1.385   2.799   3.532  0.6444  1.5339 -0.0001
 1469TIP3   OH225897   4.240   6.028   3.896  0.0338 -0.2709  0.7686
 1469TIP3    H125898   4.243   6.043   3.802 -1.6387  0.1342  0.7514
 1469TIP3    H225899   4.268   6.110   3.935 -1.0635  0.1774  0.6267
 1470TIP3   OH225900   3.122   0.241  16.089  0.2666 -0.2436 -0.4421
 1470TIP3    H125901   3.076   0.296  16.153  0.9741  1.1076 -1.0513
 1470TIP3    H225902   3.091   0.152  16.107 -0.6664  0.3016  0.7961
 1471TIP3   OH225903   4.082   5.771  10.921 -0.5785 -0.3243 -0.4107
 1471TIP3    H125904   4.031   5.844  10.885  1.0386  0.3507 -1.4860
 1471TIP3    H225905   4.101   5.716  10.845 -1.7666 -1.9101  0.3844
 1472TIP3   OH225906   1.223   5.660   1.753 -0.0452 -0.0312  0.0971
 1472TIP3    H125907   1.136   5.629   1.728 -0.2534  0.9171 -0.4190
 1472TIP3    H225908   1.246   5.609   1.831 -1.3347  0.1466  0.6154
 1473TIP3   OH225909   3.284   4.989  11.532  0.4877  0.0991  0.7512
 1473TIP3    H125910   3.333   4.909  11.515  0.2692  0.1070  0.0266
 1473TIP3    H225911   3.331   5.056  11.482 -1.3483 -0.2532 -1.6242
 1474TIP3   OH225912   5.092   2.189   5.844 -0.3482  0.1547 -0.0623
 1474TIP3    H125913   5.054   2.274   5.869  2.4905  1.0920  1.5202
 1474TIP3    H225914   5.058   2.128   5.910  0.4274  0.8620  1.0216
 1475TIP3   OH225915   6.794   5.460  16.670  0.3373 -0.0804 -0.2318
 1475TIP3    H125916   6.815   5.549  16.699  2.3809 -0.7578  0.5899
 1475TIP3    H225917   6.769   5.470  16.579  0.2715  1.3720 -0.0880
 1476TIP3   OH225918   4.417   3.736  16.619 -0.0260  0.2897 -0.1413
 1476TIP3    H125919   4.495   3.717  16.671 -0.9483 -1.4028  0.7149
 1476TIP3    H225920   4.376   3.811  16.664  1.4085  1.6641 -1.0118
 1477TIP3   OH225921   3.368   3.905  11.845 -0.3550  0.1054  0.0066
 1477TIP3    H125922   3.310   3.961  11.793  0.4255  1.8578  0.9227
 1477TIP3    H225923   3.313   3.874  11.917 -0.8923 -0.6142 -0.7066
 1478TIP3   OH225924   0.615   6.201   3.938  0.5504 -0.6716  0.1389
 1478TIP3    H125925   0.652   6.190   3.851  1.1003 -1.7377  0.4904
 1478TIP3    H225926   0.690   6.218   3.995  0.1533  0.5193  0.3566
 1479TIP3   OH225927   1.654   2.170  14.677 -0.2485 -0.0311  0.7031
 1479TIP3    H125928   1.562   2.164  14.702 -0.4392  0.6479  0.1940
 1479TIP3    H225929   1.652   2.178  14.581  0.1333  3.3134  0.8618
 1480TIP3   OH225930   3.291   1.181  15.614 -0.5751 -1.1384  0.0930
 1480TIP3    H125931   3.324   1.228  15.691 -2.1204 -2.2831  1.5520
 1480TIP3    H225932   3.252   1.248  15.559  1.6653 -0.1274 -0.3433
 1481TIP3   OH225933   6.517   6.614  11.346  0.5603  0.0388 -0.1261
 1481TIP3    H125934   6.584   6.591  11.281 -0.9970  1.2651 -2.3156
 1481TIP3    H225935   6.461   6.677  11.301 -2.3259 -1.2294  1.4189
 1482TIP3   OH225936   3.824   3.444  17.029  0.1913 -0.4510 -0.0650
 1482TIP3    H125937   3.919   3.451  17.039  0.3330 -1.2981 -0.6895
 1482TIP3    H225938   3.807   3.478  16.941  0.2432 -2.6145 -0.9652
 1483TIP3   OH225939   1.629   0.601  16.162  0.0825  0.0960 -0.1069
 1483TIP3    H125940   1.576   0.680  16.152  1.4729  0.9806 -0.6618
 1483TIP3    H225941   1.658   0.579  16.074 -1.4190 -1.8868 -0.1758
 1484TIP3   OH225942   6.662   1.082  16.537 -0.3332 -0.6396 -0.3135
 1484TIP3    H125943   6.717   1.073  16.614 -1.2614  1.4170  0.6661
 1484TIP3    H225944   6.711   1.039  16.467  1.8630 -0.0730  0.7932
 1485TIP3   OH225945   2.909   3.658  14.306  0.0304  0.2248 -0.1984
 1485TIP3    H125946   2.903   3.753  14.320  1.0499  0.3604 -0.5878
 1485TIP3    H225947   2.833   3.637  14.252 -0.0167  0.8893 -0.4077
 1486TIP3   OH225948   3.752   2.403   3.232 -0.1747  0.1856  0.2598
 1486TIP3    H125949   3.805   2.340   3.280 -0.8814 -0.5400  0.1063
 1486TIP3    H225950   3.672   2.356   3.209 -2.1239  2.0081  2.7707
 1487TIP3   OH225951   4.979   3.348   0.746  0.0299 -0.0406 -0.1373
 1487TIP3    H125952   4.956   3.387   0.662 -1.3378 -2.0028 -0.7372
 1487TIP3    H225953   4.895   3.324   0.786  0.7585 -1.8054  0.4344
 1488TIP3   OH225954   0.329   2.649  11.713 -0.0048 -0.4674  0.0086
 1488TIP3    H125955   0.413   2.609  11.692  0.0092 -1.3823  1.6845
 1488TIP3    H225956   0.265   2.579  11.699 -0.3336 -0.1891  0.0982
 1489TIP3   OH225957   0.879   3.623  15.846  0.4039  0.2510  0.1228
 1489TIP3    H125958   0.880   3.683  15.920 -1.4128  0.3271  0.1430
 1489TIP3    H225959   0.820   3.664  15.783  1.6595  0.0261 -1.2543
 1490TIP3   OH225960   1.833   2.394   5.748  0.4401 -0.4203 -0.8433
 1490TIP3    H125961   1.856   2.361   5.661 -0.9924 -0.9716 -1.0386
 1490TIP3    H225962   1.844   2.319   5.806  3.5991  0.4846 -0.0708
 1491TIP3   OH225963   2.480   5.541  11.818 -0.8443 -0.1823 -0.8712
 1491TIP3    H125964   2.485   5.620  11.872 -1.8375  0.5689 -1.8359
 1491TIP3    H225965   2.391   5.508  11.832 -1.3850  0.4687 -2.6291
 1492TIP3   OH225966   1.787   3.607   6.394  0.1318  0.6803  0.5949
 1492TIP3    H125967   1.738   3.533   6.359  1.5976  0.2048 -0.5424
 1492TIP3    H225968   1.723   3.678   6.400 -1.0149 -0.3211  0.5752
 1493TIP3   OH225969   2.514   0.361  17.237  0.0495 -0.2349  0.1129
 1493TIP3    H125970   2.492   0.329  17.324 -1.8363 -1.0181 -0.6103
 1493TIP3    H225971   2.514   0.283  17.182  1.3678  0.2317 -0.5867
 1494TIP3   OH225972   4.842   6.234  13.712 -0.0436 -0.2031  0.1622
 1494TIP3    H125973   4.899   6.296  13.757  2.1532 -0.9819 -1.3316
 1494TIP3    H225974   4.828   6.164  13.776  1.1286 -0.2184  0.4323
 1495TIP3   OH225975   3.636   6.587  15.422  0.0553 -0.7572 -0.3312
 1495TIP3    H125976   3.718   6.626  15.453 -0.0252  0.3692 -1.4792
 1495TIP3    H225977   3.655   6.554  15.335 -0.8229 -0.1021 -0.7852
 1496TIP3   OH225978   5.696   6.182   1.362 -0.1810 -0.0303  0.2619
 1496TIP3    H125979   5.609   6.221   1.349  0.2129  0.4633 -0.9916
 1496TIP3    H225980   5.711   6.189   1.457 -0.6578  1.7378  0.2405
 1497TIP3   OH225981   3.214   3.621  10.686 -0.5675 -0.4507 -0.0840
 1497TIP3    H125982   3.162   3.701  10.679 -1.6607 -0.9773  1.2383
 1497TIP3    H225983   3.168   3.558  10.631 -0.9593 -0.7253  0.5391
 1498TIP3   OH225984   2.478   4.857  11.880 -0.3212 -0.1087 -0.6634
 1498TIP3    H125985   2.572   4.838  11.886 -0.3961 -0.3476 -0.1999
 1498TIP3    H225986   2.468   4.905  11.797  0.0269 -1.2135 -1.3679
 1499TIP3   OH225987   4.303   5.858   4.347 -0.0482  0.1348  0.5788
 1499TIP3    H125988   4.380   5.885   4.297 -0.5304  1.6137  0.6090
 1499TIP3    H225989   4.339   5.819   4.427  0.7855 -3.1088 -1.1909
 1500TIP3   OH225990   1.343   3.521  13.574  0.4029 -0.2037 -0.7613
 1500TIP3    H125991   1.422   3.470  13.558  0.8691 -0.0153  0.8114
 1500TIP3    H225992   1.288   3.504  13.497  0.9876 -2.2004 -0.8040
 1501TIP3   OH225993   2.996   0.828   4.857  0.1532 -0.0154  0.0448
 1501TIP3    H125994   2.944   0.763   4.810  1.1758  0.9545 -2.6526
 1501TIP3    H225995   3.032   0.781   4.932 -1.2729 -1.7933 -0.3103
 1502TIP3   OH225996   2.898   1.979  14.623 -0.2711  0.5337  0.2511
 1502TIP3    H125997   2.895   2.045  14.692 -2.2293  0.8589 -0.0687
 1502TIP3    H225998   2.944   2.022  14.551 -1.7431  1.6981 -0.0429
 1503TIP3   OH225999   2.711   4.877  11.139  0.5054 -0.1436 -0.8254
 1503TIP3    H126000   2.639   4.847  11.083 -0.4031  2.0620 -0.9524
 1503TIP3    H226001   2.670   4.895  11.223  1.6260 -2.1738  0.2348
 1504TIP3   OH226002   6.156   1.047  11.940  0.2637 -0.0153  1.0032
 1504TIP3    H126003   6.149   1.123  11.998  2.7141  0.6739  0.4781
 1504TIP3    H226004   6.181   1.083  11.855  0.3485 -1.3212  0.4508
 1505TIP3   OH226005   3.914   5.789  11.824  0.3361  0.4118  0.5211
 1505TIP3    H126006   3.931   5.696  11.836  1.0322  0.3897 -0.5573
 1505TIP3    H226007   3.843   5.792  11.761  1.9325  0.6069 -1.3624
 1506TIP3   OH226008   6.426   3.772   0.559  0.2436 -0.4612 -0.3961
 1506TIP3    H126009   6.425   3.866   0.575  0.1405 -0.6607  0.8885
 1506TIP3    H226010   6.435   3.733   0.646 -2.5608 -1.7118 -0.5566
 1507TIP3   OH226011   0.640   0.776   4.979 -0.1523 -0.2473  0.1338
 1507TIP3    H126012   0.660   0.745   5.067 -2.5073 -0.8345  0.5383
 1507TIP3    H226013   0.725   0.796   4.940  0.9649 -0.4202  2.3620
 1508TIP3   OH226014   1.482   6.132   4.920 -0.2436  0.1928 -0.2645
 1508TIP3    H126015   1.435   6.174   4.848  2.7502  1.7353 -1.5089
 1508TIP3    H226016   1.484   6.198   4.989 -1.1477 -0.4432  0.3950
 1509TIP3   OH226017   4.712   5.891   0.929 -0.2837  0.3917 -0.1149
 1509TIP3    H126018   4.794   5.843   0.927 -0.2868  0.3982 -0.7512
 1509TIP3    H226019   4.653   5.836   0.980 -0.3674 -0.4318 -1.0635
 1510TIP3   OH226020   5.499   2.217  14.610  0.1472 -0.0386 -0.0273
 1510TIP3    H126021   5.423   2.268  14.637  1.5840  1.7274  0.8148
 1510TIP3    H226022   5.514   2.242  14.519 -0.1308 -0.2460 -0.1336
 1511TIP3   OH226023   1.382   4.828  13.495  0.2728  0.1086 -0.7235
 1511TIP3    H126024   1.337   4.744  13.488 -0.2493  0.3807 -0.7066
 1511TIP3    H226025   1.475   4.806  13.491  0.2169 -0.6562  1.1388
 1512TIP3   OH226026   3.054   6.205  13.500  0.5129  0.0068 -0.1660
 1512TIP3    H126027   3.021   6.295  13.502  0.8366  0.1578 -1.0306
 1512TIP3    H226028   3.129   6.205  13.559 -1.1121 -0.4000  2.0231
 1513TIP3   OH226029   4.703   4.217  13.957 -0.3689  0.0077 -0.0839
 1513TIP3    H126030   4.724   4.154  13.888 -0.2424 -0.4038  0.3271
 1513TIP3    H226031   4.780   4.273  13.962 -1.3154  1.5948 -1.9516
 1514TIP3   OH226032   6.475   1.456   3.433  0.1761  0.3688  0.4831
 1514TIP3    H126033   6.482   1.546   3.400 -2.4654  0.5516  0.1700
 1514TIP3    H226034   6.563   1.420   3.424  0.7089  2.0274 -2.0469
 1515TIP3   OH226035   4.301   6.322   5.924  0.1034 -0.3343 -0.1147
 1515TIP3    H126036   4.323   6.282   6.008  1.5472 -2.5742 -1.4705
 1515TIP3    H226037   4.369   6.387   5.909 -0.9617  1.1314  1.0268
 1516TIP3   OH226038   0.679   0.113   3.826  0.2287 -0.0454  0.4891
 1516TIP3    H126039   0.647   0.178   3.888 -1.4572  0.0233 -0.3787
 1516TIP3    H226040   0.635   0.135   3.744  2.0565 -0.4059 -0.6250
 1517TIP3   OH226041   3.924   2.774   1.647  0.0548 -0.5213 -0.6328
 1517TIP3    H126042   3.883   2.792   1.732  0.0910 -3.4546  0.1036
 1517TIP3    H226043   3.945   2.861   1.612 -2.2524  0.8919  1.1831
 1518TIP3   OH226044   3.300   2.195  11.702  0.5976 -0.5751 -0.0540
 1518TIP3    H126045   3.335   2.281  11.724  2.1533 -1.3323  0.5872
 1518TIP3    H226046   3.277   2.201  11.609  1.0753  0.3956 -0.1186
 1519TIP3   OH226047   3.695   0.190  12.711 -0.6139  0.1182  0.2790
 1519TIP3    H126048   3.750   0.116  12.735 -0.9942  0.1719  1.3882
 1519TIP3    H226049   3.756   0.261  12.693 -0.2950  0.2024  1.5827
 1520TIP3   OH226050   0.890   3.318  12.982  0.1897 -0.5108 -0.3176
 1520TIP3    H126051   0.981   3.327  12.955 -0.0014 -1.1391 -1.1896
 1520TIP3    H226052   0.852   3.405  12.967  0.2721 -0.6511 -1.3782
 1521TIP3   OH226053   5.113   0.813   3.129 -0.1004  0.4023  0.5603
 1521TIP3    H126054   5.083   0.809   3.220  0.5400 -1.3552  0.7490
 1521TIP3    H226055   5.080   0.732   3.090  0.7782  0.4785 -0.3815
 1522TIP3   OH226056   2.229   5.633  10.512 -0.1602  0.1343 -0.3469
 1522TIP3    H126057   2.211   5.614  10.604  0.7658 -0.1683 -0.2188
 1522TIP3    H226058   2.283   5.712  10.514 -1.9577  1.4254 -0.7575
 1523TIP3   OH226059   1.588   0.633   0.995  0.5922 -0.5703  0.5461
 1523TIP3    H126060   1.668   0.648   1.043  0.5050 -0.8098  0.7681
 1523TIP3    H226061   1.562   0.719   0.963  0.3749 -0.3306  1.3600
 1524TIP3   OH226062   1.380   2.170   4.178  0.0067  0.1597  0.2509
 1524TIP3    H126063   1.414   2.185   4.267  0.5395 -2.7307  0.6343
 1524TIP3    H226064   1.449   2.201   4.120  0.4487  0.4018  0.8964
 1525TIP3   OH226065   2.741   6.719   2.015 -0.1055 -0.3564  0.4149
 1525TIP3    H126066   2.761   6.721   1.921  1.0430 -1.5477  0.6027
 1525TIP3    H226067   2.765   6.806   2.046 -0.8308  0.1668 -0.4492
 1526TIP3   OH226068   3.464   3.682   1.713 -0.4178 -0.2557 -0.4600
 1526TIP3    H126069   3.403   3.730   1.769  0.9794  0.8410  0.1738
 1526TIP3    H226070   3.495   3.746   1.649  0.4771 -0.6570 -0.4462
 1527TIP3   OH226071   4.926   5.124  15.024  0.8238 -0.0557 -0.4796
 1527TIP3    H126072   4.917   5.057  15.091  0.4697 -0.5441 -1.0111
 1527TIP3    H226073   4.980   5.083  14.956  0.2487  0.0443 -1.0003
 1528TIP3   OH226074   1.540   5.974  12.773  0.0504 -0.5949  0.3575
 1528TIP3    H126075   1.535   6.051  12.831  0.4767  2.1549 -2.9305
 1528TIP3    H226076   1.451   5.938  12.774 -0.3779  0.4177  1.3767
 1529TIP3   OH226077   2.112   3.560  16.289  0.4326 -0.1245 -0.0689
 1529TIP3    H126078   2.071   3.511  16.360  1.3395 -1.8537 -0.6921
 1529TIP3    H226079   2.103   3.652  16.315  0.9351 -0.6990  2.3849
 1530TIP3   OH226080   1.754   4.216  14.617 -0.1128  0.0875  0.4706
 1530TIP3    H126081   1.797   4.289  14.661 -1.0950  0.1340  1.3666
 1530TIP3    H226082   1.824   4.152  14.603  0.5680  0.8115  0.4912
 1531TIP3   OH226083   3.491   0.922   5.482  1.0851 -0.4993  0.1662
 1531TIP3    H126084   3.540   0.987   5.432 -0.9360  1.1870  0.2548
 1531TIP3    H226085   3.463   0.968   5.561 -0.2413 -1.5235  0.3241
 1532TIP3   OH226086   3.554   0.995   1.721  0.5334  0.0165 -0.5211
 1532TIP3    H126087   3.471   0.963   1.686  0.5874 -0.6380 -0.0619
 1532TIP3    H226088   3.621   0.946   1.673  0.6858  0.8997 -1.2495
 1533TIP3   OH226089   5.500   2.957   4.063 -0.1967 -0.0518 -0.0867
 1533TIP3    H126090   5.535   2.920   3.982 -1.0000 -3.2791  0.8995
 1533TIP3    H226091   5.558   2.925   4.132 -1.3656 -0.1247  0.9051
 1534TIP3   OH226092   4.970   5.962  14.531 -0.1548  0.4118 -0.1882
 1534TIP3    H126093   4.989   6.012  14.610  1.0289  2.4127 -1.6211
 1534TIP3    H226094   5.055   5.931  14.501 -0.9394 -3.5403  1.1743
 1535TIP3   OH226095   5.742   4.057   3.860 -0.2428  0.2059  0.3352
 1535TIP3    H126096   5.828   4.032   3.894  0.2780  1.0584 -0.3071
 1535TIP3    H226097   5.754   4.061   3.765 -0.5069  2.0748  0.3515
 1536TIP3   OH226098   0.356   4.243  16.754  0.0571  0.3737 -0.4984
 1536TIP3    H126099   0.452   4.239  16.755  0.1095  1.4889 -0.6592
 1536TIP3    H226100   0.335   4.321  16.703 -0.9196  0.8654  0.6149
 1537TIP3   OH226101   0.318   6.798  15.221  0.1648 -0.2540  0.0078
 1537TIP3    H126102   0.367   6.771  15.299  0.0773 -0.3751  0.0221
 1537TIP3    H226103   0.364   6.757  15.148 -0.8256 -1.7017  0.1457
 1538TIP3   OH226104   5.465   0.584   1.900 -0.7393  0.4845 -0.1905
 1538TIP3    H126105   5.551   0.597   1.939 -0.8268 -0.0687  0.1917
 1538TIP3    H226106   5.403   0.602   1.970 -0.8793 -1.2726  0.1910
 1539TIP3   OH226107   2.788   4.456  13.353  0.2022 -0.4213  0.1410
 1539TIP3    H126108   2.791   4.411  13.269  0.5218 -0.0617 -0.0374
 1539TIP3    H226109   2.849   4.529  13.345  3.8325 -2.9048  2.1300
 1540TIP3   OH226110   3.754   4.246   0.825  0.2157 -0.1983  0.3184
 1540TIP3    H126111   3.802   4.234   0.743 -3.0484  0.2427 -1.8198
 1540TIP3    H226112   3.717   4.159   0.843  1.8473 -0.6071  2.1092
 1541TIP3   OH226113   1.272   3.217  17.134  0.3066  0.5043 -0.0887
 1541TIP3    H126114   1.352   3.199  17.183  0.7104  0.8706 -0.6119
 1541TIP3    H226115   1.245   3.304  17.163 -0.1148  0.2250  0.3713
 1542TIP3   OH226116   0.728   1.540  11.893  0.2951  0.5534 -0.3634
 1542TIP3    H126117   0.733   1.559  11.799  1.7150  0.7771 -0.2633
 1542TIP3    H226118   0.685   1.617  11.930 -2.7136 -0.6171 -1.0893
 1543TIP3   OH226119   3.085   5.248   3.285 -0.3872  0.3649 -0.9291
 1543TIP3    H126120   3.156   5.202   3.239 -0.3017 -0.3160 -0.1371
 1543TIP3    H226121   3.096   5.223   3.377 -2.2697 -0.5890 -0.9154
 1544TIP3   OH226122   6.441   2.777   0.257  0.2365  0.4118  0.0720
 1544TIP3    H126123   6.510   2.799   0.320  0.1484 -1.1350  0.7532
 1544TIP3    H226124   6.479   2.707   0.204 -0.0812  0.9774 -0.9465
 1545TIP3   OH226125   1.354   5.441  10.894 -0.0723 -0.2676 -0.2014
 1545TIP3    H126126   1.308   5.394  10.825 -1.9592  0.8121  0.2363
 1545TIP3    H226127   1.327   5.399  10.975 -1.3390  1.1249  0.1520
 1546TIP3   OH226128   3.130   4.616  15.852 -0.2492  0.4638  0.6019
 1546TIP3    H126129   3.108   4.606  15.759 -0.9119  0.0700  0.7990
 1546TIP3    H226130   3.119   4.710  15.869 -1.9112  0.2747  0.7228
 1547TIP3   OH226131   4.522   0.084  12.223  0.1789 -0.0568 -0.4000
 1547TIP3    H126132   4.548   0.066  12.313 -0.9809 -0.9178 -0.2177
 1547TIP3    H226133   4.451   0.149  12.230 -0.2196 -0.4544 -0.6525
 1548TIP3   OH226134   1.683   1.617  14.419 -0.0507  0.1980  0.5575
 1548TIP3    H126135   1.625   1.657  14.484 -1.8249  2.0448 -1.9994
 1548TIP3    H226136   1.626   1.589  14.348  1.8853 -0.8130 -0.7108
 1549TIP3   OH226137   1.710   2.313   2.437  0.1032  0.0258  0.1489
 1549TIP3    H126138   1.623   2.276   2.455  0.2127  0.3805  1.5004
 1549TIP3    H226139   1.698   2.407   2.445  0.7308  0.0459  0.9220
 1550TIP3   OH226140   0.388   6.783   4.589  0.0383  0.2213  0.1072
 1550TIP3    H126141   0.301   6.771   4.550  0.1219  0.3345 -0.1179
 1550TIP3    H226142   0.414   6.871   4.562  0.6610 -0.1980 -0.6991
 1551TIP3   OH226143   3.422   2.835   2.375 -0.2305 -0.1104  0.2744
 1551TIP3    H126144   3.406   2.778   2.451 -0.1590 -0.3157  0.1368
 1551TIP3    H226145   3.475   2.907   2.410 -0.1489 -0.2349  0.4098
 1552TIP3   OH226146   4.466   3.148   3.874 -0.1777 -0.3047 -0.6439
 1552TIP3    H126147   4.465   3.109   3.961 -0.6029  2.1802  0.5370
 1552TIP3    H226148   4.553   3.128   3.839 -0.0391 -1.4151  0.2948
 1553TIP3   OH226149   6.581   5.112   2.795 -0.0719  0.9598  0.4387
 1553TIP3    H126150   6.594   5.082   2.705 -1.2541  0.4773  0.4063
 1553TIP3    H226151   6.592   5.033   2.848 -1.0931  0.8841  0.5487
 1554TIP3   OH226152   3.383   5.369   3.763 -0.4853  0.1928  1.0121
 1554TIP3    H126153   3.336   5.310   3.823 -0.4027  0.2627  1.1475
 1554TIP3    H226154   3.391   5.451   3.812  1.2469 -0.3128  1.6697
 1555TIP3   OH226155   6.248   3.537   3.040  0.2553  0.4062 -0.2438
 1555TIP3    H126156   6.253   3.512   3.132  0.3396  0.0611 -0.3380
 1555TIP3    H226157   6.333   3.579   3.022 -1.3199  4.6060  0.9698
 1556TIP3   OH226158   5.407   2.684   0.334  0.3364 -0.2526  0.2439
 1556TIP3    H126159   5.454   2.600   0.342  0.0842 -0.2294  2.8960
 1556TIP3    H226160   5.315   2.660   0.341  0.1623  0.1406 -0.5640
 1557TIP3   OH226161   0.323   1.238   1.951  0.4334  0.1312  0.4820
 1557TIP3    H126162   0.269   1.165   1.922  0.2134 -0.0159  1.2192
 1557TIP3    H226163   0.332   1.294   1.874 -1.0178  0.2995  0.4058
 1558TIP3   OH226164   6.753   5.475   4.300  0.1910  0.8960 -0.1148
 1558TIP3    H126165   6.682   5.520   4.346 -0.8575 -2.3745  1.7770
 1558TIP3    H226166   6.829   5.485   4.357 -0.0367  0.3247  0.2962
 1559TIP3   OH226167   4.959   5.637   2.205  0.0136 -0.3706 -0.5383
 1559TIP3    H126168   5.011   5.668   2.279 -0.0946 -1.7093  0.1279
 1559TIP3    H226169   5.000   5.555   2.180 -1.4107 -1.1555 -0.3818
 1560TIP3   OH226170   1.659   5.707   1.443  0.3687 -0.1799 -0.0615
 1560TIP3    H126171   1.655   5.713   1.538  1.7336 -0.9411  0.0622
 1560TIP3    H226172   1.567   5.701   1.416 -0.0868  1.0443  1.1140
 1561TIP3   OH226173   6.466   2.103  12.119  0.0992 -0.1639  0.4781
 1561TIP3    H126174   6.448   2.114  12.025  3.1759 -0.9761 -0.3426
 1561TIP3    H226175   6.433   2.016  12.139 -2.6572  0.8780  0.8283
 1562TIP3   OH226176   6.677   5.836  14.884  0.4651 -0.5284 -0.2932
 1562TIP3    H126177   6.625   5.844  14.805  0.7361 -0.4427 -0.4634
 1562TIP3    H226178   6.650   5.753  14.923 -1.5181  0.5894  0.8751
 1563TIP3   OH226179   1.675   4.882   5.115 -0.5243  0.3470  0.4955
 1563TIP3    H126180   1.700   4.798   5.076 -0.0911  1.6286 -2.2161
 1563TIP3    H226181   1.637   4.859   5.200  2.1364 -2.3471  1.1123
 1564TIP3   OH226182   3.679   0.341   4.775 -0.5694  0.1518 -0.7840
 1564TIP3    H126183   3.617   0.355   4.847 -1.4204  1.2002 -1.6950
 1564TIP3    H226184   3.654   0.404   4.708  0.9578  0.0169 -1.5396
 1565TIP3   OH226185   3.534   0.729   5.193  0.0308  0.3271 -0.0295
 1565TIP3    H126186   3.599   0.693   5.132 -2.1661 -1.0212 -1.7603
 1565TIP3    H226187   3.450   0.703   5.155 -1.5984  3.3542  1.2133
 1566TIP3   OH226188   2.619   5.509  12.962 -0.1154 -0.0980  1.0183
 1566TIP3    H126189   2.546   5.449  12.943  0.1680 -0.1130 -0.0626
 1566TIP3    H226190   2.577   5.585  13.003 -0.8707  0.2912 -0.4184
 1567TIP3   OH226191   6.129   5.499  13.300  0.0130 -0.1973 -0.1049
 1567TIP3    H126192   6.220   5.494  13.271  1.0909  1.3690  2.6201
 1567TIP3    H226193   6.102   5.589  13.280 -1.3533 -0.8963 -1.7319
 1568TIP3   OH226194   2.979   2.801   4.621 -0.3944 -0.2576 -0.0807
 1568TIP3    H126195   3.027   2.761   4.549  0.3621 -2.4258  1.5031
 1568TIP3    H226196   2.904   2.742   4.635 -0.6162  0.2059  0.7789
 1569TIP3   OH226197   4.528   3.610  12.470 -0.7772 -0.0019  0.1231
 1569TIP3    H126198   4.611   3.657  12.469 -1.0786  0.5291 -0.0660
 1569TIP3    H226199   4.466   3.669  12.429 -1.8404  0.7373  2.6323
 1570TIP3   OH226200   1.382   1.657   5.317 -0.5153  0.3595  0.4858
 1570TIP3    H126201   1.340   1.700   5.391 -1.0157 -3.0923  2.3962
 1570TIP3    H226202   1.312   1.643   5.254 -1.0961 -0.6686  1.3477
 1571TIP3   OH226203   3.557   1.390  14.443  0.1737  0.2422 -0.6652
 1571TIP3    H126204   3.517   1.444  14.376  1.3649 -0.7132 -2.1996
 1571TIP3    H226205   3.606   1.324  14.395  1.1989 -0.3833  1.1465
 1572TIP3   OH226206   4.543   5.321   1.058  0.2464 -0.5564 -0.1685
 1572TIP3    H126207   4.512   5.334   0.968 -0.0256 -2.4389 -0.3954
 1572TIP3    H226208   4.635   5.348   1.055 -0.7696  3.6203  0.1359
 1573TIP3   OH226209   1.899   1.150  17.210  0.1158  0.0291 -0.1049
 1573TIP3    H126210   1.838   1.216  17.177  1.5188  0.8473 -1.1571
 1573TIP3    H226211   1.848   1.069  17.212 -0.8997  0.6122 -1.2977
 1574TIP3   OH226212   3.587   1.284   6.553  0.4851 -0.0997  0.1127
 1574TIP3    H126213   3.645   1.215   6.520 -0.5329 -0.4753 -1.0110
 1574TIP3    H226214   3.501   1.242   6.556 -0.3169  1.3275 -1.3993
 1575TIP3   OH226215   6.731   5.926  16.800 -0.2201 -0.9667  0.0368
 1575TIP3    H126216   6.695   5.962  16.719 -0.1592 -3.7646 -1.3489
 1575TIP3    H226217   6.791   5.857  16.771  0.1681 -1.7293  2.4651
 1576TIP3   OH226218   5.982   4.233   0.101 -0.0584  0.2505 -0.2980
 1576TIP3    H126219   5.908   4.230   0.041  0.2210  0.6899 -0.6723
 1576TIP3    H226220   5.972   4.155   0.156 -0.7057  0.2235 -0.4482
 1577TIP3   OH226221   6.233   4.503  12.347  0.6085 -0.3979  0.1449
 1577TIP3    H126222   6.252   4.417  12.385  0.5574 -1.6620 -2.4368
 1577TIP3    H226223   6.318   4.546  12.342  0.8199 -0.7769  0.3813
 1578TIP3   OH226224   0.271   2.891   2.375  0.2834  0.2942  0.3750
 1578TIP3    H126225   0.265   2.807   2.421  1.3480  0.1459  0.2595
 1578TIP3    H226226   0.362   2.897   2.348  0.2655  1.5738  0.5392
 1579TIP3   OH226227   1.246   0.867   3.908  0.4121  0.0526  0.2546
 1579TIP3    H126228   1.282   0.794   3.959 -1.3116 -0.3930  0.8947
 1579TIP3    H226229   1.153   0.846   3.899 -0.1795  2.2734  0.6457
 1580TIP3   OH226230   0.462   0.269  15.461 -0.4041 -0.2989 -0.1951
 1580TIP3    H126231   0.552   0.237  15.469  0.0917  0.1745 -2.8343
 1580TIP3    H226232   0.435   0.243  15.373 -1.5378  2.6176 -0.8479
 1581TIP3   OH226233   6.754   2.924   5.687  0.5297  0.1572 -0.4741
 1581TIP3    H126234   6.764   2.882   5.772  0.0788 -1.0130 -0.9819
 1581TIP3    H226235   6.821   2.992   5.685  2.6905 -1.8602 -0.4404
 1582TIP3   OH226236   2.137   3.722   2.351 -0.7064 -0.5315  0.3832
 1582TIP3    H126237   2.049   3.756   2.336 -0.2807 -0.1232 -1.3823
 1582TIP3    H226238   2.138   3.638   2.305  0.0648 -0.1734 -0.2633
 1583TIP3   OH226239   1.967   0.086  14.033  0.3980 -0.3893  0.2820
 1583TIP3    H126240   1.910   0.077  14.109  0.6847 -0.5087  0.4862
 1583TIP3    H226241   1.911   0.122  13.964  0.6497  2.0873  1.2498
 1584TIP3   OH226242   0.548   5.627  11.656 -0.3036  0.4540  0.1045
 1584TIP3    H126243   0.502   5.550  11.686 -0.9472  0.2042 -1.4095
 1584TIP3    H226244   0.641   5.603  11.659 -0.5157 -0.5435 -0.7171
 1585TIP3   OH226245   4.783   3.638   4.690 -0.5279  0.7696  0.7179
 1585TIP3    H126246   4.759   3.587   4.612  0.7560  0.5707  0.4236
 1585TIP3    H226247   4.701   3.648   4.738 -1.3272  0.7862 -0.5932
 1586TIP3   OH226248   1.778   4.498   1.641  0.2499 -0.6770 -0.4161
 1586TIP3    H126249   1.790   4.430   1.574 -0.7913 -0.8850 -0.4089
 1586TIP3    H226250   1.783   4.581   1.592  0.9063 -0.7646 -0.5180
 1587TIP3   OH226251   6.297   2.446   1.981 -0.1969 -0.3716 -0.2119
 1587TIP3    H126252   6.231   2.438   2.049  0.5293  2.3025  0.9349
 1587TIP3    H226253   6.375   2.405   2.019  0.4453  1.8437  1.0261
 1588TIP3   OH226254   2.288   1.923   4.668  0.3960  0.0852  0.1357
 1588TIP3    H126255   2.195   1.917   4.645  0.3076  0.1172  0.4790
 1588TIP3    H226256   2.293   1.887   4.757  0.8791 -0.9115 -0.2797
 1589TIP3   OH226257   5.252   6.520   3.784 -0.3182 -0.2199 -0.1932
 1589TIP3    H126258   5.184   6.585   3.766 -1.9481 -1.3638  1.3502
 1589TIP3    H226259   5.304   6.559   3.854 -0.7556 -0.2086  0.1314
 1590TIP3   OH226260   2.805   3.024  14.548 -0.3613 -0.5362  0.4766
 1590TIP3    H126261   2.829   2.996  14.637  3.2295 -1.8638 -0.7148
 1590TIP3    H226262   2.818   2.945  14.495  0.6264  0.9550 -1.6337
 1591TIP3   OH226263   2.441   5.182  12.160  0.2960 -0.1254  0.3893
 1591TIP3    H126264   2.426   5.216  12.248 -0.1987 -0.0378  0.2771
 1591TIP3    H226265   2.503   5.243  12.121  1.6275 -0.9449  1.1423
 1592TIP3   OH226266   5.282   0.881  15.200 -0.2414 -0.0988  0.1838
 1592TIP3    H126267   5.364   0.836  15.216 -0.2663 -0.3706 -0.4113
 1592TIP3    H226268   5.232   0.872  15.281  0.6682  0.8582  0.8730
 1593TIP3   OH226269   3.943   0.382   3.796  0.4614 -0.1030  0.7918
 1593TIP3    H126270   3.911   0.397   3.707  2.6965  1.1068  0.1111
 1593TIP3    H226271   3.871   0.336   3.840 -1.4953  1.0060 -1.0448
 1594TIP3   OH226272   3.938   4.491   4.765 -0.0115  0.1580 -0.1783
 1594TIP3    H126273   3.851   4.480   4.729  0.8100  0.5870 -2.4254
 1594TIP3    H226274   3.947   4.585   4.780 -0.0561  0.0707  0.4412
 1595TIP3   OH226275   1.836   3.346   3.336 -0.3677  0.5544 -0.2122
 1595TIP3    H126276   1.898   3.418   3.331  0.3906 -0.1786 -2.0499
 1595TIP3    H226277   1.867   3.293   3.409 -0.9288  2.0221  1.1630
 1596TIP3   OH226278   2.893   3.543  16.026 -0.7577  0.1633  0.0810
 1596TIP3    H126279   2.894   3.639  16.026 -2.4338  0.2073 -0.6325
 1596TIP3    H226280   2.883   3.519  16.118 -2.9395  0.7605  0.0320
 1597TIP3   OH226281   4.319   2.867  12.415  0.8626 -0.1690 -0.0363
 1597TIP3    H126282   4.360   2.927  12.478 -0.1730  1.3374 -0.7429
 1597TIP3    H226283   4.383   2.860  12.344  0.5259  1.0492 -0.4812
 1598TIP3   OH226284   4.386   6.088  16.262  0.1329  0.2256 -0.1019
 1598TIP3    H126285   4.291   6.080  16.253 -0.0387  0.9143  0.9747
 1598TIP3    H226286   4.417   6.110  16.173 -0.5069 -1.5390 -0.8132
 1599TIP3   OH226287   6.805   2.250   3.291  0.0546 -0.1371  0.1255
 1599TIP3    H126288   6.778   2.159   3.284  0.9753 -0.4731  0.7872
 1599TIP3    H226289   6.848   2.256   3.377  0.9644  0.6538 -0.3685
 1600TIP3   OH226290   0.419   5.052  13.705 -0.3471  0.2485  0.1162
 1600TIP3    H126291   0.497   5.008  13.670  0.2847 -0.0006  1.7396
 1600TIP3    H226292   0.353   4.983  13.710 -0.7060  0.4531 -1.2358
 1601TIP3   OH226293   4.214   3.848   2.431 -0.0009 -0.2516  0.1295
 1601TIP3    H126294   4.281   3.837   2.363 -0.2796  0.5635 -0.2825
 1601TIP3    H226295   4.133   3.819   2.389  0.0957 -1.3920  0.6798
 1602TIP3   OH226296   1.242   6.070   4.532 -0.0263 -0.0938 -0.2094
 1602TIP3    H126297   1.304   6.011   4.491 -0.5197 -1.0051  0.3336
 1602TIP3    H226298   1.252   6.153   4.484 -0.5390 -1.0937 -2.1273
 1603TIP3   OH226299   1.952   0.069  16.339 -0.4803  0.2190  0.2595
 1603TIP3    H126300   2.034   0.020  16.350 -1.1179 -0.9978 -0.1695
 1603TIP3    H226301   1.918   0.039  16.255 -1.0461  1.1973  0.1323
 1604TIP3   OH226302   1.961   6.238  15.309 -0.1631  0.3519  0.2022
 1604TIP3    H126303   1.947   6.160  15.256  1.5282  0.0353  0.1748
 1604TIP3    H226304   2.048   6.270  15.283 -0.0632  1.2123  1.5011
 1605TIP3   OH226305   4.667   3.516   1.662 -0.0948  0.3141 -0.7209
 1605TIP3    H126306   4.706   3.429   1.654  0.5430  0.5489 -0.2572
 1605TIP3    H226307   4.602   3.506   1.731 -1.0836 -0.1476 -1.6872
 1606TIP3   OH226308   2.197   0.751  14.710 -0.4246  0.2402 -0.2629
 1606TIP3    H126309   2.110   0.784  14.687 -1.4081 -1.7003  0.4339
 1606TIP3    H226310   2.223   0.804  14.786 -1.5970 -0.0112  0.3388
 1607TIP3   OH226311   6.461   5.000   0.411  0.3209 -0.1323  0.0252
 1607TIP3    H126312   6.434   5.087   0.441 -1.9692 -0.6776 -0.2746
 1607TIP3    H226313   6.442   4.942   0.484 -1.8517 -0.9154 -1.0908
 1608TIP3   OH226314   4.672   5.637   2.206  0.0676 -0.0602 -0.1466
 1608TIP3    H126315   4.635   5.636   2.294 -1.4673  0.2131 -0.7549
 1608TIP3    H226316   4.762   5.667   2.218 -0.5679  1.4407  1.1729
 1609TIP3   OH226317   5.976   3.718  16.875  0.4873 -0.0298 -0.2972
 1609TIP3    H126318   6.020   3.744  16.956  0.0070  0.4828 -0.2016
 1609TIP3    H226319   6.036   3.654  16.836  1.5656  1.0242 -0.4238
 1610TIP3   OH226320   3.920   5.355   1.872 -0.3199 -0.3582  0.3490
 1610TIP3    H126321   3.995   5.309   1.909 -0.3816 -1.0345 -0.3323
 1610TIP3    H226322   3.958   5.426   1.821 -0.2403  0.6535  1.7667
 1611TIP3   OH226323   5.295   1.136  14.823  0.4427 -0.0792  0.1876
 1611TIP3    H126324   5.318   1.104  14.736  0.9717 -0.7823  0.5725
 1611TIP3    H226325   5.317   1.229  14.822  1.1836 -0.2548 -0.1813
 1612TIP3   OH226326   2.282   1.705  16.548 -0.2996 -0.0266  0.2102
 1612TIP3    H126327   2.186   1.706  16.553 -0.3164 -0.1294 -0.0877
 1612TIP3    H226328   2.304   1.789  16.507 -0.3584 -0.7554 -1.3538
 1613TIP3   OH226329   1.983   5.216  17.253 -0.6744 -0.2874  0.0515
 1613TIP3    H126330   2.006   5.126  17.274 -1.9962 -0.8472 -0.7588
 1613TIP3    H226331   1.938   5.210  17.168 -1.2036  1.0634  0.2119
 1614TIP3   OH226332   2.942   3.964  12.610  0.0648  0.2615 -0.9215
 1614TIP3    H126333   3.031   3.934  12.626 -0.3028  0.0082  0.7960
 1614TIP3    H226334   2.894   3.885  12.585  0.4108  0.4871 -2.3934
 1615TIP3   OH226335   5.144   6.743   5.265 -0.6370  0.4935  0.3894
 1615TIP3    H126336   5.161   6.835   5.246 -0.7324  0.1964 -1.2960
 1615TIP3    H226337   5.055   6.728   5.233  0.0909 -0.6299 -1.2425
 1616TIP3   OH226338   5.959   5.330   3.673  0.1176 -0.6269 -0.2363
 1616TIP3    H126339   5.929   5.396   3.735  0.7227  0.9854 -1.5903
 1616TIP3    H226340   6.022   5.278   3.723  1.6547  1.4902  0.2030
 1617TIP3   OH226341   2.143   0.726  17.140 -0.7074 -0.0452  0.2321
 1617TIP3    H126342   2.173   0.635  17.134 -1.2907 -0.2546  0.4589
 1617TIP3    H226343   2.223   0.776  17.160 -0.0513 -0.2699 -1.6140
 1618TIP3   OH226344   5.598   0.180  15.488 -0.1382 -0.0877 -0.9993
 1618TIP3    H126345   5.513   0.171  15.531 -0.4067  1.8383 -1.0343
 1618TIP3    H226346   5.598   0.268  15.452  2.6340  0.7760  0.7231
 1619TIP3   OH226347   1.081   0.781   6.173  0.3576 -0.3966 -0.2884
 1619TIP3    H126348   0.990   0.751   6.172  0.3081 -0.4060  1.5359
 1619TIP3    H226349   1.076   0.872   6.201  0.9362 -0.5344  0.2855
 1620TIP3   OH226350   6.166   0.937  11.123  0.7174 -0.6428  0.1826
 1620TIP3    H126351   6.116   1.011  11.089  1.0180 -0.1418  0.8037
 1620TIP3    H226352   6.158   0.870  11.056 -1.2268 -0.7695  0.4905
 1621TIP3   OH226353   0.279   6.206   4.181  0.4778  0.2181 -0.0353
 1621TIP3    H126354   0.226   6.188   4.258 -0.4162  0.1012 -0.6558
 1621TIP3    H226355   0.276   6.301   4.172  0.6958  0.2431  0.1490
 1622TIP3   OH226356   4.467   6.255   5.083  0.3669  0.2891 -0.6996
 1622TIP3    H126357   4.396   6.209   5.127 -0.9700 -0.0260 -3.0088
 1622TIP3    H226358   4.468   6.219   4.994  1.5211  2.3294 -1.6009
 1623TIP3   OH226359   0.544   5.965  11.461 -0.2571 -0.1429  0.6807
 1623TIP3    H126360   0.559   6.059  11.454 -1.0470 -0.0523  0.1043
 1623TIP3    H226361   0.631   5.928  11.478  0.1481  0.6273  0.3288
 1624TIP3   OH226362   1.956   2.052  15.327  0.3602 -0.1888 -0.1586
 1624TIP3    H126363   1.937   1.979  15.386  0.4963  2.0971  3.0184
 1624TIP3    H226364   2.047   2.074  15.346  0.1091  1.2146 -0.4953
 1625TIP3   OH226365   2.881   4.417   2.984 -0.5271 -0.5779 -0.7455
 1625TIP3    H126366   2.885   4.489   2.921  2.9754 -0.8720 -1.0164
 1625TIP3    H226367   2.888   4.459   3.070 -0.6811 -0.4611 -0.7908
 1626TIP3   OH226368   2.937   4.719   4.346  0.0668  0.2090 -0.0060
 1626TIP3    H126369   3.019   4.713   4.396  0.2290 -0.9769 -0.3849
 1626TIP3    H226370   2.868   4.704   4.411  0.2988 -1.9000 -0.1701
 1627TIP3   OH226371   5.180   1.370   5.617  0.0717 -0.0729  0.4528
 1627TIP3    H126372   5.218   1.456   5.595 -0.8583 -0.1196 -1.5885
 1627TIP3    H226373   5.106   1.361   5.556 -1.6239 -1.1037  2.5566
 1628TIP3   OH226374   2.341   3.758  16.919  0.2692 -0.3070 -0.1403
 1628TIP3    H126375   2.292   3.681  16.892 -0.5951 -0.0770  0.7135
 1628TIP3    H226376   2.274   3.824  16.936  0.9475  0.3597 -0.0176
 1629TIP3   OH226377   5.476   3.012   0.938 -0.9135  0.0554 -0.0737
 1629TIP3    H126378   5.477   3.102   0.971 -2.0812 -0.3950  1.2898
 1629TIP3    H226379   5.567   2.994   0.914 -0.6568  1.5831 -0.3704
 1630TIP3   OH226380   0.212   1.301  16.763  0.3093  0.1036 -0.0117
 1630TIP3    H126381   0.235   1.250  16.686 -1.1505 -0.7635  0.0899
 1630TIP3    H226382   0.292   1.347  16.787  0.5552  1.1336 -2.5923
 1631TIP3   OH226383   4.495   6.365  13.139 -0.7771  0.2199 -0.2012
 1631TIP3    H126384   4.509   6.460  13.149 -1.2348  0.2272  0.4243
 1631TIP3    H226385   4.463   6.337  13.224 -2.5796 -0.1418 -0.9593
 1632TIP3   OH226386   3.669   3.688   4.042 -0.1936 -0.2223  0.2258
 1632TIP3    H126387   3.715   3.633   4.105  1.3599  0.5434 -0.1948
 1632TIP3    H226388   3.670   3.638   3.961  2.6746  0.9984 -0.6010
 1633TIP3   OH226389   4.064   4.217  13.680 -0.0419 -0.0300  0.0973
 1633TIP3    H126390   4.154   4.224  13.710  0.8137 -0.1316 -2.2919
 1633TIP3    H226391   4.022   4.297  13.712  0.9169  0.1079  1.0824
 1634TIP3   OH226392   0.112   1.415   0.560  0.0664 -0.5678  0.4879
 1634TIP3    H126393   0.038   1.472   0.541 -0.3262 -1.1452  0.2681
 1634TIP3    H226394   0.179   1.440   0.496  0.3935  0.5318  1.2194
 1635TIP3   OH226395   0.582   3.656  14.276 -0.4065 -1.0325 -0.1686
 1635TIP3    H126396   0.605   3.746  14.252  0.3551 -1.2741 -0.3580
 1635TIP3    H226397   0.561   3.614  14.192 -0.9747 -0.9768 -0.0572
 1636TIP3   OH226398   5.565   0.014   0.208 -0.5835 -0.0528  0.3899
 1636TIP3    H126399   5.545  -0.078   0.228 -0.3495  0.2604  2.1906
 1636TIP3    H226400   5.567   0.057   0.293 -1.2603  1.7572 -0.4655
 1637TIP3   OH226401   6.702   4.639  14.490 -0.6961  0.3045 -0.0343
 1637TIP3    H126402   6.640   4.580  14.447  0.9885 -0.0704 -2.1087
 1637TIP3    H226403   6.672   4.727  14.468 -0.5959  0.1270 -0.9150
 1638TIP3   OH226404   4.574   4.585   4.289  0.4304  0.1338  0.0244
 1638TIP3    H126405   4.598   4.672   4.258 -1.7457  0.8588  0.2631
 1638TIP3    H226406   4.508   4.600   4.357 -0.3661 -1.7119 -0.2750
 1639TIP3   OH226407   0.950   4.001   3.970 -0.3369 -0.3989 -0.1521
 1639TIP3    H126408   0.928   3.908   3.963 -2.3288  0.0326 -0.3728
 1639TIP3    H226409   0.878   4.045   3.925 -0.1081  1.3183  1.0911
 1640TIP3   OH226410   2.852   0.195   3.714  0.1835  0.5649 -0.3545
 1640TIP3    H126411   2.875   0.127   3.777  0.2121  0.3637 -0.5793
 1640TIP3    H226412   2.890   0.166   3.632 -0.1250  0.6642 -0.5369
 1641TIP3   OH226413   2.369   0.002   5.441 -0.1656 -0.1005  0.2590
 1641TIP3    H126414   2.438  -0.009   5.507 -0.0001 -0.6539  0.0002
 1641TIP3    H226415   2.290   0.021   5.492  0.0242 -0.2204  0.5991
 1642TIP3   OH226416   1.779   2.026   3.043 -0.0540  0.1007  0.4345
 1642TIP3    H126417   1.863   2.070   3.058 -0.0389 -0.2560  1.4666
 1642TIP3    H226418   1.731   2.037   3.125 -1.1784  0.6287 -0.2796
 1643TIP3   OH226419   2.832   2.805   2.325  0.1188  0.2465  0.3331
 1643TIP3    H126420   2.754   2.811   2.270 -0.9073 -1.1832  1.5662
 1643TIP3    H226421   2.904   2.793   2.263 -0.8326  0.0250 -0.7507
 1644TIP3   OH226422   4.064   1.643   2.231 -0.2803 -0.3257  0.0732
 1644TIP3    H126423   4.034   1.568   2.180 -0.6401 -0.8777  1.0700
 1644TIP3    H226424   4.155   1.623   2.253  0.2689  0.4746 -1.3464
 1645TIP3   OH226425   3.432   5.436   3.216  0.3123 -0.4001  0.1386
 1645TIP3    H126426   3.516   5.480   3.203 -0.0049  0.9316  2.2275
 1645TIP3    H226427   3.437   5.399   3.304 -1.5839  0.4144  0.6355
 1646TIP3   OH226428   4.967   4.502  16.980 -0.1356  0.4399  0.6208
 1646TIP3    H126429   5.041   4.472  17.033 -0.5211 -1.4459  0.1443
 1646TIP3    H226430   4.905   4.538  17.044  0.3030  0.1092  1.2419
 1647TIP3   OH226431   1.425   3.102   3.521 -0.1816  0.0213 -0.0030
 1647TIP3    H126432   1.364   3.161   3.476  0.0610  1.2998  1.2655
 1647TIP3    H226433   1.381   3.079   3.602  1.4357  1.9890  1.5404
 1648TIP3   OH226434   6.802   4.768   2.424  0.3317  0.7976  0.1628
 1648TIP3    H126435   6.865   4.796   2.490  0.7195 -1.9453  1.0968
 1648TIP3    H226436   6.835   4.682   2.396 -1.1921  0.7941 -1.7989
 1649TIP3   OH226437   1.591   5.010   5.927  0.3564  0.0499  0.0740
 1649TIP3    H126438   1.680   4.978   5.941 -0.0367 -0.3178  1.9330
 1649TIP3    H226439   1.536   4.932   5.931 -0.2234  0.4813  0.7392
 1650TIP3   OH226440   6.326   5.346   1.067  0.1165  0.1633  0.4189
 1650TIP3    H126441   6.286   5.267   1.105 -1.8672 -0.0347 -1.8619
 1650TIP3    H226442   6.407   5.315   1.028 -0.4146 -0.6978 -0.0374
 1651TIP3   OH226443   1.449   4.488   1.170 -0.6474 -0.2619  0.1323
 1651TIP3    H126444   1.429   4.471   1.078 -1.0775 -0.4163  0.2551
 1651TIP3    H226445   1.364   4.499   1.212 -0.5421 -1.8801  0.8473
 1652TIP3   OH226446   1.910   2.768  16.380 -0.4678  0.0906 -0.4271
 1652TIP3    H126447   1.882   2.719  16.303 -1.0930  0.9556 -0.7595
 1652TIP3    H226448   2.004   2.753  16.385 -0.0486  1.5526 -2.5011
 1653TIP3   OH226449   4.566   6.559  16.840 -1.1372  0.0107 -0.7876
 1653TIP3    H126450   4.549   6.574  16.746  0.0654 -0.3737 -1.0760
 1653TIP3    H226451   4.605   6.472  16.843 -1.0141  0.0950  0.0681
 1654TIP3   OH226452   3.622   2.252   1.008  0.1478  0.1319 -0.1799
 1654TIP3    H126453   3.563   2.183   1.039 -2.0443  2.3903  1.0486
 1654TIP3    H226454   3.565   2.325   0.987  2.3830  1.7183 -1.1491
 1655TIP3   OH226455   4.565   3.379  13.056 -0.0935  0.1729 -1.0040
 1655TIP3    H126456   4.478   3.386  13.095  0.1076 -0.6589 -0.3608
 1655TIP3    H226457   4.561   3.433  12.977 -1.3630 -0.3252 -1.2954
 1656TIP3   OH226458   5.105   2.651  11.368 -0.2817  0.2891  0.1491
 1656TIP3    H126459   5.026   2.622  11.414 -0.1840 -0.7635 -0.3151
 1656TIP3    H226460   5.177   2.605  11.412  0.0391  0.9935  0.3649
 1657TIP3   OH226461   4.015   6.368  17.222  0.1889  0.9367  0.1671
 1657TIP3    H126462   4.041   6.372  17.130 -0.6042 -1.8236 -0.2839
 1657TIP3    H226463   3.930   6.412  17.226  0.0402  0.7164 -0.5107
 1658TIP3   OH226464   2.013   5.986  15.534 -0.3236 -0.3413  0.1607
 1658TIP3    H126465   2.057   6.065  15.566 -1.6933  0.0851  1.0718
 1658TIP3    H226466   1.931   6.018  15.496  1.0722 -0.8347 -3.6989
 1659TIP3   OH226467   1.927   0.461  12.482  0.0480  0.2099  0.3372
 1659TIP3    H126468   2.000   0.508  12.443  0.6196 -0.2355  0.8447
 1659TIP3    H226469   1.932   0.373  12.445  0.6190 -0.2266  1.4043
 1660TIP3   OH226470   5.273   4.362  12.762 -0.3494  0.4918  0.0295
 1660TIP3    H126471   5.293   4.273  12.789  0.8070  0.3449 -1.2223
 1660TIP3    H226472   5.182   4.358  12.733  0.0465 -0.5838 -1.1490
 1661TIP3   OH226473   5.650   5.140   0.870  0.1785  0.5927 -0.1284
 1661TIP3    H126474   5.582   5.182   0.818  0.5576  1.0655 -0.2465
 1661TIP3    H226475   5.610   5.126   0.956 -1.2193 -2.2146 -1.1346
 1662TIP3   OH226476   2.966   6.428   5.812  0.5589 -0.5251 -0.3055
 1662TIP3    H126477   2.877   6.396   5.799  0.4459 -0.1161 -0.5705
 1662TIP3    H226478   3.016   6.352   5.841 -0.4340 -0.2299  2.3780
 1663TIP3   OH226479   4.044   2.756   0.532  0.7899 -0.2587  0.5941
 1663TIP3    H126480   4.077   2.840   0.564  0.9258 -0.7135  1.6910
 1663TIP3    H226481   4.115   2.721   0.478  0.7364  0.3200  0.1422
 1664TIP3   OH226482   4.494   6.434   0.447  0.7029 -0.2373 -0.3550
 1664TIP3    H126483   4.575   6.421   0.497  0.4056 -0.1457  0.1646
 1664TIP3    H226484   4.506   6.383   0.368  0.7590 -1.2800  0.3052
 1665TIP3   OH226485   5.663   3.350   3.500 -0.1654 -0.2655  0.0308
 1665TIP3    H126486   5.653   3.403   3.579 -0.9338 -0.0886 -0.1701
 1665TIP3    H226487   5.716   3.275   3.527 -0.3796 -0.1821  0.7058
 1666TIP3   OH226488   4.694   6.636  16.292  0.3919 -0.0732  0.0062
 1666TIP3    H126489   4.688   6.597  16.205 -3.2394 -1.7556  0.8484
 1666TIP3    H226490   4.775   6.600  16.329  2.1127  0.8063 -2.5851
 1667TIP3   OH226491   2.873   0.916   1.023  0.5177 -0.2932  0.0482
 1667TIP3    H126492   2.807   0.876   1.080  1.8363 -0.8972  1.2070
 1667TIP3    H226493   2.822   0.966   0.959 -1.1183 -2.1020 -0.1461
 1668TIP3   OH226494   1.168   1.936  12.401  0.6052 -0.2965  0.1002
 1668TIP3    H126495   1.245   1.954  12.348 -0.0212 -2.4954 -1.7071
 1668TIP3    H226496   1.202   1.900  12.482  1.5174 -2.5664 -1.2167
 1669TIP3   OH226497   4.803   3.171  12.899  0.1730 -0.3511 -0.0816
 1669TIP3    H126498   4.850   3.237  12.950 -0.8093 -0.5070  1.0615
 1669TIP3    H226499   4.833   3.087  12.934  1.2309 -0.5409 -1.3616
 1670TIP3   OH226500   4.651   3.292   2.650  0.3192 -0.2042  0.1805
 1670TIP3    H126501   4.742   3.321   2.649 -0.4009  2.3685 -1.2971
 1670TIP3    H226502   4.628   3.281   2.558 -0.7964 -1.1614  0.5441
 1671TIP3   OH226503   5.621   3.514  14.829 -0.7402  0.5101 -0.6014
 1671TIP3    H126504   5.570   3.580  14.876  0.3821  1.8664 -1.2077
 1671TIP3    H226505   5.568   3.493  14.752 -2.0702 -0.8998  0.6363
 1672TIP3   OH226506   6.159   6.623  11.288  0.0547 -0.2676 -0.2322
 1672TIP3    H126507   6.197   6.678  11.356  1.3668 -0.9647 -0.3794
 1672TIP3    H226508   6.129   6.544  11.334  1.5184 -1.0184 -0.5198
 1673TIP3   OH226509   5.336   2.969   4.530 -0.3315  0.2785 -0.4475
 1673TIP3    H126510   5.294   2.951   4.446  2.0307  0.0261 -1.6775
 1673TIP3    H226511   5.418   3.012   4.507 -0.1431  1.2886  1.8312
 1674TIP3   OH226512   3.473   0.430  14.203 -0.4816 -0.0930 -0.1298
 1674TIP3    H126513   3.462   0.474  14.119  1.0199 -1.7058 -1.2442
 1674TIP3    H226514   3.493   0.339  14.180 -2.3316 -1.1614  2.0469
 1675TIP3   OH226515   4.666   2.248  14.427 -0.1846  0.1260  0.2643
 1675TIP3    H126516   4.638   2.204  14.507  0.4895  0.1053  0.4947
 1675TIP3    H226517   4.639   2.339  14.439 -1.3653 -0.1652 -0.1110
 1676TIP3   OH226518   2.711   4.567   3.397  0.1338 -0.4328  0.2771
 1676TIP3    H126519   2.718   4.501   3.327  1.3195 -0.1417  0.0910
 1676TIP3    H226520   2.781   4.544   3.458 -0.0759  0.0841  0.7165
 1677TIP3   OH226521   0.681   0.883  13.346  0.4100  0.4781  0.0504
 1677TIP3    H126522   0.601   0.872  13.397 -0.1259  1.8206 -0.4697
 1677TIP3    H226523   0.658   0.947  13.278  0.7371 -2.0589 -2.6403
 1678TIP3   OH226524   6.405   3.054  14.652 -0.2513 -0.3321  0.1075
 1678TIP3    H126525   6.440   3.142  14.637 -0.2109 -0.4831 -0.7202
 1678TIP3    H226526   6.457   3.020  14.724  1.7835 -0.7928 -1.4897
 1679TIP3   OH226527   4.931   5.212  14.091 -0.2154 -0.7646 -0.3254
 1679TIP3    H126528   4.897   5.174  14.172 -1.8940  0.9497 -0.1665
 1679TIP3    H226529   5.026   5.199  14.096 -0.1303  0.3699  2.5114
 1680TIP3   OH226530   4.375   3.234   4.490 -0.0576 -0.3536  0.1135
 1680TIP3    H126531   4.351   3.144   4.471 -0.5424  0.0444 -1.2930
 1680TIP3    H226532   4.415   3.231   4.577 -0.6110 -1.8174  0.3387
 1681TIP3   OH226533   4.046   2.572  14.006  0.0693  0.1732  0.2365
 1681TIP3    H126534   4.006   2.654  13.978 -1.8004 -0.8360 -0.2262
 1681TIP3    H226535   4.049   2.579  14.101 -1.4549  0.2025  0.3033
 1682TIP3   OH226536   0.800   0.850   0.168 -0.0578  0.9563 -0.0285
 1682TIP3    H126537   0.769   0.919   0.109  0.3738  0.6115 -0.6629
 1682TIP3    H226538   0.890   0.833   0.141 -0.9185 -1.6409 -1.6004
 1683TIP3   OH226539   5.579   6.235   0.486  0.2259  0.1456  0.1284
 1683TIP3    H126540   5.665   6.271   0.467  0.2812 -1.2429 -2.6858
 1683TIP3    H226541   5.588   6.141   0.471 -1.4563 -0.2280  1.1337
 1684TIP3   OH226542   6.012   3.084  13.111  0.2733 -0.3446  0.4861
 1684TIP3    H126543   5.923   3.105  13.138  0.1494 -1.4808  1.0190
 1684TIP3    H226544   6.067   3.149  13.156 -0.3757  1.4977 -1.2276
 1685TIP3   OH226545   4.084   6.037   4.511  0.2110  0.9597 -0.4567
 1685TIP3    H126546   4.004   5.987   4.495 -0.3334  1.0310  1.7442
 1685TIP3    H226547   4.153   5.984   4.472 -0.8977  1.3235 -3.2310
 1686TIP3   OH226548   0.344   0.630  13.009 -0.1875  0.5052 -0.0176
 1686TIP3    H126549   0.354   0.550  12.956  3.5926 -0.9521  2.4984
 1686TIP3    H226550   0.389   0.698  12.959  0.0414  0.0773 -0.4029
 1687TIP3   OH226551   1.377   5.083   0.217 -0.1723 -0.7230 -0.4281
 1687TIP3    H126552   1.357   5.153   0.279 -0.0964 -2.1644  1.2940
 1687TIP3    H226553   1.469   5.096   0.195 -0.6143  0.7626 -1.5674
 1688TIP3   OH226554   3.241   5.141   3.857  0.1183 -0.2913  0.4028
 1688TIP3    H126555   3.168   5.203   3.862 -0.4108 -0.6934 -1.3648
 1688TIP3    H226556   3.204   5.058   3.889  0.3387 -0.0885  1.1975
 1689TIP3   OH226557   5.323   2.976   2.778  0.3533  0.4856  0.1814
 1689TIP3    H126558   5.416   2.983   2.754 -0.2719  1.5090 -2.3177
 1689TIP3    H226559   5.318   3.017   2.864  1.9771  2.2258 -0.4502
 1690TIP3   OH226560   0.044   5.145   5.079 -0.7118 -0.0763  0.5574
 1690TIP3    H126561   0.116   5.085   5.062 -0.3245  0.7181 -0.8082
 1690TIP3    H226562  -0.007   5.145   4.998  0.1389  2.5035 -0.0666
 1691TIP3   OH226563   6.338   0.390  10.676  0.1164 -0.0965 -0.4320
 1691TIP3    H126564   6.245   0.379  10.657 -0.0910  0.7550 -0.0029
 1691TIP3    H226565   6.339   0.433  10.762  0.9010  0.0306 -0.4984
 1692TIP3   OH226566   2.531   0.644   1.354  0.0335 -0.5833 -0.3720
 1692TIP3    H126567   2.483   0.562   1.346 -0.2243 -0.5816  0.9939
 1692TIP3    H226568   2.463   0.711   1.365  0.2707 -0.2629 -0.7901
 1693TIP3   OH226569   2.680   5.602  11.219  0.2997  0.0601 -0.2415
 1693TIP3    H126570   2.586   5.588  11.209  0.2953 -1.9750  1.7148
 1693TIP3    H226571   2.688   5.665  11.291  0.4704  1.5723 -1.5306
 1694TIP3   OH226572   3.644   4.644  13.847  0.2284 -0.0173  0.0312
 1694TIP3    H126573   3.714   4.611  13.904  0.4359 -1.3759 -0.9739
 1694TIP3    H226574   3.674   4.732  13.822  0.6517  0.1687  1.1055
 1695TIP3   OH226575   3.877   5.525  11.407 -0.3698 -0.0223  0.0001
 1695TIP3    H126576   3.852   5.458  11.344 -0.7364 -0.6266  0.7729
 1695TIP3    H226577   3.910   5.477  11.482  1.4711  0.7275 -0.2863
 1696TIP3   OH226578   0.447   5.752  10.639  0.1614  0.2442  0.6296
 1696TIP3    H126579   0.374   5.813  10.644 -1.7513 -1.9136  0.5214
 1696TIP3    H226580   0.482   5.762  10.551 -1.9384 -0.7406 -0.3577
 1697TIP3   OH226581   5.169   4.519   1.566  0.7623  0.0477 -0.5433
 1697TIP3    H126582   5.092   4.506   1.512  0.0814 -0.1946  0.4476
 1697TIP3    H226583   5.241   4.530   1.504  0.1908 -1.2683 -1.4788
 1698TIP3   OH226584   0.952   5.040   3.663 -0.1792 -0.0443  0.0903
 1698TIP3    H126585   1.037   5.000   3.675 -0.0202 -0.2531 -1.4951
 1698TIP3    H226586   0.947   5.109   3.729  1.2468  0.0141  0.1466
 1699TIP3   OH226587   1.879   6.403  15.500 -0.5489 -0.1964  0.2982
 1699TIP3    H126588   1.889   6.360  15.585 -3.5934 -0.9339  0.3852
 1699TIP3    H226589   1.915   6.340  15.437  1.6722  0.3314  0.9386
 1700TIP3   OH226590   1.444   3.361  12.970 -0.0547  0.4823 -0.5795
 1700TIP3    H126591   1.474   3.404  13.050  0.4048  0.8354 -0.9296
 1700TIP3    H226592   1.474   3.271  12.978 -1.3867  0.1033  0.3502
 1701TIP3   OH226593   2.180   2.715  13.047  0.3475 -0.2714  0.3377
 1701TIP3    H126594   2.148   2.663  12.973  1.5343  1.7154 -1.6519
 1701TIP3    H226595   2.111   2.705  13.113 -1.1536 -1.4675 -1.2981
 1702TIP3   OH226596   4.922   2.731  13.704 -0.0075 -0.1134  0.1843
 1702TIP3    H126597   4.967   2.805  13.743  2.7764 -1.6616  0.1532
 1702TIP3    H226598   4.893   2.678  13.778 -1.7300  0.7666  0.1983
 1703TIP3   OH226599   2.674   3.510   6.449  0.1325 -0.4459 -0.2586
 1703TIP3    H126600   2.739   3.531   6.516  1.0414  0.1750 -1.3168
 1703TIP3    H226601   2.653   3.418   6.464  1.2535 -0.6593  0.0884
 1704TIP3   OH226602   1.678   4.336   0.421  0.3135  0.0079  0.4002
 1704TIP3    H126603   1.708   4.411   0.370  1.4860  0.1371  1.2575
 1704TIP3    H226604   1.595   4.311   0.379  0.6501  0.8388 -0.8186
 1705TIP3   OH226605   6.043   0.506  14.695  0.0096 -0.5675 -0.1686
 1705TIP3    H126606   6.083   0.434  14.648  0.7593 -0.4975  0.3558
 1705TIP3    H226607   5.960   0.470  14.727  0.3627 -1.1872  0.0669
 1706TIP3   OH226608   6.193   0.689   1.855  0.0290 -0.1079  0.0237
 1706TIP3    H126609   6.153   0.759   1.908  0.8967 -0.5544  1.3178
 1706TIP3    H226610   6.161   0.608   1.894  0.2000 -0.4472 -0.5365
 1707TIP3   OH226611   4.971   1.196   1.051 -0.7430 -0.0760 -0.3624
 1707TIP3    H126612   5.051   1.238   1.083 -0.7772 -1.5084  1.8462
 1707TIP3    H226613   4.992   1.169   0.961  0.0649  2.4626 -1.0132
 1708TIP3   OH226614   4.539   6.162  13.712 -0.3897  0.1531 -0.4212
 1708TIP3    H126615   4.570   6.079  13.676 -1.6017 -0.5331  0.0657
 1708TIP3    H226616   4.619   6.211  13.730  0.3953 -1.2641  0.1491
 1709TIP3   OH226617   4.621   1.787   0.831  0.2259 -0.4100 -0.5092
 1709TIP3    H126618   4.695   1.818   0.884 -0.5284 -0.3042  0.5147
 1709TIP3    H226619   4.544   1.806   0.885 -0.6044  0.0510 -1.8241
 1710TIP3   OH226620   0.487   0.184  14.888  0.7989 -0.1943  0.3038
 1710TIP3    H126621   0.513   0.092  14.883  1.2707 -0.0094 -1.1132
 1710TIP3    H226622   0.401   0.183  14.930  1.1549 -1.2077  1.0308
 1711TIP3   OH226623   3.120   5.139   0.527 -0.1866  0.8074 -0.6125
 1711TIP3    H126624   3.129   5.212   0.466 -1.3913  1.9621  0.5182
 1711TIP3    H226625   3.202   5.091   0.519  0.6472  2.2899 -1.3887
 1712TIP3   OH226626   3.281   4.218  13.846  0.2443 -1.0602  0.7103
 1712TIP3    H126627   3.325   4.300  13.821 -0.7872 -0.3594  1.1288
 1712TIP3    H226628   3.335   4.149  13.807  0.4677 -0.1318 -0.6808
 1713TIP3   OH226629   1.371   4.652   2.764  0.1350 -0.0893 -0.0396
 1713TIP3    H126630   1.278   4.633   2.752 -0.3545  1.0803  1.6405
 1713TIP3    H226631   1.410   4.568   2.785 -0.5610 -0.5587 -0.5709
 1714TIP3   OH226632   6.570   5.126  16.023  0.1546  0.1553 -0.4663
 1714TIP3    H126633   6.660   5.156  16.031  0.5018 -1.1318  0.8992
 1714TIP3    H226634   6.548   5.092  16.110 -1.0089 -1.2169 -1.2506
 1715TIP3   OH226635   1.196   0.811  15.482  0.2641  0.1600  0.3910
 1715TIP3    H126636   1.201   0.794  15.388  0.6209  0.3325  0.3768
 1715TIP3    H226637   1.198   0.724  15.523 -1.0538  0.0186  0.1991
 1716TIP3   OH226638   2.630   5.452   0.095  0.0622  0.1804 -0.2416
 1716TIP3    H126639   2.555   5.417   0.048 -0.0471 -0.7824  0.6118
 1716TIP3    H226640   2.601   5.537   0.127 -1.1533 -0.7388  1.2052
 1717TIP3   OH226641   3.990   0.668   1.279  0.1763  0.0889 -0.4220
 1717TIP3    H126642   4.081   0.651   1.300 -0.7084 -1.5654  2.6231
 1717TIP3    H226643   3.978   0.631   1.191  2.3760  0.2600 -0.8353
 1718TIP3   OH226644   0.901   4.953   2.972  0.3581 -0.0257 -0.6131
 1718TIP3    H126645   0.890   5.009   3.049  0.6341 -1.8886  0.8548
 1718TIP3    H226646   0.827   4.892   2.976  1.0428 -0.9191 -1.1202
 1719TIP3   OH226647   2.297   2.413   0.018  0.1299 -0.8482 -0.2580
 1719TIP3    H126648   2.281   2.489   0.074 -0.0748 -1.3915  0.4390
 1719TIP3    H226649   2.390   2.420  -0.005  0.7020 -1.5383  1.6070
 1720TIP3   OH226650   0.529   3.475  14.068 -0.1963 -0.2633 -0.3402
 1720TIP3    H126651   0.623   3.467  14.087  0.0958  1.4790 -0.8736
 1720TIP3    H226652   0.487   3.413  14.127  1.1465  0.3287  1.3174
 1721TIP3   OH226653   6.676   0.705  11.225  0.0775  0.1137 -0.4244
 1721TIP3    H126654   6.750   0.733  11.172  0.8335  2.3399  1.6437
 1721TIP3    H226655   6.611   0.775  11.214 -0.1462  0.1120  0.7330
 1722TIP3   OH226656   6.403   5.640   2.145 -0.3171  0.0640  0.2357
 1722TIP3    H126657   6.416   5.580   2.071  0.6798  0.5677 -0.0175
 1722TIP3    H226658   6.352   5.590   2.208 -0.6790 -0.5766 -0.5449
 1723TIP3   OH226659   4.112   6.756   2.274 -0.4639  0.2144  0.0762
 1723TIP3    H126660   4.070   6.763   2.189 -2.4010  0.0542  0.9723
 1723TIP3    H226661   4.113   6.662   2.293 -1.0484  0.3313  0.7046
 1724TIP3   OH226662   0.098   2.135  14.083  0.4296 -0.4103 -0.0420
 1724TIP3    H126663   0.114   2.146  13.990 -0.7112 -0.4013 -0.2522
 1724TIP3    H226664   0.016   2.181  14.099  1.5637  1.2732  1.3641
 1725TIP3   OH226665   1.236   1.229   6.488 -0.5253 -0.0252 -0.2658
 1725TIP3    H126666   1.238   1.231   6.584  0.2335  2.2670 -0.2756
 1725TIP3    H226667   1.327   1.246   6.462 -0.8459  0.0451 -1.3983
 1726TIP3   OH226668   6.113   4.538   4.055 -0.1025  0.5030 -0.3547
 1726TIP3    H126669   6.209   4.543   4.058 -0.0698  0.0047 -0.5498
 1726TIP3    H226670   6.084   4.623   4.088  0.3825 -0.1229  1.8856
 1727TIP3   OH226671   1.550   6.172   3.632 -0.1653 -0.1543  0.0449
 1727TIP3    H126672   1.567   6.260   3.666  0.2591 -0.0374 -0.4651
 1727TIP3    H226673   1.634   6.143   3.596 -0.9163  0.2934 -2.2082
 1728TIP3   OH226674   3.913   2.349  13.893 -0.0473 -0.1279  0.0440
 1728TIP3    H126675   3.967   2.421  13.928 -1.4723  1.0729 -0.1371
 1728TIP3    H226676   3.867   2.388  13.819 -3.0629 -0.3331  1.6708
 1729TIP3   OH226677   5.711   1.933   5.667  0.0216 -0.1246  0.0121
 1729TIP3    H126678   5.726   1.933   5.572 -0.1038  0.3423 -0.0121
 1729TIP3    H226679   5.615   1.929   5.676 -0.0457  1.1528  0.0876
 1730TIP3   OH226680   6.122   4.654  11.336  0.3718 -0.1776 -0.7048
 1730TIP3    H126681   6.110   4.732  11.391  1.1859 -0.2486 -0.4051
 1730TIP3    H226682   6.205   4.616  11.367  1.6778  0.6235 -3.0139
 1731TIP3   OH226683   5.966   4.482   0.962  0.2086  0.7110 -0.1707
 1731TIP3    H126684   5.911   4.544   0.913 -0.5234 -0.4089 -0.8258
 1731TIP3    H226685   6.031   4.536   1.006 -0.9795  2.0229  0.0282
 1732TIP3   OH226686   0.717   5.506   1.732 -0.1835  0.1633  0.4174
 1732TIP3    H126687   0.730   5.562   1.808 -0.3451 -0.2851  0.7783
 1732TIP3    H226688   0.652   5.442   1.760  1.8685 -1.8235  0.8906
 1733TIP3   OH226689   0.597   3.472   0.828 -0.5599 -0.0386 -0.4158
 1733TIP3    H126690   0.587   3.545   0.767 -1.5200  0.7347  0.6020
 1733TIP3    H226691   0.666   3.418   0.791  0.4006  1.5595 -1.0408
 1734TIP3   OH226692   2.762   2.425  11.622 -0.3678 -0.4892  0.1996
 1734TIP3    H126693   2.798   2.393  11.539 -1.1613  1.0554 -0.7791
 1734TIP3    H226694   2.719   2.508  11.600  1.7635  1.4445  2.6168
 1735TIP3   OH226695   4.234   2.293   4.503 -0.2643 -0.1580  0.2611
 1735TIP3    H126696   4.158   2.258   4.549 -0.0317 -1.6525 -0.4140
 1735TIP3    H226697   4.229   2.388   4.515 -2.5478 -0.1757 -0.2897
 1736TIP3   OH226698   4.121   4.411  12.363 -0.1086 -0.5645 -0.1309
 1736TIP3    H126699   4.124   4.460  12.281  2.2662  2.9174  1.7836
 1736TIP3    H226700   4.032   4.424  12.395  0.4559  3.0486  0.4061
 1737TIP3   OH226701   6.039   0.625  15.460 -0.1134  0.3169  0.1819
 1737TIP3    H126702   5.994   0.545  15.484 -0.5846  0.2102 -0.9786
 1737TIP3    H226703   6.088   0.651  15.539 -0.5050 -0.7208  0.7748
 1738TIP3   OH226704   5.306   4.024   2.585 -0.0562 -0.6444 -0.0876
 1738TIP3    H126705   5.243   4.093   2.568  1.4513  0.8051 -0.0776
 1738TIP3    H226706   5.375   4.038   2.520  1.6661 -0.2873  1.7100
 1739TIP3   OH226707   6.714   2.571   5.296  0.2208  0.5306  0.0299
 1739TIP3    H126708   6.649   2.547   5.230  0.2273 -0.0145  0.2167
 1739TIP3    H226709   6.662   2.593   5.373  0.2267  0.9102 -0.0681
 1740TIP3   OH226710   2.390   4.425  12.285 -0.0256 -0.1601 -0.0317
 1740TIP3    H126711   2.480   4.412  12.253 -0.4036  1.0490 -1.7052
 1740TIP3    H226712   2.337   4.367  12.232 -0.4693  0.6495 -0.4920
 1741TIP3   OH226713   4.261   5.472  15.618  0.0368  0.4304 -0.1596
 1741TIP3    H126714   4.303   5.390  15.591  0.0402  0.7403 -1.1369
 1741TIP3    H226715   4.300   5.539  15.562 -2.3351  0.6251 -1.7595
 1742TIP3   OH226716   5.240   5.326  12.843  0.0197 -0.1104  0.4862
 1742TIP3    H126717   5.256   5.416  12.873 -1.1465  0.6461 -1.0092
 1742TIP3    H226718   5.145   5.315  12.850  0.0531 -0.9057 -0.1599
 1743TIP3   OH226719   5.160   2.481   5.460 -0.9449 -0.3199  0.3381
 1743TIP3    H126720   5.231   2.533   5.498 -0.4389  0.0464 -1.0427
 1743TIP3    H226721   5.157   2.402   5.514 -0.7312  0.4671  1.5578
 1744TIP3   OH226722   0.505   3.637  13.306  0.0171 -0.7219  0.0987
 1744TIP3    H126723   0.549   3.553  13.314  2.3237  0.4557  0.5519
 1744TIP3    H226724   0.531   3.686  13.384 -0.4449  0.7757 -0.6463
 1745TIP3   OH226725   3.464   2.459   0.466 -0.3869  0.2168 -0.0695
 1745TIP3    H126726   3.508   2.530   0.420  0.4259 -0.2341 -0.0106
 1745TIP3    H226727   3.532   2.421   0.523 -0.5734 -1.1310 -0.7042
 1746TIP3   OH226728   4.456   2.276   5.379 -0.5820  0.0074 -0.1640
 1746TIP3    H126729   4.421   2.213   5.316  0.2971 -1.2087  0.5290
 1746TIP3    H226730   4.528   2.319   5.332 -0.2455 -0.5467 -0.1562
 1747TIP3   OH226731   4.113   5.360   0.355 -0.4206  0.7712  0.5702
 1747TIP3    H126732   4.173   5.307   0.303 -2.6640  0.5061 -1.9624
 1747TIP3    H226733   4.097   5.307   0.433 -2.4027 -2.4386 -1.7465
 1748TIP3   OH226734   6.103   3.120   2.159  0.5106 -0.0252 -0.5585
 1748TIP3    H126735   6.199   3.119   2.154  0.5711  0.7256  0.2355
 1748TIP3    H226736   6.081   3.212   2.173 -0.1542 -0.4617  1.7833
 1749TIP3   OH226737   6.214   4.437   2.360  0.3295 -0.8499 -0.6634
 1749TIP3    H126738   6.197   4.531   2.369 -1.6745 -1.1945 -0.4067
 1749TIP3    H226739   6.186   4.400   2.444 -0.4955 -1.8706 -1.3698
 1750TIP3   OH226740   2.396   6.317   0.277  0.2286  0.1611 -0.3099
 1750TIP3    H126741   2.408   6.228   0.243  1.2104  0.3194 -0.4172
 1750TIP3    H226742   2.357   6.365   0.204  0.1987 -0.0550 -0.4371
 1751TIP3   OH226743   1.105   5.002   4.055  0.5060 -0.0971  0.1095
 1751TIP3    H126744   1.136   5.078   4.005 -1.2467  0.9416  0.5136
 1751TIP3    H226745   1.081   4.937   3.989  0.5279  0.3112 -0.3023
 1752TIP3   OH226746   3.451   0.764   5.752 -0.3956  0.4744  0.0292
 1752TIP3    H126747   3.438   0.859   5.742 -2.3890  0.1659 -0.8198
 1752TIP3    H226748   3.407   0.743   5.834  0.9716  0.3990  0.7785
 1753TIP3   OH226749   4.489   6.672   1.318 -0.4890  0.0854 -0.8130
 1753TIP3    H126750   4.443   6.712   1.392  0.1824 -1.8736  0.7263
 1753TIP3    H226751   4.579   6.701   1.328 -0.7540  1.5028 -2.1265
 1754TIP3   OH226752   5.413   4.722   5.072 -0.4700  0.6134 -0.0264
 1754TIP3    H126753   5.356   4.795   5.096 -1.8971  0.3208 -2.2315
 1754TIP3    H226754   5.414   4.724   4.976  0.8107 -1.2528 -0.0872
 1755TIP3   OH226755   0.712   5.098  15.274 -0.0110 -0.0414 -0.1826
 1755TIP3    H126756   0.718   5.143  15.359 -1.2810 -0.9358  0.4179
 1755TIP3    H226757   0.711   5.169  15.210  1.3496  0.6426  0.4937
 1756TIP3   OH226758   1.837   3.092   0.599  0.1756 -0.4337 -0.0069
 1756TIP3    H126759   1.822   3.178   0.638  1.7790 -0.3921  0.5994
 1756TIP3    H226760   1.808   3.030   0.666 -1.6503 -0.4091 -0.7204
 1757TIP3   OH226761   1.260   6.319  15.444 -0.6305 -0.2896  0.0172
 1757TIP3    H126762   1.245   6.283  15.357  1.2797 -0.4916 -0.2610
 1757TIP3    H226763   1.221   6.254  15.504 -1.3924 -0.4572 -0.6388
 1758TIP3   OH226764   1.510   5.224  15.726 -0.2129 -0.1528  0.4624
 1758TIP3    H126765   1.469   5.141  15.700  0.1718 -0.1704 -0.1222
 1758TIP3    H226766   1.572   5.200  15.794  0.8969 -0.5767 -0.6494
 1759TIP3   OH226767   4.503   6.657  13.158 -0.2590 -0.1415 -0.4467
 1759TIP3    H126768   4.595   6.668  13.180 -0.0054 -0.5155 -1.2850
 1759TIP3    H226769   4.458   6.728  13.205 -0.0492 -1.9911  2.8845
 1760TIP3   OH226770   4.237   5.412  11.368  0.2491  0.8991 -0.0405
 1760TIP3    H126771   4.159   5.402  11.313  1.0408 -1.1128 -0.8780
 1760TIP3    H226772   4.202   5.435  11.454 -1.1290  2.0534 -0.8642
 1761TIP3   OH226773   3.434   5.517   4.721 -0.2116  0.8004 -0.6284
 1761TIP3    H126774   3.345   5.485   4.703 -0.2436  0.3245  0.2803
 1761TIP3    H226775   3.466   5.549   4.637 -1.1294  0.6833 -1.0348
 1762TIP3   OH226776   2.332   4.186  12.853 -0.0931  0.0663 -0.2451
 1762TIP3    H126777   2.403   4.251  12.855  0.0734 -0.0322 -1.8988
 1762TIP3    H226778   2.369   4.109  12.897  0.4891  0.3438 -0.2366
 1763TIP3   OH226779   3.461   6.593   3.806  0.2344  0.0226  0.2869
 1763TIP3    H126780   3.394   6.596   3.875  0.3415 -0.2593  0.4045
 1763TIP3    H226781   3.472   6.499   3.787 -1.9713  0.1367 -2.2280
 1764TIP3   OH226782   2.151   4.559   6.178  0.5486 -0.0434  0.6643
 1764TIP3    H126783   2.211   4.500   6.223 -0.3110  0.4003  2.4791
 1764TIP3    H226784   2.098   4.501   6.122  2.0977 -0.5127 -0.3771
 1765TIP3   OH226785   6.469   4.989   5.156  0.6186 -0.1328 -0.2576
 1765TIP3    H126786   6.374   4.980   5.167  0.8972 -0.9676  1.9572
 1765TIP3    H226787   6.485   5.083   5.162 -0.0858  0.0353 -0.9014
 1766TIP3   OH226788   1.808   2.902   3.507 -0.3092  0.3232 -0.2594
 1766TIP3    H126789   1.764   2.965   3.451  0.2265  0.1175 -0.9334
 1766TIP3    H226790   1.797   2.818   3.462 -1.4580 -0.1673  0.8840
 1767TIP3   OH226791   5.422   1.362  17.213 -0.0044  0.0183 -0.1888
 1767TIP3    H126792   5.368   1.346  17.290  0.2037  1.0041  0.1843
 1767TIP3    H226793   5.497   1.303  17.224  1.6639  2.3650  2.0882
 1768TIP3   OH226794   4.252   1.119   5.571  0.2640  0.1530 -0.6906
 1768TIP3    H126795   4.271   1.111   5.478  0.6148  2.6089 -0.8878
 1768TIP3    H226796   4.276   1.209   5.593  0.4188 -0.4285  1.8325
 1769TIP3   OH226797   2.424   5.952  13.424  0.2890  0.1825  0.2693
 1769TIP3    H126798   2.337   5.992  13.429  0.0524 -0.4197  1.2191
 1769TIP3    H226799   2.474   6.012  13.369 -0.7061  0.5744 -0.2417
 1770TIP3   OH226800   0.390   4.104   4.360  0.4701 -0.1050 -0.4736
 1770TIP3    H126801   0.376   4.009   4.368 -1.0786  0.2349  1.8201
 1770TIP3    H226802   0.443   4.127   4.437  0.1504  1.0148 -0.5737
 1771TIP3   OH226803   1.312   3.445   5.261 -0.2219  0.6757 -0.1189
 1771TIP3    H126804   1.297   3.351   5.254 -0.2945  0.5684  1.1448
 1771TIP3    H226805   1.276   3.482   5.181  0.6113 -0.4610 -1.0477
 1772TIP3   OH226806   3.524   6.074  14.166 -0.5171 -0.8337  0.1008
 1772TIP3    H126807   3.448   6.018  14.181  0.7240 -2.9813 -1.1093
 1772TIP3    H226808   3.597   6.027  14.206  0.2135  1.2418  1.3661
 1773TIP3   OH226809   6.601   3.521  13.015 -0.2653 -0.4773  0.1584
 1773TIP3    H126810   6.614   3.530  12.920 -1.2999  0.9883  0.1159
 1773TIP3    H226811   6.659   3.588  13.053 -0.5944 -0.3808  0.4931
 1774TIP3   OH226812   5.623   2.492  13.288 -0.0962  0.0926 -0.3693
 1774TIP3    H126813   5.661   2.484  13.375  1.4083  0.1072 -0.9951
 1774TIP3    H226814   5.677   2.559  13.245 -0.4180 -0.3712 -1.5132
 1775TIP3   OH226815   5.595   2.217  16.644 -0.0090 -0.3055  0.2754
 1775TIP3    H126816   5.641   2.299  16.624  0.2369 -0.4232  0.3508
 1775TIP3    H226817   5.507   2.244  16.669 -0.4859 -0.1823 -1.4278
 1776TIP3   OH226818   2.973   3.825  16.782  0.5529 -0.1290  0.7903
 1776TIP3    H126819   2.938   3.763  16.718  1.9123  0.9331 -1.0762
 1776TIP3    H226820   2.902   3.836  16.845 -0.8701 -1.2013 -0.5390
 1777TIP3   OH226821   4.897   4.195  12.285  0.1381  0.3796  0.1597
 1777TIP3    H126822   4.832   4.138  12.327  0.9890  0.8180  2.1931
 1777TIP3    H226823   4.847   4.271  12.257 -0.1603  1.1476  2.5609
 1778TIP3   OH226824   3.296   0.419  15.914  0.2052  0.2687  0.3130
 1778TIP3    H126825   3.256   0.372  15.987  0.6052  0.2672  0.5391
 1778TIP3    H226826   3.263   0.375  15.836  0.6258 -0.4383  0.5236
 1779TIP3   OH226827   1.029   5.077  14.207 -0.2941  0.4399  0.1445
 1779TIP3    H126828   1.109   5.031  14.180 -1.4485 -2.3907  1.2139
 1779TIP3    H226829   0.984   5.095  14.125 -0.6887 -2.1850 -0.3016
 1780TIP3   OH226830   4.729   3.853  12.216 -0.5380 -0.4410 -0.1501
 1780TIP3    H126831   4.667   3.923  12.235 -1.6152 -1.4144  0.1102
 1780TIP3    H226832   4.705   3.822  12.129  0.7676  0.3381 -0.8100
 1781TIP3   OH226833   2.851   1.441   5.618  0.5864  0.2946  0.3332
 1781TIP3    H126834   2.918   1.421   5.552  0.8458  2.6337 -0.2011
 1781TIP3    H226835   2.806   1.518   5.583  0.1572  1.0830  2.5046
 1782TIP3   OH226836   2.508   3.794  13.880  0.1304 -0.0098 -0.8559
 1782TIP3    H126837   2.553   3.866  13.925  0.1345 -0.8885  0.5785
 1782TIP3    H226838   2.451   3.755  13.946 -0.2724 -1.0016 -1.7550
 1783TIP3   OH226839   0.434   3.573  12.770 -0.3151 -0.0844 -0.0047
 1783TIP3    H126840   0.511   3.530  12.732  0.6404  1.4903  0.0702
 1783TIP3    H226841   0.371   3.502  12.782  1.2727 -1.5104  0.3655
 1784TIP3   OH226842   1.324   3.437   4.523 -0.4558 -0.6901  0.1345
 1784TIP3    H126843   1.271   3.380   4.467  2.2462 -1.6615 -1.6066
 1784TIP3    H226844   1.351   3.508   4.466  0.6998 -0.6008  0.7748
 1785TIP3   OH226845   3.739   2.458  11.445 -0.0406 -0.1436  0.0460
 1785TIP3    H126846   3.743   2.544  11.485  2.2133 -0.2023  0.0757
 1785TIP3    H226847   3.714   2.399  11.517 -0.1639  0.2927  0.3642
 1786TIP3   OH226848   0.693   0.699   5.547 -0.2380 -0.1348 -0.2141
 1786TIP3    H126849   0.632   0.771   5.528 -0.3834 -0.1817  0.0616
 1786TIP3    H226850   0.776   0.743   5.567 -0.3560 -0.0332  0.0689
 1787TIP3   OH226851   6.094   1.333  11.310 -0.0746  0.0193 -0.5669
 1787TIP3    H126852   6.170   1.295  11.355  0.2760  1.0084 -0.3047
 1787TIP3    H226853   6.068   1.407  11.365 -0.9263 -0.0107 -0.9218
 1788TIP3   OH226854   6.568   1.603  12.302 -0.0829 -0.4359 -0.3673
 1788TIP3    H126855   6.654   1.614  12.342 -1.0327  4.3680  0.9402
 1788TIP3    H226856   6.573   1.651  12.220 -1.4180 -0.3489 -0.4197
 1789TIP3   OH226857   5.767   2.756  16.482 -0.3116 -0.4217  0.2456
 1789TIP3    H126858   5.814   2.733  16.562  2.4864 -1.4861 -1.5732
 1789TIP3    H226859   5.714   2.832  16.507  2.2410  0.7754  2.5517
 1790TIP3   OH226860   2.158   3.573  13.943  0.2064  0.0004 -0.0195
 1790TIP3    H126861   2.098   3.516  13.992  0.7025  0.4835  1.2065
 1790TIP3    H226862   2.177   3.525  13.863 -0.3948 -0.9745  0.3989
 1791TIP3   OH226863   3.716   5.878   6.451  0.0390  0.0174 -0.0290
 1791TIP3    H126864   3.758   5.849   6.370  1.1424 -1.0723  0.8918
 1791TIP3    H226865   3.623   5.858   6.438 -0.1155  1.5205 -1.7001
 1792TIP3   OH226866   1.255   6.105  13.616 -0.0587  0.1808  0.2040
 1792TIP3    H126867   1.330   6.115  13.674 -1.1195 -0.8183  1.8159
 1792TIP3    H226868   1.244   6.011  13.606 -0.9778  0.3145 -0.1733
 1793TIP3   OH226869   6.307   6.753   0.631 -0.4506  0.1181 -0.0812
 1793TIP3    H126870   6.255   6.678   0.600  0.9541 -0.5865 -0.8454
 1793TIP3    H226871   6.343   6.792   0.551 -1.1606  1.6402  0.3145
 1794TIP3   OH226872   5.582   6.108   2.190  0.1555 -0.0493 -0.6897
 1794TIP3    H126873   5.497   6.077   2.222  0.2056  0.2160 -0.2948
 1794TIP3    H226874   5.559   6.177   2.127  0.0866  0.2382 -0.3500
 1795TIP3   OH226875   5.387   2.994   5.395 -0.2769  0.2752 -0.3511
 1795TIP3    H126876   5.306   2.944   5.388 -0.2005  0.1879 -0.6230
 1795TIP3    H226877   5.455   2.935   5.360 -0.1941  0.5906 -0.7300
 1796TIP3   OH226878   1.125   4.159   4.650 -0.1036 -0.2087 -0.0058
 1796TIP3    H126879   1.201   4.128   4.600  1.6364  0.2159  2.2693
 1796TIP3    H226880   1.158   4.176   4.738 -2.0370  3.4366  0.2110
 1797TIP3   OH226881   3.471   0.146   3.474 -0.1861  0.3007  0.3690
 1797TIP3    H126882   3.545   0.092   3.448  0.8589  2.1306 -0.6322
 1797TIP3    H226883   3.434   0.101   3.550  0.7867 -1.6384 -0.2406
 1798TIP3   OH226884   5.476   6.668  17.180  0.5289 -0.7313 -0.1998
 1798TIP3    H126885   5.479   6.596  17.118  1.5384  0.2426 -1.3480
 1798TIP3    H226886   5.405   6.646  17.240 -0.9943 -1.3672 -2.1364
 1799TIP3   OH226887   5.731   2.005  16.548 -0.1781  0.0620 -0.3586
 1799TIP3    H126888   5.670   2.075  16.571 -0.7826 -0.8223  0.8651
 1799TIP3    H226889   5.783   1.991  16.627  0.4503 -0.3686 -0.8335
 1800TIP3   OH226890   5.107   5.554   1.801 -0.0244  0.0202 -0.3948
 1800TIP3    H126891   5.158   5.517   1.729  0.7669  1.0912 -0.4139
 1800TIP3    H226892   5.133   5.505   1.878  1.2017  0.6725 -0.3725
 1801TIP3   OH226893   5.971   6.064   5.689  0.1236  0.2762 -0.8761
 1801TIP3    H126894   6.057   6.103   5.674  0.5019 -0.2571 -0.1391
 1801TIP3    H226895   5.958   6.008   5.612  0.3958  0.4319 -1.0389
 1802TIP3   OH226896   6.214   2.801   1.994  0.5903  0.3467 -0.1107
 1802TIP3    H126897   6.199   2.754   1.912 -1.2832 -1.9283  1.3869
 1802TIP3    H226898   6.143   2.865   1.998  1.2397  1.1091 -0.6798
 1803TIP3   OH226899   0.554   3.212  17.135 -0.1762 -0.1405  0.5677
 1803TIP3    H126900   0.547   3.298  17.175  1.1823  1.2113 -1.8788
 1803TIP3    H226901   0.648   3.197  17.127 -0.4052 -1.5684  0.3396
 1804TIP3   OH226902   1.315   3.901  11.248 -0.1619  0.0545  0.1622
 1804TIP3    H126903   1.248   3.963  11.276 -0.3362  0.1664 -0.4858
 1804TIP3    H226904   1.274   3.851  11.177  0.4293  0.1017 -0.2222
 1805TIP3   OH226905   1.308   4.124   6.340  0.3315  0.3390  0.1388
 1805TIP3    H126906   1.398   4.154   6.328  0.1377  0.7456 -0.3414
 1805TIP3    H226907   1.315   4.029   6.347  0.5998  0.1598 -1.9856
 1806TIP3   OH226908   3.167   1.155   5.784 -0.0007  0.2063 -0.1673
 1806TIP3    H126909   3.100   1.092   5.755  0.8934 -0.1169 -1.6038
 1806TIP3    H226910   3.215   1.177   5.705  3.0438 -1.2761  1.0886
 1807TIP3   OH226911   2.123   6.068  12.018  0.0926  0.0553  0.7689
 1807TIP3    H126912   2.168   6.009  11.958  2.6401  2.1670  0.4313
 1807TIP3    H226913   2.068   6.123  11.961  1.7549  1.4018  0.3853
 1808TIP3   OH226914   5.867   3.868  12.819 -0.0170 -0.1998  0.6736
 1808TIP3    H126915   5.863   3.872  12.723  0.6886  0.9643  0.6752
 1808TIP3    H226916   5.915   3.787  12.837  1.2573  0.3743 -0.0211
 1809TIP3   OH226917   3.298   2.173   5.251  0.0750  0.2622  0.1534
 1809TIP3    H126918   3.312   2.110   5.321  0.4745 -0.0829 -0.2268
 1809TIP3    H226919   3.262   2.122   5.179  2.1746  0.0500 -0.8379
 1810TIP3   OH226920   4.927   4.764  10.616 -0.1843 -0.3807  0.4411
 1810TIP3    H126921   4.992   4.743  10.549 -0.6251 -1.7901  0.4186
 1810TIP3    H226922   4.859   4.698  10.605 -1.2211  0.5600  1.0066
 1811TIP3   OH226923   3.142   5.917   0.529  0.2613  0.3673 -0.5812
 1811TIP3    H126924   3.057   5.878   0.550  0.5714  0.1578  0.3195
 1811TIP3    H226925   3.184   5.931   0.614  0.9173  0.9555 -0.9866
 1812TIP3   OH226926   4.780   3.909   0.356 -0.0027 -0.3415  0.0336
 1812TIP3    H126927   4.846   3.886   0.291 -1.3433 -1.6076 -0.9600
 1812TIP3    H226928   4.715   3.839   0.351 -1.8290  1.2141  0.3998
 1813TIP3   OH226929   4.563   2.996  14.071 -0.1500  0.3909 -0.2805
 1813TIP3    H126930   4.509   2.922  14.045  0.2302  0.3739 -1.0335
 1813TIP3    H226931   4.515   3.073  14.042  0.5585  0.3538 -1.6283
 1814TIP3   OH226932   1.208   2.065   4.811  0.0526 -0.0605  0.1556
 1814TIP3    H126933   1.193   1.985   4.760 -1.0679 -0.3680  0.9260
 1814TIP3    H226934   1.122   2.088   4.845 -0.0991  2.6966 -1.7475
 1815TIP3   OH226935   0.650   1.142   5.104 -0.2226 -0.1523 -0.6324
 1815TIP3    H126936   0.579   1.131   5.041 -0.8857 -1.0857  0.2558
 1815TIP3    H226937   0.722   1.180   5.052  0.0020 -2.8080 -2.4708
 1816TIP3   OH226938   0.144   0.649   2.511  0.5192  0.5942  0.7808
 1816TIP3    H126939   0.102   0.621   2.430  0.5469  0.3124  0.8631
 1816TIP3    H226940   0.213   0.708   2.482  1.1345 -0.2243  0.5209
 1817TIP3   OH226941   2.826   1.610   2.022 -0.3991  0.1765 -0.3941
 1817TIP3    H126942   2.904   1.592   2.075 -1.2755 -1.8505  0.3273
 1817TIP3    H226943   2.776   1.673   2.073 -0.3983 -0.4354  0.3855
 1818TIP3   OH226944   5.788   4.685  12.175 -0.5572  0.1050 -0.7729
 1818TIP3    H126945   5.848   4.610  12.176 -1.0912 -0.3851  1.2500
 1818TIP3    H226946   5.776   4.706  12.268 -2.7649  0.7647 -1.1565
 1819TIP3   OH226947   3.822   0.018  16.227 -0.0907  0.5266  0.7596
 1819TIP3    H126948   3.775  -0.063  16.208  2.6932 -0.7817 -1.3112
 1819TIP3    H226949   3.905  -0.010  16.265  1.6808  2.1580 -1.5683
 1820TIP3   OH226950   5.622   3.963   2.067  0.3776 -0.7776 -0.0417
 1820TIP3    H126951   5.701   3.910   2.054  0.7316  0.2440 -2.5071
 1820TIP3    H226952   5.649   4.052   2.045 -1.3765 -0.3516 -0.5981
 1821TIP3   OH226953   1.393   5.525  14.757  0.9418 -0.3934  0.6542
 1821TIP3    H126954   1.341   5.475  14.694  0.0031  0.5048  0.6779
 1821TIP3    H226955   1.433   5.595  14.704 -0.5358  0.8800  1.1531
 1822TIP3   OH226956   5.883   6.132  15.682 -0.1597 -0.5184  0.8186
 1822TIP3    H126957   5.976   6.149  15.666 -0.5330 -1.1204 -3.2373
 1822TIP3    H226958   5.875   6.036  15.675 -1.1395 -0.4148  0.2765
 1823TIP3   OH226959   1.987   3.315   0.371 -0.6251  0.3251  0.3577
 1823TIP3    H126960   1.953   3.262   0.299 -0.7472 -0.6684  1.1278
 1823TIP3    H226961   1.910   3.346   0.417 -0.5643 -1.3741  1.7041
 1824TIP3   OH226962   4.072   0.087  14.720 -0.2995 -0.5912 -0.5104
 1824TIP3    H126963   3.983   0.095  14.755 -1.2458  1.4516 -3.0396
 1824TIP3    H226964   4.060   0.072  14.626  1.8751  2.6153 -1.5021
 1825TIP3   OH226965   2.272   5.615   5.759  0.2881 -0.0721 -0.0189
 1825TIP3    H126966   2.349   5.560   5.745 -0.1588 -0.3349 -1.5570
 1825TIP3    H226967   2.198   5.555   5.754 -0.3228  0.7824 -3.2611
 1826TIP3   OH226968   5.926   5.169   5.282  0.2180 -0.6728 -0.0687
 1826TIP3    H126969   5.919   5.095   5.222 -1.3476 -0.1301 -0.5871
 1826TIP3    H226970   5.853   5.157   5.343  1.7377 -1.1947  1.7588
 1827TIP3   OH226971   5.243   5.348   1.215  0.5808  0.5138  0.1540
 1827TIP3    H126972   5.216   5.270   1.264  1.5805 -0.3819 -0.6424
 1827TIP3    H226973   5.337   5.356   1.233  0.5623  1.3240 -0.0693
 1828TIP3   OH226974   3.644   0.147   5.642  0.0669 -0.3648  0.0112
 1828TIP3    H126975   3.627   0.064   5.688  0.8226 -0.0004  0.9553
 1828TIP3    H226976   3.560   0.193   5.646  0.1746 -0.2482  1.2232
 1829TIP3   OH226977   0.734   3.898   1.835 -0.3447  0.1123 -0.5777
 1829TIP3    H126978   0.775   3.812   1.836  0.2113  0.3037 -2.3686
 1829TIP3    H226979   0.798   3.954   1.790 -0.4064  1.6334  1.1132
 1830TIP3   OH226980   2.343   3.800   2.820 -0.0328 -0.1064  0.6723
 1830TIP3    H126981   2.416   3.772   2.764 -1.0720 -1.4011 -0.1082
 1830TIP3    H226982   2.335   3.894   2.804 -0.3373 -0.4480 -1.4466
 1831TIP3   OH226983   0.543   4.691   5.041 -0.5494 -0.0347  0.1025
 1831TIP3    H126984   0.449   4.680   5.032 -0.6384  1.0478 -0.4767
 1831TIP3    H226985   0.557   4.786   5.035  0.5607 -0.1672  0.3096
 1832TIP3   OH226986   0.530   6.051   2.860 -0.0789  0.3714  0.2967
 1832TIP3    H126987   0.479   6.090   2.789 -0.3042 -0.5120 -0.0427
 1832TIP3    H226988   0.621   6.054   2.829  0.1093  2.0268  0.9403
 1833TIP3   OH226989   4.382   3.611  16.156 -0.1420  0.4536 -0.4859
 1833TIP3    H126990   4.428   3.595  16.074 -0.0678  0.7836 -0.5116
 1833TIP3    H226991   4.451   3.640  16.216  0.2509 -2.1154  0.4239
 1834TIP3   OH226992   1.077   0.738   3.163  0.0084 -0.1883 -0.3328
 1834TIP3    H126993   1.099   0.773   3.250  0.7318 -0.4402 -0.4071
 1834TIP3    H226994   0.990   0.700   3.174  0.5510 -1.2135  0.5744
 1835TIP3   OH226995   2.344   0.212  14.958  0.1930  0.1560  0.7460
 1835TIP3    H126996   2.353   0.138  14.897 -1.0929 -1.6358  2.5912
 1835TIP3    H226997   2.432   0.230  14.988  0.3651 -1.8669  1.5884
 1836TIP3   OH226998   5.414   4.011  13.694  0.3143 -0.1791 -0.0928
 1836TIP3    H126999   5.462   3.971  13.621 -0.1411  0.4001 -0.7302
 1836TIP3    H227000   5.480   4.059  13.743  0.6063 -0.4780 -0.1856
 1837TIP3   OH227001   5.011   6.237  15.638  0.3560 -1.2623 -0.1679
 1837TIP3    H127002   4.964   6.268  15.561 -0.2618 -0.7418  0.4031
 1837TIP3    H227003   5.101   6.265  15.624 -0.0639  0.3311  0.0525
 1838TIP3   OH227004   0.809   1.468   3.749  0.2136  0.2553  0.0091
 1838TIP3    H127005   0.893   1.425   3.761  0.4469  0.6642 -0.1527
 1838TIP3    H227006   0.757   1.442   3.825  0.6612  0.4149  0.3743
 1839TIP3   OH227007   2.868   2.073   4.466 -0.0561 -0.2148 -0.2337
 1839TIP3    H127008   2.884   1.982   4.490 -1.0739 -0.1101  0.9456
 1839TIP3    H227009   2.775   2.075   4.441  0.0040  0.4585 -0.4285
 1840TIP3   OH227010   3.512   1.552  11.338  0.2857 -0.3294 -0.4650
 1840TIP3    H127011   3.503   1.470  11.385 -0.6598 -0.4916 -0.8904
 1840TIP3    H227012   3.444   1.548  11.270 -1.1443  1.6141  0.7279
 1841TIP3   OH227013   5.582   5.314  16.583 -0.2185  0.2965 -0.0104
 1841TIP3    H127014   5.608   5.396  16.540  0.2094 -0.5144 -1.3415
 1841TIP3    H227015   5.493   5.298  16.552  0.6890 -1.1933 -2.1123
 1842TIP3   OH227016   3.381   1.572  11.091 -0.0478  0.0354 -0.1355
 1842TIP3    H127017   3.287   1.586  11.106 -0.2371 -0.4637 -0.8198
 1842TIP3    H227018   3.402   1.630  11.018  0.0687 -0.1927 -0.2841
 1843TIP3   OH227019   4.433   0.674   2.705  0.6466  0.2358 -0.3710
 1843TIP3    H127020   4.344   0.678   2.671  0.9037 -0.4784 -1.1869
 1843TIP3    H227021   4.444   0.583   2.733  1.3012  0.1529 -0.8509
 1844TIP3   OH227022   5.703   3.799  13.015  0.1434 -0.3601  1.0927
 1844TIP3    H127023   5.765   3.817  12.944  0.2711  0.3362  1.3707
 1844TIP3    H227024   5.630   3.755  12.972 -1.0168  2.4131  0.0052
 1845TIP3   OH227025   5.676   3.034   3.334  0.0062  0.4893  0.6316
 1845TIP3    H127026   5.583   3.042   3.355 -0.0461 -0.2238  0.6868
 1845TIP3    H227027   5.682   3.063   3.243 -0.7225 -1.9361 -0.2678
 1846TIP3   OH227028   3.960   0.693  15.180  0.8806 -0.3891  0.0358
 1846TIP3    H127029   4.008   0.632  15.235 -0.2411 -0.8380  0.5411
 1846TIP3    H227030   4.027   0.735  15.126  2.0235  0.1660  1.8271
 1847TIP3   OH227031   0.522   6.760   4.835 -0.2428  0.3699  0.3488
 1847TIP3    H127032   0.473   6.806   4.903  0.1592 -0.5530  1.2841
 1847TIP3    H227033   0.474   6.777   4.754 -0.3095  2.1230  0.7243
 1848TIP3   OH227034   1.939   6.049  11.295 -0.0904 -0.3610 -0.2218
 1848TIP3    H127035   2.023   6.037  11.339 -0.7570  1.3104  1.6631
 1848TIP3    H227036   1.955   6.120  11.232 -0.0616 -0.1578  0.0165
 1849TIP3   OH227037   2.117   4.367  16.422 -0.6546 -0.4909  0.0624
 1849TIP3    H127038   2.162   4.283  16.413  2.1734  0.8087  0.8418
 1849TIP3    H227039   2.164   4.426  16.362 -0.7540  1.1433  1.5064
 1850TIP3   OH227040   4.255   4.238  10.603 -0.1938 -0.0526  0.3161
 1850TIP3    H127041   4.292   4.165  10.554  1.6744  1.6158 -0.9222
 1850TIP3    H227042   4.219   4.198  10.682 -0.4028 -2.4379 -0.9010
 1851TIP3   OH227043   1.880   3.950   0.401  0.0221  0.3372  0.0545
 1851TIP3    H127044   1.902   4.018   0.465  0.5228 -0.7203  1.0544
 1851TIP3    H227045   1.919   3.870   0.437 -0.3744 -0.4481 -1.1871
 1852TIP3   OH227046   3.340   6.691  14.839 -0.0312 -0.6612 -0.5124
 1852TIP3    H127047   3.249   6.676  14.866  0.4499 -1.5870  0.6794
 1852TIP3    H227048   3.373   6.754  14.904  0.8576 -2.1643  0.5486
 1853TIP3   OH227049   0.760   3.335   3.010  0.0747 -0.2849 -1.2233
 1853TIP3    H127050   0.699   3.381   3.068 -1.6108 -2.4566 -1.1544
 1853TIP3    H227051   0.843   3.333   3.059 -0.6164  0.1361 -0.0045
 1854TIP3   OH227052   4.784   3.433  10.990  0.3307 -0.1713  0.1737
 1854TIP3    H127053   4.739   3.355  10.957  0.2812 -0.8196  1.6978
 1854TIP3    H227054   4.760   3.438  11.082  1.7199  0.6766  0.5230
 1855TIP3   OH227055   5.787   5.596   0.617 -0.1664  0.4456 -0.1395
 1855TIP3    H127056   5.874   5.637   0.623 -0.1161  0.1077  2.2863
 1855TIP3    H227057   5.747   5.613   0.702 -1.8076 -0.9191 -0.5964
 1856TIP3   OH227058   4.201   4.743  16.421  0.5673 -0.3181 -0.6532
 1856TIP3    H127059   4.281   4.766  16.469  0.6878 -2.4076  0.2661
 1856TIP3    H227060   4.191   4.649  16.435 -1.3603 -0.3457 -1.8389
 1857TIP3   OH227061   1.100   6.032  16.528  0.1755  0.4268  0.3001
 1857TIP3    H127062   1.094   6.112  16.582  0.8999  0.3947  0.4391
 1857TIP3    H227063   1.194   6.024  16.509 -0.2122  1.3589 -2.3806
 1858TIP3   OH227064   3.222   2.548   3.354 -0.2003 -0.1981  0.4337
 1858TIP3    H127065   3.199   2.487   3.285 -1.8378  3.0772 -2.1542
 1858TIP3    H227066   3.147   2.548   3.414  0.6124 -1.9739  1.5305
 1859TIP3   OH227067   4.798   4.399  14.489 -0.0024 -0.0655 -0.2007
 1859TIP3    H127068   4.744   4.320  14.486  2.6863 -2.1643  0.9019
 1859TIP3    H227069   4.775   4.441  14.572 -0.0833 -0.8668  0.1982
 1860TIP3   OH227070   6.627   3.293  11.661  0.2454  0.3754 -0.1118
 1860TIP3    H127071   6.720   3.292  11.642  0.8879  1.5860  2.4434
 1860TIP3    H227072   6.600   3.383  11.643 -0.1103  0.3674  0.3461
 1861TIP3   OH227073   1.527   2.241  13.810  0.0903 -0.0434 -0.0940
 1861TIP3    H127074   1.603   2.224  13.866  0.7732 -0.6912 -1.1795
 1861TIP3    H227075   1.565   2.270  13.727 -0.8261 -0.9776 -0.8597
 1862TIP3   OH227076   0.516   6.086   1.367 -0.1198  0.0524 -0.0114
 1862TIP3    H127077   0.587   6.144   1.339 -0.5889  0.9162  0.5328
 1862TIP3    H227078   0.456   6.083   1.292 -0.8335  1.4925  0.4546
 1863TIP3   OH227079   6.690   3.131  14.853  0.6669 -0.0414 -0.6828
 1863TIP3    H127080   6.680   3.168  14.765 -0.2745  0.8779 -0.2035
 1863TIP3    H227081   6.785   3.124  14.865  0.8622  1.4176 -1.1435
 1864TIP3   OH227082   3.750   4.814   1.163 -0.2094 -0.6258  0.6001
 1864TIP3    H127083   3.698   4.810   1.244 -0.2731 -0.6268  0.5592
 1864TIP3    H227084   3.824   4.872   1.185 -1.6221  1.5772 -0.1116
 1865TIP3   OH227085   1.155   1.886   4.562 -0.0941 -0.4129  0.6262
 1865TIP3    H127086   1.136   1.836   4.483 -0.0470  1.0499 -0.3502
 1865TIP3    H227087   1.204   1.826   4.617 -1.6189 -2.0403  0.3037
 1866TIP3   OH227088   6.557   5.043  12.910 -0.4367 -0.6746  0.3651
 1866TIP3    H127089   6.604   5.049  12.993  0.1344  0.7917 -0.0396
 1866TIP3    H227090   6.602   4.973  12.862  0.7316  0.0472  0.3819
 1867TIP3   OH227091   2.646   6.815   5.539 -0.3820  0.1523 -0.4142
 1867TIP3    H127092   2.614   6.725   5.527  2.4064 -1.0473  0.3979
 1867TIP3    H227093   2.619   6.838   5.628 -3.5717  1.3611 -1.5148
 1868TIP3   OH227094   2.168   2.990  13.005 -0.5858 -0.2423 -0.0188
 1868TIP3    H127095   2.222   2.981  12.927 -0.6112 -1.6376  0.0909
 1868TIP3    H227096   2.188   2.911  13.057  0.4111  1.2551  2.0078
 1869TIP3   OH227097   0.759   1.665  15.364  0.3761  0.5879  0.4810
 1869TIP3    H127098   0.784   1.732  15.301 -0.7490  0.0630 -0.5492
 1869TIP3    H227099   0.828   1.668  15.431  0.5073  2.5510  0.3095
 1870TIP3   OH227100   5.017   5.966   3.413 -0.5257  0.5756  0.0635
 1870TIP3    H127101   5.023   6.019   3.492 -1.5154 -0.3820  0.8190
 1870TIP3    H227102   5.105   5.932   3.400 -0.3930  0.6040  0.8574
 1871TIP3   OH227103   6.618   2.427   4.354 -0.3241  0.1549  0.6994
 1871TIP3    H127104   6.645   2.412   4.445 -0.2580  2.6260  1.1597
 1871TIP3    H227105   6.549   2.493   4.361 -0.1313  0.5822 -1.0767
 1872TIP3   OH227106   6.630   1.453   0.125 -0.0020 -0.7568  0.2077
 1872TIP3    H127107   6.637   1.408   0.041 -0.1158 -0.1750 -0.1243
 1872TIP3    H227108   6.721   1.463   0.154  0.2419  1.0552 -0.9698
 1873TIP3   OH227109   2.817   2.418  14.913 -0.2914  0.3483  0.4733
 1873TIP3    H127110   2.837   2.485  14.978  1.1116  0.6075 -0.1712
 1873TIP3    H227111   2.799   2.468  14.833 -0.1137 -0.0094  0.2088
 1874TIP3   OH227112   6.126   2.559   4.773  0.4726 -0.5193  0.3473
 1874TIP3    H127113   6.188   2.619   4.816  0.0489  0.2279 -0.0719
 1874TIP3    H227114   6.084   2.513   4.846  1.7372 -1.2783  0.6326
 1875TIP3   OH227115   0.103   1.573  14.679 -0.8015  0.5946 -0.5303
 1875TIP3    H127116   0.054   1.606  14.754  1.0163 -1.9096  1.9855
 1875TIP3    H227117   0.036   1.536  14.621 -2.1358 -0.8687  1.7787
 1876TIP3   OH227118   1.665   3.424  11.534  0.3778  0.0175  0.3835
 1876TIP3    H127119   1.691   3.442  11.624 -0.3031 -0.2163  0.6310
 1876TIP3    H227120   1.678   3.507  11.488 -1.9064  0.9754  1.3238
 1877TIP3   OH227121   2.097   3.215   4.851 -0.2875 -0.6010 -0.6994
 1877TIP3    H127122   2.157   3.172   4.791 -2.9518 -2.9905 -1.8819
 1877TIP3    H227123   2.040   3.267   4.794 -0.9294 -0.4056  0.1061
 1878TIP3   OH227124   5.093   2.870   0.130 -0.2261 -0.1893  0.0199
 1878TIP3    H127125   5.002   2.882   0.104  0.0708  1.8333 -0.2660
 1878TIP3    H227126   5.130   2.813   0.063 -0.9685  0.0179 -0.5772
 1879TIP3   OH227127   5.119   3.377  14.616 -0.3078  0.3410 -0.1522
 1879TIP3    H127128   5.071   3.413  14.690  1.7626  1.5740  0.7056
 1879TIP3    H227129   5.056   3.374  14.545 -1.6997  1.6278  0.9667
 1880TIP3   OH227130   6.758   4.441  14.248 -0.0718  0.1460  0.5175
 1880TIP3    H127131   6.761   4.411  14.339 -1.9941  1.1399  0.9709
 1880TIP3    H227132   6.684   4.394  14.209 -0.8660  1.5574  0.2321
 1881TIP3   OH227133   5.921   1.760  12.673 -0.0964  0.1530 -0.5985
 1881TIP3    H127134   6.016   1.755  12.684 -0.2465 -2.4470  0.4505
 1881TIP3    H227135   5.902   1.704  12.598 -0.7553  1.5983 -1.5554
 1882TIP3   OH227136   1.528   4.182  16.240  0.1869  0.0916  0.3180
 1882TIP3    H127137   1.610   4.217  16.204  0.0577 -1.5195 -1.7431
 1882TIP3    H227138   1.465   4.253  16.229  1.0260  0.9489  0.8752
 1883TIP3   OH227139   1.098   3.514   6.466  0.1541  0.1499 -0.6933
 1883TIP3    H127140   1.042   3.549   6.397  0.5169 -0.7070 -1.4564
 1883TIP3    H227141   1.183   3.555   6.450  0.3812 -0.4613 -1.1196
 1884TIP3   OH227142   5.269   5.956   4.622  0.3851 -0.5676  0.6213
 1884TIP3    H127143   5.297   5.969   4.531  1.5035 -0.9975  0.8813
 1884TIP3    H227144   5.343   5.987   4.674 -0.7562  0.8772  1.4344
 1885TIP3   OH227145   0.211   3.523  16.670 -0.5192 -0.0870 -0.6189
 1885TIP3    H127146   0.207   3.606  16.718 -1.1000  0.0734 -0.9338
 1885TIP3    H227147   0.172   3.459  16.729 -0.5866 -0.0262 -0.5973
 1886TIP3   OH227148   1.097   0.003  15.075 -0.7563  0.3307  0.1296
 1886TIP3    H127149   1.130   0.093  15.078 -0.2559  0.1750  3.6383
 1886TIP3    H227150   1.174  -0.050  15.052 -0.7676  0.6502 -0.7029
 1887TIP3   OH227151   4.114   0.910   1.506  0.2165 -0.1244  0.6268
 1887TIP3    H127152   4.166   0.945   1.433  0.9196  0.5684  1.4355
 1887TIP3    H227153   4.024   0.936   1.487  0.2672 -0.6549 -0.3960
 1888TIP3   OH227154   2.362   6.690  12.567 -0.6276  0.3745  0.1796
 1888TIP3    H127155   2.402   6.766  12.611 -0.5320  0.0148  0.7204
 1888TIP3    H227156   2.437   6.637  12.539 -0.7033  0.3362  0.0488
 1889TIP3   OH227157   0.978   2.027  12.171 -0.5550 -0.3689  0.1331
 1889TIP3    H127158   1.014   1.967  12.237 -0.0646  0.3595  0.5503
 1889TIP3    H227159   1.042   2.024  12.099 -1.3475 -1.5548 -0.5663
 1890TIP3   OH227160   6.016   5.466   3.328 -0.2140  0.2834  0.2860
 1890TIP3    H127161   6.038   5.453   3.236 -0.1909 -0.7853  0.4311
 1890TIP3    H227162   5.936   5.415   3.340  0.2084 -0.2139  1.0408
 1891TIP3   OH227163   6.548   1.774  11.805  0.0949  0.1043 -0.1282
 1891TIP3    H127164   6.602   1.851  11.787  1.0931 -0.2493  1.1481
 1891TIP3    H227165   6.585   1.705  11.751 -0.9117  0.5383 -1.4071
 1892TIP3   OH227166   3.628   4.609  15.700  0.1521  0.3715  0.2502
 1892TIP3    H127167   3.537   4.641  15.696 -0.0923 -0.3840 -0.6206
 1892TIP3    H227168   3.622   4.527  15.749  0.0334 -0.6640 -1.4131
 1893TIP3   OH227169   5.781   2.580  14.203 -0.0407 -0.1974 -0.9515
 1893TIP3    H127170   5.806   2.661  14.157  1.8191  1.3371  2.3652
 1893TIP3    H227171   5.859   2.525  14.199  0.7793  0.6516  1.5359
 1894TIP3   OH227172   4.628   3.515  15.633 -0.0195 -0.5210  0.7203
 1894TIP3    H127173   4.715   3.483  15.610  0.0093 -0.2945  0.5101
 1894TIP3    H227174   4.641   3.609  15.648 -0.2398 -0.4734  0.6145
 1895TIP3   OH227175   3.334   1.258  14.623 -0.3360  0.3661  0.0761
 1895TIP3    H127176   3.397   1.247  14.694  0.7071  0.9138 -0.7416
 1895TIP3    H227177   3.380   1.312  14.558 -0.7981 -1.1379 -1.5779
 1896TIP3   OH227178   4.551   0.287  11.835  0.0931 -0.3063  0.4172
 1896TIP3    H127179   4.552   0.193  11.849  0.6090 -0.3040  0.4012
 1896TIP3    H227180   4.631   0.319  11.877  0.6597 -0.0602 -0.8124
 1897TIP3   OH227181   3.200   2.246  14.652  0.4267  0.8723  0.2510
 1897TIP3    H127182   3.201   2.281  14.741 -0.2800  0.2720  0.5006
 1897TIP3    H227183   3.214   2.152  14.663  1.7190  0.9654 -0.3717
 1898TIP3   OH227184   3.613   5.645  12.837 -0.3742  0.2536  0.4989
 1898TIP3    H127185   3.600   5.726  12.788 -0.3231 -0.2736 -0.4134
 1898TIP3    H227186   3.699   5.655  12.878 -0.7721  1.0439  1.1813
 1899TIP3   OH227187   4.059   1.490  12.415 -0.2223 -0.2378  0.1789
 1899TIP3    H127188   4.109   1.572  12.415 -2.6923  1.4321  2.4528
 1899TIP3    H227189   4.049   1.468  12.323  1.3241  1.4607 -0.4652
 1900TIP3   OH227190   0.288   4.133   5.936  0.0783  0.0144  0.9237
 1900TIP3    H127191   0.307   4.107   6.027 -0.3837 -0.9263  0.7579
 1900TIP3    H227192   0.337   4.070   5.883 -1.9005 -1.2646  0.5088
 1901TIP3   OH227193   2.458   0.034   2.428 -0.2973 -0.3293 -0.4266
 1901TIP3    H127194   2.441   0.100   2.496  0.3487  1.3183 -1.7892
 1901TIP3    H227195   2.546   0.055   2.396 -1.0506 -0.2493 -2.6201
 1902TIP3   OH227196   1.729   0.949  17.202 -0.0859  0.4252 -0.3297
 1902TIP3    H127197   1.634   0.957  17.196 -0.2734 -1.5739 -0.6005
 1902TIP3    H227198   1.754   0.899  17.124  1.1481  0.6152 -0.0825
 1903TIP3   OH227199   4.062   5.914  14.838  0.5490 -0.4684 -0.1496
 1903TIP3    H127200   4.027   5.975  14.773  0.6649 -1.1079 -0.8320
 1903TIP3    H227201   3.988   5.895  14.895  0.1211 -0.7827 -0.7929
 1904TIP3   OH227202   5.702   0.893   1.891  0.2505  0.0373  0.1122
 1904TIP3    H127203   5.707   0.925   1.801 -0.0209 -1.2068 -0.3652
 1904TIP3    H227204   5.662   0.965   1.940  1.9832  1.4213 -0.3961
 1905TIP3   OH227205   0.244   5.739   1.393 -0.4662 -0.1519  0.5469
 1905TIP3    H127206   0.161   5.787   1.383 -1.6221 -1.8907  1.3232
 1905TIP3    H227207   0.293   5.759   1.313 -2.5653 -0.8388 -1.0059
 1906TIP3   OH227208   4.391   2.807  14.391  0.6764  0.0475  0.3156
 1906TIP3    H127209   4.379   2.900  14.371  1.4106  0.2841  0.9381
 1906TIP3    H227210   4.445   2.806  14.470  0.6638 -0.9120  0.3244
 1907TIP3   OH227211   2.899   4.572   4.130 -0.1249  0.5578  0.9276
 1907TIP3    H127212   2.973   4.512   4.127  0.4839  1.3149  0.2601
 1907TIP3    H227213   2.914   4.626   4.209 -0.1068  0.5400  0.9359
 1908TIP3   OH227214   4.973   2.122  15.556 -0.0667  0.3682  0.2750
 1908TIP3    H127215   4.942   2.177  15.484  2.4979  0.9207 -0.5233
 1908TIP3    H227216   4.921   2.148  15.631 -1.1753  1.5098 -0.8446
 1909TIP3   OH227217   6.508   5.907   4.842  0.3790  0.0536 -0.9722
 1909TIP3    H127218   6.437   5.970   4.835 -0.0043  0.1156  2.1399
 1909TIP3    H227219   6.478   5.831   4.792 -1.7256  0.2526 -0.1096
 1910TIP3   OH227220   0.090   4.597  11.973 -0.0181  0.6401  0.3245
 1910TIP3    H127221   0.146   4.660  11.928  0.6611 -0.5908 -0.6094
 1910TIP3    H227222   0.151   4.540  12.021 -0.1334 -2.1581 -2.5068
 1911TIP3   OH227223   0.671   0.833   4.154  0.2315 -0.9508 -0.7111
 1911TIP3    H127224   0.622   0.759   4.191  1.5861 -0.9041  1.3414
 1911TIP3    H227225   0.750   0.838   4.207  0.3773  1.7393 -1.0570
 1912TIP3   OH227226   6.568   6.611   0.457  0.3164  0.3880  0.2166
 1912TIP3    H127227   6.637   6.568   0.406  0.9823 -0.8460  2.0181
 1912TIP3    H227228   6.609   6.692   0.489  1.1921 -0.5845  1.7043
 1913TIP3   OH227229   3.405   3.767  10.215 -0.2477 -0.0272 -0.3458
 1913TIP3    H127230   3.498   3.786  10.202  0.7989 -2.8544  1.9138
 1913TIP3    H227231   3.383   3.810  10.298 -0.8631  0.2422 -0.6395
 1914TIP3   OH227232   4.756   5.252  12.977  0.2669  0.5253 -0.1182
 1914TIP3    H127233   4.843   5.245  12.937  1.2294  0.4265  1.8750
 1914TIP3    H227234   4.768   5.311  13.051 -1.4551  0.7901 -0.0136
 1915TIP3   OH227235   1.900   4.913  14.319  0.1583 -0.0876  0.0445
 1915TIP3    H127236   1.902   4.958  14.235 -1.8009  1.0433  0.5422
 1915TIP3    H227237   1.807   4.910  14.343  0.3094 -3.2713  0.6829
 1916TIP3   OH227238   0.904   0.624   3.776 -0.3103 -0.6151  0.3264
 1916TIP3    H127239   0.831   0.618   3.714 -0.2191 -2.0817  0.3354
 1916TIP3    H227240   0.982   0.612   3.722 -0.1498 -0.4670  0.5239
 1917TIP3   OH227241   2.460   4.141   1.464 -0.0840  0.4828 -0.4840
 1917TIP3    H127242   2.546   4.162   1.500 -0.6992  2.5373 -0.1058
 1917TIP3    H227243   2.467   4.048   1.439  1.8851  0.3118  0.4796
 1918TIP3   OH227244   1.181   5.119  16.089 -0.1886 -0.5124  0.2959
 1918TIP3    H127245   1.108   5.150  16.036  0.9297  1.4835 -0.2277
 1918TIP3    H227246   1.142   5.089  16.170 -1.5599  1.4245  0.4255
 1919TIP3   OH227247   5.124   0.026   1.457 -0.2878 -0.2146  0.2284
 1919TIP3    H127248   5.054  -0.036   1.475 -3.1104  2.3704 -0.8160
 1919TIP3    H227249   5.138   0.072   1.539 -1.0708  0.3565  0.0579
 1920TIP3   OH227250   1.055   4.312  16.441 -0.0823  0.3055  0.2976
 1920TIP3    H127251   1.141   4.350  16.424 -0.3004  0.3379 -0.8037
 1920TIP3    H227252   0.993   4.383  16.425 -0.3964 -0.0971 -0.3078
 1921TIP3   OH227253   3.812   0.095  11.959  0.4958 -0.0087  0.7129
 1921TIP3    H127254   3.827   0.005  11.986  2.3293 -0.0462 -0.3078
 1921TIP3    H227255   3.864   0.148  12.019  1.4649  0.1705 -0.2525
 1922TIP3   OH227256   3.398   0.312   1.000 -0.3995 -0.1076 -0.0892
 1922TIP3    H127257   3.328   0.357   0.953 -0.3500  0.7234  0.6003
 1922TIP3    H227258   3.352   0.261   1.067 -0.4613 -1.1790 -0.9266
 1923TIP3   OH227259   0.552   4.987  11.802  0.3880  0.1435  0.4948
 1923TIP3    H127260   0.550   5.010  11.710 -1.4094 -0.1454  0.4314
 1923TIP3    H227261   0.644   4.998  11.828  0.5596  2.1792 -0.8011
 1924TIP3   OH227262   4.196   3.780  13.666  0.4459 -0.1073 -0.3969
 1924TIP3    H127263   4.192   3.740  13.752 -2.2322  0.2501 -0.2655
 1924TIP3    H227264   4.289   3.778  13.642  1.0405 -1.6317  1.7898
 1925TIP3   OH227265   2.859   1.490  14.649 -0.2448 -0.2820 -0.5828
 1925TIP3    H127266   2.767   1.469  14.662 -0.1588 -2.0214 -2.2639
 1925TIP3    H227267   2.863   1.533  14.564  0.5242 -0.6677 -0.7562
 1926TIP3   OH227268   6.358   1.972  11.740 -0.5813 -0.1275  0.0431
 1926TIP3    H127269   6.354   1.964  11.644  2.7528  0.7188 -0.2700
 1926TIP3    H227270   6.414   1.899  11.767  1.0978  1.4390  0.9519
 1927TIP3   OH227271   6.691   1.457   1.405  0.0153  0.5358 -0.5009
 1927TIP3    H127272   6.741   1.526   1.448 -0.7777  1.1022 -0.4669
 1927TIP3    H227273   6.618   1.439   1.465 -0.3430  0.3774 -0.9795
 1928TIP3   OH227274   3.295   0.679   5.955  0.1227  0.2396 -0.6310
 1928TIP3    H127275   3.222   0.617   5.964  0.1906  0.0633 -1.2989
 1928TIP3    H227276   3.289   0.733   6.034 -0.6474  0.1323 -0.6049
 1929TIP3   OH227277   2.308   3.712  15.822 -0.4464  1.4663 -0.0126
 1929TIP3    H127278   2.402   3.709  15.844 -0.8676 -0.7783  1.9756
 1929TIP3    H227279   2.304   3.761  15.740  2.6117  0.6012 -0.8154
 1930TIP3   OH227280   4.958   4.203   1.498  0.0069  0.0784 -0.3759
 1930TIP3    H127281   4.955   4.124   1.444 -1.9860 -0.6802  0.7176
 1930TIP3    H227282   4.983   4.171   1.585 -2.8846  0.1735  0.6241
 1931TIP3   OH227283   1.653   2.644  11.245 -0.2675 -0.1008 -0.1008
 1931TIP3    H127284   1.614   2.590  11.176  2.7506 -1.7649 -0.6812
 1931TIP3    H227285   1.697   2.715  11.199 -0.8446  0.5694  0.3670
 1932TIP3   OH227286   3.646   2.587   1.123  0.5344  0.7916  0.5046
 1932TIP3    H127287   3.628   2.548   1.038 -0.5774 -1.3441  1.6150
 1932TIP3    H227288   3.738   2.568   1.139  0.7324  1.1466 -0.1722
 1933TIP3   OH227289   5.202   1.719  16.428  0.3695  0.1467 -0.2567
 1933TIP3    H127290   5.127   1.667  16.398  1.5957 -1.3825 -0.7673
 1933TIP3    H227291   5.278   1.679  16.386  1.5709  1.2278  0.7976
 1934TIP3   OH227292   5.558   6.414  16.054 -0.5787  0.4043 -0.6910
 1934TIP3    H127293   5.511   6.489  16.091 -2.6922 -1.8639  1.5649
 1934TIP3    H227294   5.624   6.392  16.120 -0.9157 -0.5529 -0.6617
 1935TIP3   OH227295   3.864   1.779  12.331 -0.4273 -0.5055  0.4277
 1935TIP3    H127296   3.900   1.735  12.254  2.4871 -0.0677  1.4027
 1935TIP3    H227297   3.855   1.709  12.396  0.5591 -0.3231  0.7789
 1936TIP3   OH227298   2.455   0.136   5.760 -0.4072  0.8706  0.4064
 1936TIP3    H127299   2.505   0.104   5.835 -1.4979 -0.0212  0.7747
 1936TIP3    H227300   2.510   0.204   5.722  1.5363 -0.7213  0.2095
 1937TIP3   OH227301   1.868   3.049   3.854  0.0254  0.6389  0.0984
 1937TIP3    H127302   1.789   3.070   3.805  0.7794 -0.4887 -1.7285
 1937TIP3    H227303   1.877   3.120   3.917 -0.3078  2.9617 -2.2885
 1938TIP3   OH227304   3.978   0.022   5.576  0.1050 -0.5229  0.9332
 1938TIP3    H127305   4.061   0.020   5.528 -0.3317 -1.0629  0.1679
 1938TIP3    H227306   3.916  -0.020   5.517 -0.9604  0.8523  1.0413
 1939TIP3   OH227307   5.434   1.718   0.703 -0.1434 -0.0286  0.1168
 1939TIP3    H127308   5.344   1.687   0.714 -0.4700  0.1129 -1.7319
 1939TIP3    H227309   5.474   1.709   0.789 -2.9000  3.1313  1.9700
 1940TIP3   OH227310   5.879   0.058   0.080 -0.2457 -0.1077 -0.8195
 1940TIP3    H127311   5.875   0.004   0.160 -3.3332 -0.0314 -0.7992
 1940TIP3    H227312   5.836   0.004   0.014  0.3347  0.7207 -1.8871
 1941TIP3   OH227313   6.819   3.023   2.565 -0.3013 -0.3210  0.4433
 1941TIP3    H127314   6.867   3.072   2.632  0.2322 -0.6790  0.3313
 1941TIP3    H227315   6.874   3.031   2.487 -0.7656 -0.1672  0.1288
 1942TIP3   OH227316   0.604   3.466   0.006  0.3369 -0.2023  0.0925
 1942TIP3    H127317   0.673   3.522   0.040 -0.0859  1.3386 -1.4421
 1942TIP3    H227318   0.528   3.485   0.061  0.7869 -1.0602  1.0545
 1943TIP3   OH227319   6.204   4.916  17.028 -0.1159 -0.3313 -0.2477
 1943TIP3    H127320   6.152   4.903  17.107  2.0764 -0.1378  1.2997
 1943TIP3    H227321   6.261   4.839  17.024  1.8237  1.0185  0.0491
 1944TIP3   OH227322   0.875   0.389  16.504  0.0378 -0.2217  0.0439
 1944TIP3    H127323   0.813   0.457  16.477  0.5014  0.4531  0.6144
 1944TIP3    H227324   0.961   0.425  16.482  0.2131 -1.9626 -2.5675
 1945TIP3   OH227325   3.619   4.080   4.852  0.5263  0.2029 -0.0198
 1945TIP3    H127326   3.616   3.985   4.842 -0.5299  0.0042  1.6834
 1945TIP3    H227327   3.531   4.110   4.831  0.6080  0.6917  0.2934
 1946TIP3   OH227328   2.541   6.765  13.330  0.0951  0.1333 -0.1507
 1946TIP3    H127329   2.570   6.766  13.421  1.1017 -0.0746 -0.4556
 1946TIP3    H227330   2.510   6.675  13.315 -0.2268  0.2116  0.0218
 1947TIP3   OH227331   6.633   5.317   2.599 -0.3606  0.1448 -0.4568
 1947TIP3    H127332   6.620   5.349   2.688  0.6549  1.1647 -0.6552
 1947TIP3    H227333   6.723   5.286   2.598  0.1037  1.4541 -1.4993
 1948TIP3   OH227334   5.106   3.122  11.856  0.0979  0.4828  0.7721
 1948TIP3    H127335   5.201   3.108  11.851 -0.0895 -0.6331 -2.7133
 1948TIP3    H227336   5.068   3.039  11.827 -1.8992  1.2688  0.9836
 1949TIP3   OH227337   0.987   2.473  16.886 -0.9146 -0.0389 -0.0253
 1949TIP3    H127338   0.973   2.534  16.959 -0.3559 -0.6776  0.6219
 1949TIP3    H227339   0.913   2.490  16.828 -0.3960  1.7756 -0.2260
 1950TIP3   OH227340   0.152   2.882   2.108 -0.3422 -0.0023  0.6634
 1950TIP3    H127341   0.188   2.842   2.187  2.0920 -2.6287 -1.5365
 1950TIP3    H227342   0.061   2.853   2.106 -0.3383 -0.2184  2.2899
 1951TIP3   OH227343   4.036   5.692   0.635  0.0122 -0.4077 -0.0307
 1951TIP3    H127344   3.968   5.760   0.640  1.5145  1.0546  1.9442
 1951TIP3    H227345   4.014   5.631   0.704 -0.0233 -0.6528 -0.2585
 1952TIP3   OH227346   1.859   4.363  13.866  0.3103 -0.5831 -0.3012
 1952TIP3    H127347   1.868   4.450  13.828 -2.0563 -0.3893 -0.5831
 1952TIP3    H227348   1.870   4.376  13.960  1.4956 -0.2763 -0.4671
 1953TIP3   OH227349   2.309   3.332   1.276 -0.5810 -0.3234  0.0911
 1953TIP3    H127350   2.272   3.260   1.328 -0.4991 -0.4557 -0.0340
 1953TIP3    H227351   2.382   3.364   1.328  1.3707 -2.3488 -1.2296
 1954TIP3   OH227352   1.928   0.853  11.105 -0.5100 -0.4099  0.2634
 1954TIP3    H127353   1.838   0.866  11.133 -0.9131  0.9837 -1.5221
 1954TIP3    H227354   1.978   0.922  11.149 -0.4497 -0.6583  0.5897
 1955TIP3   OH227355   3.934   0.278  17.029  0.7479  0.3449 -0.2536
 1955TIP3    H127356   3.908   0.316  17.113  0.1979  0.2044 -0.3525
 1955TIP3    H227357   3.960   0.353  16.976 -0.8663  0.6859 -0.6374
 1956TIP3   OH227358   2.989   4.357   0.342  0.0366  0.8215  0.0235
 1956TIP3    H127359   2.937   4.290   0.387  0.7348 -1.7560 -2.7266
 1956TIP3    H227360   2.929   4.393   0.276  1.1090 -1.0022 -2.0648
 1957TIP3   OH227361   3.604   0.742  12.242 -0.2515  0.1097 -0.0677
 1957TIP3    H127362   3.647   0.734  12.328 -0.2278 -0.9040 -0.1537
 1957TIP3    H227363   3.513   0.718  12.259 -0.8330  2.2820  0.1191
 1958TIP3   OH227364   1.213   5.862  14.398  0.0588  0.0452 -0.0164
 1958TIP3    H127365   1.296   5.826  14.426 -0.1488 -0.1405  0.3688
 1958TIP3    H227366   1.210   5.950  14.436  0.0369  0.0150  0.0514
 1959TIP3   OH227367   3.821   5.093   4.384  0.3628  0.1696 -0.8146
 1959TIP3    H127368   3.858   5.083   4.296 -1.5977 -1.9580 -1.4921
 1959TIP3    H227369   3.897   5.086   4.442  1.4652 -0.3514 -2.2602
 1960TIP3   OH227370   0.154   6.779  13.784  0.0236 -0.3720 -0.4264
 1960TIP3    H127371   0.082   6.716  13.788  0.3239 -0.9086 -2.5916
 1960TIP3    H227372   0.163   6.800  13.692 -0.0761  2.9380  0.1962
 1961TIP3   OH227373   3.706   2.383   3.766 -0.0870 -0.0174 -0.0435
 1961TIP3    H127374   3.613   2.365   3.754  0.0203  0.4890 -1.9342
 1961TIP3    H227375   3.742   2.386   3.677  1.7604 -0.2915  0.6430
 1962TIP3   OH227376   2.354   6.548  13.246 -0.0704  0.1967  0.2274
 1962TIP3    H127377   2.284   6.539  13.181  0.1727  1.5998 -0.2608
 1962TIP3    H227378   2.434   6.553  13.194  0.1394  1.1901  0.6219
 1963TIP3   OH227379   1.164   4.761  17.024  0.0334  0.1317 -0.3515
 1963TIP3    H127380   1.075   4.736  17.046 -0.5928  1.8307 -0.8669
 1963TIP3    H227381   1.157   4.808  16.940  1.5219 -0.4719 -0.8695
 1964TIP3   OH227382   5.753   1.967   1.642 -0.3165  0.5473  0.3051
 1964TIP3    H127383   5.732   1.919   1.722  0.5658  0.9214  0.7805
 1964TIP3    H227384   5.757   2.059   1.670 -0.4798  0.7362 -0.2721
 1965TIP3   OH227385   0.996   0.717   0.517 -0.0432 -0.2269 -0.3441
 1965TIP3    H127386   0.907   0.705   0.484  0.2660 -2.5344 -0.5346
 1965TIP3    H227387   1.008   0.646   0.580  1.6985 -0.0572 -0.4365
 1966TIP3   OH227388   4.066   3.094   3.961 -0.2371  0.3805 -0.2411
 1966TIP3    H127389   4.022   3.178   3.950 -1.9677 -0.2697  1.3147
 1966TIP3    H227390   4.119   3.105   4.040  0.7718  0.4716 -0.9095
 1967TIP3   OH227391   1.333   2.494  16.180 -0.5745 -0.8397  0.4495
 1967TIP3    H127392   1.358   2.484  16.272 -2.7711 -0.4373  1.1410
 1967TIP3    H227393   1.351   2.408  16.141  0.3880 -1.0121  1.2247
 1968TIP3   OH227394   1.313   4.824  15.421  0.6403 -0.1678 -0.8077
 1968TIP3    H127395   1.406   4.813  15.402  1.1374  2.0142  0.0240
 1968TIP3    H227396   1.310   4.854  15.512 -0.9280 -0.6310 -0.6649
 1969TIP3   OH227397   2.964   2.544   0.321  0.0819 -0.4608  0.0697
 1969TIP3    H127398   2.896   2.610   0.305 -0.1810 -0.6995  0.1943
 1969TIP3    H227399   2.917   2.461   0.316  0.6600 -0.7259 -1.4730
 1970TIP3   OH227400   4.018   5.471  15.751 -0.1139  0.1335 -0.3199
 1970TIP3    H127401   4.100   5.466  15.702  0.7436  0.9077  0.9818
 1970TIP3    H227402   3.999   5.565  15.758 -1.5937 -0.0474 -1.3290
 1971TIP3   OH227403   5.553   0.238   1.704 -0.3367  0.6384  0.6681
 1971TIP3    H127404   5.476   0.185   1.724  0.2218 -1.9987 -3.0449
 1971TIP3    H227405   5.616   0.215   1.772 -1.9954  1.1329  2.4687
 1972TIP3   OH227406   3.224   0.490   6.238 -0.4970 -0.1123 -0.4063
 1972TIP3    H127407   3.295   0.552   6.256  0.1536 -1.0971  0.5968
 1972TIP3    H227408   3.177   0.483   6.321  0.0327 -1.6659 -0.2117
 1973TIP3   OH227409   4.887   0.526  12.760  0.3648  0.0128  0.1036
 1973TIP3    H127410   4.852   0.524  12.671 -1.6470  1.3391  0.7889
 1973TIP3    H227411   4.973   0.568  12.751 -1.2719  3.5464 -0.8734
 1974TIP3   OH227412   2.106   3.776  13.290  0.0769 -0.9345  0.0799
 1974TIP3    H127413   2.065   3.740  13.211  0.9571 -1.6683 -0.0596
 1974TIP3    H227414   2.086   3.713  13.359 -1.8630  0.3689  0.8151
 1975TIP3   OH227415   3.677   5.851   3.513  0.3343  1.0760 -0.1858
 1975TIP3    H127416   3.675   5.935   3.467  0.2367  0.7535 -0.7961
 1975TIP3    H227417   3.716   5.870   3.598  2.3035  1.3706 -1.0968
 1976TIP3   OH227418   5.911   4.051   2.234  0.1779  0.4377 -0.3644
 1976TIP3    H127419   5.853   4.102   2.290  0.2857 -1.2977  1.4402
 1976TIP3    H227420   5.972   4.116   2.197 -1.5012  1.9738 -0.5558
 1977TIP3   OH227421   4.510   3.757  10.809  0.3843  0.1520  0.0993
 1977TIP3    H127422   4.599   3.724  10.794  1.0592  1.8812  0.1576
 1977TIP3    H227423   4.513   3.849  10.785 -1.2422  0.4050  0.7100
 1978TIP3   OH227424   3.516   3.905   2.100 -0.4630 -0.1690 -0.4005
 1978TIP3    H127425   3.458   3.862   2.037  1.5024 -1.4844 -1.4181
 1978TIP3    H227426   3.550   3.833   2.153 -0.5164  0.6968  0.8231
 1979TIP3   OH227427   5.804   3.656   2.828 -0.0980 -0.3546 -0.2624
 1979TIP3    H127428   5.739   3.720   2.800 -2.0847 -2.2861 -0.2870
 1979TIP3    H227429   5.760   3.572   2.821  1.4613 -1.5277  2.4009
 1980TIP3   OH227430   2.865   0.636   3.921  0.2116 -0.1585  0.2320
 1980TIP3    H127431   2.937   0.576   3.904  0.8680 -0.5357  3.5724
 1980TIP3    H227432   2.787   0.581   3.925  0.5794 -0.6141  1.7371
 1981TIP3   OH227433   0.913   4.517   1.438  0.4097  0.3057 -0.0861
 1981TIP3    H127434   0.915   4.450   1.370  0.9369  0.6635 -0.4331
 1981TIP3    H227435   0.834   4.568   1.419 -0.0390 -0.2559  0.2293
 1982TIP3   OH227436   4.178   0.848  15.027 -0.2178 -0.2204 -0.3692
 1982TIP3    H127437   4.177   0.942  15.009 -1.0786  0.0850  1.1804
 1982TIP3    H227438   4.201   0.809  14.942 -0.2904  1.3392 -1.1562
 1983TIP3   OH227439   1.117   2.016   4.191 -0.0241 -0.2486  0.3047
 1983TIP3    H127440   1.059   2.092   4.187  0.4225  0.0667 -0.8773
 1983TIP3    H227441   1.059   1.941   4.204 -0.5466  0.2222  0.6927
 1984TIP3   OH227442   5.585   1.579  15.889 -0.2495 -0.3318  0.5182
 1984TIP3    H127443   5.651   1.633  15.933  0.3276 -0.6625  0.0901
 1984TIP3    H227444   5.517   1.565  15.955  0.2132 -0.1574  1.0428
 1985TIP3   OH227445   2.467   1.104  11.571  0.3302  0.2934  0.2159
 1985TIP3    H127446   2.513   1.188  11.570 -1.6082  1.4164 -0.3269
 1985TIP3    H227447   2.528   1.043  11.531  1.3939  1.6914 -0.3797
 1986TIP3   OH227448   1.837   2.129   5.375  0.3410  0.1600 -0.3818
 1986TIP3    H127449   1.791   2.116   5.458 -1.4543 -2.1580 -1.6241
 1986TIP3    H227450   1.875   2.043   5.355  0.7010  0.6574 -1.9801
 1987TIP3   OH227451   2.659   0.856  12.929 -0.5335 -0.5542  0.3149
 1987TIP3    H127452   2.578   0.893  12.894 -0.1900 -0.7504 -0.7448
 1987TIP3    H227453   2.709   0.931  12.961 -1.0649 -0.4195  0.8355
 1988TIP3   OH227454   4.770   4.219  12.748  0.1869  0.2717 -0.0469
 1988TIP3    H127455   4.722   4.272  12.811 -0.3217 -0.5937  0.3211
 1988TIP3    H227456   4.705   4.158  12.713  1.2290 -1.9189  1.5489
 1989TIP3   OH227457   5.111   5.871  17.249  0.2342 -0.0529  0.1411
 1989TIP3    H127458   5.100   5.846  17.158  0.7412  0.5697 -0.0942
 1989TIP3    H227459   5.196   5.914  17.252 -0.8551  2.2304  0.4011
 1990TIP3   OH227460   6.020   3.630   0.213  0.4918 -0.1853  0.1389
 1990TIP3    H127461   5.988   3.544   0.239  0.5722 -0.6855 -1.3250
 1990TIP3    H227462   6.091   3.650   0.275 -0.2436 -0.6712  1.1564
 1991TIP3   OH227463   6.753   6.148   3.453  0.1538 -0.0317  0.7548
 1991TIP3    H127464   6.668   6.131   3.492  0.1783  1.0274  1.3050
 1991TIP3    H227465   6.794   6.062   3.445 -0.8955 -0.5317  0.6373
 1992TIP3   OH227466   4.743   0.668  17.203  0.2676 -0.6863 -0.8096
 1992TIP3    H127467   4.814   0.716  17.246 -0.6318 -0.0787  0.0415
 1992TIP3    H227468   4.764   0.673  17.110  0.7766  0.4320 -0.6559
 1993TIP3   OH227469   6.012   4.861  14.677 -0.3305  0.0486 -0.1813
 1993TIP3    H127470   5.927   4.836  14.640 -0.3965 -2.7179  1.6317
 1993TIP3    H227471   5.990   4.901  14.761  0.1478 -1.7638  0.8434
 1994TIP3   OH227472   2.398   2.844   4.914  0.4957 -0.2529 -0.1610
 1994TIP3    H127473   2.446   2.927   4.915 -0.1673  0.1333  1.0279
 1994TIP3    H227474   2.347   2.844   4.995  2.1275 -2.7693  1.0010
 1995TIP3   OH227475   5.789   4.777   1.756 -0.5587  0.5766  0.4193
 1995TIP3    H127476   5.728   4.732   1.815 -0.8631  2.1021  1.3240
 1995TIP3    H227477   5.867   4.792   1.809  0.3614 -0.7068 -0.5141
 1996TIP3   OH227478   4.139   2.357  14.555  0.4218 -0.4256 -0.6504
 1996TIP3    H127479   4.199   2.419  14.595 -1.8626  0.3404  1.9564
 1996TIP3    H227480   4.175   2.271  14.577  1.5058 -0.0073 -0.7444
 1997TIP3   OH227481   3.889   3.987  12.948 -0.6904 -0.3595  0.4145
 1997TIP3    H127482   3.804   3.980  12.905  0.7336 -1.8286 -2.4455
 1997TIP3    H227483   3.874   4.046  13.021 -4.0161 -0.0902 -0.3352
 1998TIP3   OH227484   2.237   3.249  16.803  0.1551  0.0398  0.2066
 1998TIP3    H127485   2.145   3.269  16.786  0.1333  0.0624  0.3534
 1998TIP3    H227486   2.279   3.259  16.717 -0.2442 -1.5351 -0.2068
 1999TIP3   OH227487   6.704   3.437  13.560 -0.4140  0.0374  0.6318
 1999TIP3    H127488   6.687   3.348  13.530  1.3818 -0.8093  1.9986
 1999TIP3    H227489   6.781   3.430  13.615 -0.2111  2.4621  0.7602
 2000TIP3   OH227490   5.724   6.161  13.891  0.0293 -0.4925 -0.1669
 2000TIP3    H127491   5.631   6.172  13.872 -0.3877 -0.8124  1.5046
 2000TIP3    H227492   5.738   6.066  13.887 -0.3474 -0.6999  2.0370
 2001TIP3   OH227493   3.196   0.229  13.148 -0.4746 -0.2601  0.0957
 2001TIP3    H127494   3.209   0.310  13.198  0.7042 -0.0019 -0.5913
 2001TIP3    H227495   3.260   0.234  13.077 -2.7314 -0.1757 -2.0395
 2002TIP3   OH227496   6.740   2.216   3.657 -0.6785 -0.0394  0.1518
 2002TIP3    H127497   6.812   2.235   3.596 -0.7141  0.4021  0.2470
 2002TIP3    H227498   6.784   2.192   3.739 -0.6361 -0.2518  0.0689
 2003TIP3   OH227499   4.160   2.096  11.962 -0.0371 -0.2146 -0.5458
 2003TIP3    H127500   4.140   2.025  11.901  0.3080  1.0738 -2.2289
 2003TIP3    H227501   4.076   2.137  11.980 -0.1595 -0.6866 -0.0149
 2004TIP3   OH227502   0.233   5.503   2.325 -0.0470  0.0156  0.0046
 2004TIP3    H127503   0.233   5.556   2.405  0.6527  1.6386 -1.0183
 2004TIP3    H227504   0.141   5.480   2.312 -0.6226  2.2341 -0.2622
 2005TIP3   OH227505   0.476   5.433   1.472  0.0065 -0.0564 -0.4459
 2005TIP3    H127506   0.484   5.413   1.566 -0.4341 -1.8605 -0.7458
 2005TIP3    H227507   0.383   5.447   1.458  0.1384  0.8072 -0.5346
 2006TIP3   OH227508   4.773   0.142  12.641 -0.4085  0.4329 -0.1489
 2006TIP3    H127509   4.863   0.121  12.616 -1.3255 -0.8748 -2.7091
 2006TIP3    H227510   4.720   0.117  12.565 -3.1074  0.0008  1.7148
 2007TIP3   OH227511   0.524   2.975  11.173  0.1007  0.2059  0.0722
 2007TIP3    H127512   0.463   2.913  11.134 -0.3127  0.3026  0.5450
 2007TIP3    H227513   0.498   2.979  11.265 -0.3979  1.6686 -0.1051
 2008TIP3   OH227514   6.150   2.447   1.198  0.1174  0.0954  0.2097
 2008TIP3    H127515   6.112   2.513   1.139  1.0070 -0.6581 -1.2536
 2008TIP3    H227516   6.081   2.430   1.262 -1.2806  0.1774 -1.2225
 2009TIP3   OH227517   1.683   3.945   6.352 -0.4273  0.6016 -0.3076
 2009TIP3    H127518   1.641   3.887   6.415 -1.1706  0.6659 -0.7287
 2009TIP3    H227519   1.640   4.030   6.365 -1.1031  0.4469 -1.3660
 2010TIP3   OH227520   0.237   3.128   1.980  0.5904  0.0560 -0.5622
 2010TIP3    H127521   0.208   3.046   2.021 -2.8610  0.6253 -1.6014
 2010TIP3    H227522   0.287   3.100   1.904  0.6895 -1.0618 -0.1068
 2011TIP3   OH227523   4.537   4.255   4.276  0.1101  0.5134 -0.8724
 2011TIP3    H127524   4.509   4.296   4.358  0.9958 -0.9171  0.1827
 2011TIP3    H227525   4.545   4.162   4.297  0.9535  0.2085 -2.4212
 2012TIP3   OH227526   3.476   5.712  17.186 -0.6391 -0.7607  0.5421
 2012TIP3    H127527   3.571   5.708  17.176 -0.7979 -1.3382 -0.9444
 2012TIP3    H227528   3.462   5.724  17.280  0.9547  1.8266  0.5448
 2013TIP3   OH227529   6.611   1.858   3.642 -0.1517  0.1621 -0.0424
 2013TIP3    H127530   6.581   1.939   3.602  0.1939 -0.4293 -1.5807
 2013TIP3    H227531   6.677   1.824   3.582  1.2898 -0.1962  1.6430
 2014TIP3   OH227532   1.184   3.922   4.841  0.0751  0.0014 -0.0215
 2014TIP3    H127533   1.179   3.901   4.748 -0.2525  1.1201 -0.2725
 2014TIP3    H227534   1.094   3.944   4.866 -0.1238 -1.7426  0.9369
 2015TIP3   OH227535   6.790   3.069   1.207  0.0619 -0.5626  0.7484
 2015TIP3    H127536   6.819   3.160   1.208  0.9616 -0.8409  0.8461
 2015TIP3    H227537   6.741   3.060   1.125 -0.9491  0.2708  1.2422
 2016TIP3   OH227538   5.117   5.648   2.422 -0.5449  0.8368  0.1162
 2016TIP3    H127539   5.207   5.665   2.392 -0.4524  0.9848  0.4679
 2016TIP3    H227540   5.122   5.656   2.518 -0.8646  0.5156  0.1617
 2017TIP3   OH227541   2.574   5.956   0.541 -0.3703  0.0494  0.2632
 2017TIP3    H127542   2.658   5.922   0.509 -0.9004 -1.7848  0.6764
 2017TIP3    H227543   2.590   5.978   0.632  0.0066  1.0790 -0.0366
 2018TIP3   OH227544   2.510   6.774   0.591  0.0787 -0.5600  0.5844
 2018TIP3    H127545   2.458   6.846   0.554 -1.1507 -1.3232  0.7772
 2018TIP3    H227546   2.503   6.704   0.526  2.0109 -0.2550 -0.0366
 2019TIP3   OH227547   3.595   4.122   6.261  0.2304 -0.0403  0.6194
 2019TIP3    H127548   3.629   4.206   6.231 -1.0188  0.1237 -0.4244
 2019TIP3    H227549   3.508   4.142   6.297  0.4116 -0.7134  1.4844
 2020TIP3   OH227550   1.805   3.196   2.130  0.7371 -0.0197  0.1991
 2020TIP3    H127551   1.717   3.202   2.166  0.8178 -0.0733  0.4046
 2020TIP3    H227552   1.792   3.163   2.041  0.5297  0.2257  0.1344
 2021TIP3   OH227553   4.991   4.652   3.011 -0.5701 -0.3937  0.3381
 2021TIP3    H127554   4.951   4.623   2.929 -0.1841  0.2806 -0.0973
 2021TIP3    H227555   5.080   4.677   2.986 -0.6402  0.3794  0.8521
 2022TIP3   OH227556   6.607   3.666  16.052 -0.0122 -0.1217  0.0379
 2022TIP3    H127557   6.544   3.602  16.020 -0.2970  0.9159 -1.5705
 2022TIP3    H227558   6.555   3.730  16.100  0.2724 -1.0299  1.6418
 2023TIP3   OH227559   6.348   0.980   2.179 -1.0007  0.5762  0.2819
 2023TIP3    H127560   6.315   1.027   2.255 -1.7707 -2.1808  1.8084
 2023TIP3    H227561   6.417   0.923   2.214 -0.7848 -0.1481 -1.2326
 2024TIP3   OH227562   3.330   0.929  10.721 -0.5731  0.5118  0.5760
 2024TIP3    H127563   3.314   1.019  10.692 -2.1436 -0.3179 -1.3293
 2024TIP3    H227564   3.262   0.913  10.786 -1.5025  0.1096 -0.4756
 2025TIP3   OH227565   1.620   6.571   5.623 -0.3638  0.2369  0.7274
 2025TIP3    H127566   1.647   6.499   5.680 -0.4944 -0.9290 -0.6426
 2025TIP3    H227567   1.700   6.596   5.576 -0.9695 -1.3800 -1.3205
 2026TIP3   OH227568   1.643   5.499   5.472 -0.6620  0.1209 -0.3636
 2026TIP3    H127569   1.704   5.555   5.424  0.4131 -1.5133 -1.0094
 2026TIP3    H227570   1.593   5.454   5.403 -0.5064 -0.7512  0.0775
 2027TIP3   OH227571   5.164   0.808   2.366  0.1328 -0.2116  0.1509
 2027TIP3    H127572   5.259   0.796   2.364  0.2399 -0.0057  2.1335
 2027TIP3    H227573   5.148   0.870   2.437 -1.3732  1.3042 -1.4210
 2028TIP3   OH227574   1.309   5.210   4.861  0.3117 -0.2109  0.6569
 2028TIP3    H127575   1.342   5.120   4.863  3.8092  0.9101  0.4503
 2028TIP3    H227576   1.255   5.217   4.940  0.8330 -2.2073  1.2492
 2029TIP3   OH227577   3.597   1.001  11.091  0.1678 -0.4165  0.4398
 2029TIP3    H127578   3.523   0.951  11.125  1.4964 -0.9099  2.8254
 2029TIP3    H227579   3.610   1.071  11.155  0.2270  1.2476 -1.2715
 2030TIP3   OH227580   3.361   3.798   1.350  0.4360 -0.7619  0.5574
 2030TIP3    H127581   3.417   3.826   1.422  0.4918  0.1881  0.1621
 2030TIP3    H227582   3.278   3.776   1.393  0.1498  0.7192  0.8402
 2031TIP3   OH227583   1.747   3.820   0.954  0.1104 -0.2338 -0.1284
 2031TIP3    H127584   1.795   3.841   1.034  0.9174 -2.2731 -0.0099
 2031TIP3    H227585   1.813   3.782   0.896 -0.7017  0.1505 -1.3350
 2032TIP3   OH227586   0.214   3.750  16.847  0.3601  0.0837 -0.5935
 2032TIP3    H127587   0.235   3.842  16.834  0.7785 -0.0857 -1.1944
 2032TIP3    H227588   0.281   3.717  16.906  0.4025  0.0930 -0.6361
 2033TIP3   OH227589   4.692   1.101  11.549  0.1939  0.5246  0.8727
 2033TIP3    H127590   4.638   1.144  11.482 -0.7310 -0.4979  0.9384
 2033TIP3    H227591   4.725   1.022  11.506  0.3806  0.3532  1.3251
 2034TIP3   OH227592   3.100   3.681   0.862  0.5847 -0.0444  0.1209
 2034TIP3    H127593   3.134   3.651   0.778  0.8655  0.4019  0.0676
 2034TIP3    H227594   3.173   3.730   0.901  0.4794 -0.3033  0.6540
 2035TIP3   OH227595   0.885   3.138   0.171  0.0298 -0.5000  0.6482
 2035TIP3    H127596   0.855   3.217   0.215  0.4655 -0.1388  0.3070
 2035TIP3    H227597   0.965   3.112   0.217 -0.2968 -0.9391  0.9763
 2036TIP3   OH227598   3.569   3.042   1.354  0.3987  0.3864 -0.5838
 2036TIP3    H127599   3.557   2.954   1.392  1.7211  0.3636 -0.1828
 2036TIP3    H227600   3.522   3.100   1.413 -1.3252 -0.1372 -1.3847
 2037TIP3   OH227601   1.236   2.005  10.544 -0.2404  0.4924  0.4819
 2037TIP3    H127602   1.252   2.085  10.594  0.1762  1.6124 -1.3528
 2037TIP3    H227603   1.323   1.976  10.517 -0.4983  0.2885 -0.1507
 2038TIP3   OH227604   1.459   1.079  14.174 -0.2358 -0.0950  0.7378
 2038TIP3    H127605   1.494   1.165  14.198 -1.4804  0.3881  0.8947
 2038TIP3    H227606   1.536   1.029  14.144  0.2597  1.6658 -1.1661
 2039TIP3   OH227607   4.112   5.305   0.914  0.4334  0.2898  0.1515
 2039TIP3    H127608   4.059   5.384   0.927  1.1355  0.9278 -0.7123
 2039TIP3    H227609   4.066   5.236   0.961  0.3709  1.4441  1.8390
 2040TIP3   OH227610   0.127   3.510   5.054  0.3624  0.6380 -0.5566
 2040TIP3    H127611   0.059   3.575   5.069  1.1082  1.7425 -1.8002
 2040TIP3    H227612   0.179   3.512   5.134 -0.7588  0.1119  0.2203
 2041TIP3   OH227613   6.027   4.003  11.211 -0.2658 -0.3407  0.0102
 2041TIP3    H127614   6.082   4.002  11.290  0.4249  0.7525 -0.4287
 2041TIP3    H227615   6.084   4.040  11.144 -2.0196  2.4753 -0.0810
 2042TIP3   OH227616   0.430   2.606  13.737 -0.4450  0.0723 -0.2168
 2042TIP3    H127617   0.369   2.551  13.687 -0.3219  0.1812 -0.4857
 2042TIP3    H227618   0.374   2.655  13.797 -0.4884 -0.9566  0.6122
 2043TIP3   OH227619   5.884   3.057   4.329 -0.2613  0.3286  0.2666
 2043TIP3    H127620   5.819   3.003   4.285  0.8911 -0.2246 -0.7838
 2043TIP3    H227621   5.858   3.147   4.308 -0.5601  0.1098 -0.3291
 2044TIP3   OH227622   1.399   4.882   1.638  0.0138  0.3532  0.0484
 2044TIP3    H127623   1.448   4.909   1.561  0.0441  0.4703  0.1090
 2044TIP3    H227624   1.355   4.962   1.668 -0.2711  0.2352 -0.0479
 2045TIP3   OH227625   3.514   0.104   3.022 -0.7375  0.4521  0.4462
 2045TIP3    H127626   3.443   0.144   2.971 -0.2860  1.1767  0.3823
 2045TIP3    H227627   3.569   0.060   2.957 -0.7537  0.4626  0.4254
 2046TIP3   OH227628   1.612   1.704  15.674  0.8031 -0.1877  0.0759
 2046TIP3    H127629   1.561   1.645  15.729 -0.0023 -0.2239 -0.6809
 2046TIP3    H227630   1.546   1.757  15.629  1.4603  0.1210 -0.5403
 2047TIP3   OH227631   4.625   1.500  14.865  0.4764  0.4735 -0.5108
 2047TIP3    H127632   4.691   1.435  14.888  1.9241  1.4477 -1.6895
 2047TIP3    H227633   4.541   1.458  14.886  1.3361 -1.8051 -1.3039
 2048TIP3   OH227634   3.806   4.654   0.005  0.6310 -0.4614 -0.2527
 2048TIP3    H127635   3.855   4.714  -0.052 -0.5933 -0.1864 -1.0500
 2048TIP3    H227636   3.862   4.577   0.012  1.0114 -0.3217 -1.4917
 2049TIP3   OH227637   5.140   5.511   5.652  0.1263  0.9299 -0.3310
 2049TIP3    H127638   5.207   5.444   5.642  1.3753  1.9537  0.8134
 2049TIP3    H227639   5.127   5.544   5.563  0.3931  0.0327 -0.7152
 2050TIP3   OH227640   4.979   2.442  16.444  0.3158 -0.3987  0.2136
 2050TIP3    H127641   4.930   2.477  16.519 -0.8755  0.6402 -0.9953
 2050TIP3    H227642   5.011   2.357  16.474  1.9408  0.9677  2.7149
 2051TIP3   OH227643   1.842   5.869  11.771 -0.2060 -0.7422  1.3409
 2051TIP3    H127644   1.876   5.820  11.846  1.4487  0.6138  1.5357
 2051TIP3    H227645   1.861   5.813  11.695 -0.2950 -1.3451  1.7581
 2052TIP3   OH227646   3.054   6.736  13.443 -0.1487  0.1645 -0.6011
 2052TIP3    H127647   2.982   6.728  13.380 -0.1336 -1.8549 -0.4423
 2052TIP3    H227648   3.090   6.823  13.427 -2.4679  1.1814 -0.8297
 2053TIP3   OH227649   5.573   3.207   3.793  0.1722  0.4100 -0.2820
 2053TIP3    H127650   5.563   3.301   3.777  0.6659  0.3712 -0.8447
 2053TIP3    H227651   5.624   3.175   3.719  1.7720  0.0761  0.9117
 2054TIP3   OH227652   1.441   1.511  11.782 -0.1993 -0.3084  0.1165
 2054TIP3    H127653   1.475   1.440  11.729  0.1817 -0.0368 -0.0102
 2054TIP3    H227654   1.355   1.531  11.744  0.9824  1.3922 -1.8852
 2055TIP3   OH227655   4.117   3.829  14.741 -0.0883 -0.3189  0.2523
 2055TIP3    H127656   4.149   3.794  14.824 -2.3290 -3.6187 -0.0788
 2055TIP3    H227657   4.152   3.770  14.675 -1.1503  0.1932 -0.8032
 2056TIP3   OH227658   3.755   1.309   2.339 -0.1126  0.4963  0.4978
 2056TIP3    H127659   3.842   1.268   2.339 -0.8007 -1.0198  1.2491
 2056TIP3    H227660   3.726   1.301   2.248  0.7578  1.5884  0.0890
 2057TIP3   OH227661   3.421   1.397   0.171 -0.2396 -0.2944 -0.6386
 2057TIP3    H127662   3.480   1.323   0.185 -1.1201 -1.2339 -1.6713
 2057TIP3    H227663   3.479   1.473   0.171  0.5730 -0.8504  1.3805
 2058TIP3   OH227664   5.419   2.154  14.866  0.5816 -0.2907  0.4029
 2058TIP3    H127665   5.485   2.137  14.933 -1.0171 -1.3891  1.7913
 2058TIP3    H227666   5.468   2.153  14.784  2.5561  0.7691  1.4826
 2059TIP3   OH227667   3.753   1.702  17.055  0.4443 -0.6261 -0.4605
 2059TIP3    H127668   3.809   1.639  17.102 -0.0737 -0.8366 -0.1153
 2059TIP3    H227669   3.681   1.719  17.116  0.4834  0.1658 -0.6227
 2060TIP3   OH227670   5.931   3.406   1.883  0.0112 -0.0578 -0.4238
 2060TIP3    H127671   5.966   3.392   1.971  0.1415  0.7623 -0.3405
 2060TIP3    H227672   5.975   3.485   1.851  1.6071 -1.5358 -2.0884
 2061TIP3   OH227673   1.892   0.219   2.950  0.7134  0.3510  0.0630
 2061TIP3    H127674   1.817   0.177   2.908  1.3212 -0.8608  0.1441
 2061TIP3    H227675   1.923   0.155   3.015  0.5307  1.6970  1.5300
 2062TIP3   OH227676   2.885   5.380   2.162 -0.1147  0.3304  0.2293
 2062TIP3    H127677   2.842   5.300   2.133 -0.2228  0.7022 -0.6634
 2062TIP3    H227678   2.976   5.353   2.178 -0.0226  0.1245 -0.5694
 2063TIP3   OH227679   5.363   1.898  12.071 -0.1874 -0.3916  0.0277
 2063TIP3    H127680   5.307   1.890  11.994 -1.6493 -0.5264  1.0536
 2063TIP3    H227681   5.351   1.988  12.099  0.9315 -0.1276 -0.3242
 2064TIP3   OH227682   4.321   2.736   5.197  0.3105  0.1208  0.4233
 2064TIP3    H127683   4.252   2.686   5.239 -0.1252  0.2674 -0.1089
 2064TIP3    H227684   4.297   2.827   5.213  0.8144  0.1730  0.9247
 2065TIP3   OH227685   1.137   6.236  16.995  0.3583  0.0786 -0.5332
 2065TIP3    H127686   1.151   6.330  16.986 -0.5847  0.1920 -0.9045
 2065TIP3    H227687   1.065   6.216  16.935 -0.0643 -0.7153  0.2168
 2066TIP3   OH227688   4.044   2.008  13.801  0.6329  0.2156  0.0332
 2066TIP3    H127689   4.129   1.965  13.797  0.3026 -0.4671  0.2755
 2066TIP3    H227690   4.008   1.985  13.887  0.2482  0.5882 -0.0193
 2067TIP3   OH227691   0.194   3.709   1.693  0.4828  0.2870 -0.1038
 2067TIP3    H127692   0.274   3.744   1.731  1.4172 -0.4840 -1.2983
 2067TIP3    H227693   0.215   3.696   1.600 -0.6979 -0.9081 -0.2312
 2068TIP3   OH227694   1.011   4.956  11.188  0.2685 -0.0776 -0.3309
 2068TIP3    H127695   1.046   4.932  11.274 -0.8723  1.4094  0.6133
 2068TIP3    H227696   0.918   4.972  11.205  0.2182  1.1689 -1.6467
 2069TIP3   OH227697   1.421   0.767  13.726 -0.6075  0.1582  0.0413
 2069TIP3    H127698   1.358   0.838  13.717  0.1640  1.1049  1.7235
 2069TIP3    H227699   1.480   0.795  13.796  1.7201 -0.6806 -1.4779
 2070TIP3   OH227700   2.861   4.401  12.044 -0.1724 -0.2526  0.2024
 2070TIP3    H127701   2.847   4.326  11.986 -3.3851  0.9099 -0.7743
 2070TIP3    H227702   2.903   4.364  12.121  1.7462 -2.3419 -1.6920
 2071TIP3   OH227703   6.679   5.304   3.215 -0.2930  0.0520 -0.4988
 2071TIP3    H127704   6.620   5.338   3.282 -1.2775 -1.3792 -0.5893
 2071TIP3    H227705   6.658   5.354   3.136 -1.1121 -0.1734 -0.4279
 2072TIP3   OH227706   4.538   3.920  13.310  0.7182  0.1611  0.5120
 2072TIP3    H127707   4.622   3.964  13.302  0.6379  0.0809 -0.9809
 2072TIP3    H227708   4.545   3.843  13.253 -0.6743  0.6552 -0.3777
 2073TIP3   OH227709   5.892   0.379  12.684 -0.0224  0.6385 -0.0226
 2073TIP3    H127710   5.967   0.341  12.730  1.2940 -0.1768 -2.6449
 2073TIP3    H227711   5.819   0.321  12.706  0.7070 -0.1036  0.5385
 2074TIP3   OH227712   3.182   4.805   6.487 -0.0873 -0.2570  0.4766
 2074TIP3    H127713   3.102   4.782   6.535 -0.3909 -2.0134 -0.7980
 2074TIP3    H227714   3.158   4.881   6.435 -0.3375  0.4158  1.5374
 2075TIP3   OH227715   5.083   5.711   3.068 -0.1242 -0.4192 -0.5252
 2075TIP3    H127716   5.040   5.744   2.989  1.6384  0.6668 -1.0963
 2075TIP3    H227717   5.036   5.630   3.089 -2.7607  0.9296 -0.7548
 2076TIP3   OH227718   2.404   2.610   4.235 -0.1065 -0.3030  0.0341
 2076TIP3    H127719   2.491   2.625   4.272 -0.8191  1.5641  1.0854
 2076TIP3    H227720   2.413   2.632   4.142  0.7706 -1.1252 -0.0865
 2077TIP3   OH227721   0.375   3.727   4.404  0.0072  0.5615 -0.2004
 2077TIP3    H127722   0.411   3.639   4.418 -0.9772  0.1280 -0.3713
 2077TIP3    H227723   0.453   3.782   4.394  0.6535 -0.6143 -2.2748
 2078TIP3   OH227724   0.018   6.329  13.384 -0.0517 -0.4248  0.0841
 2078TIP3    H127725   0.091   6.269  13.369  2.8479  2.8286  0.0175
 2078TIP3    H227726  -0.025   6.336  13.298  3.1495  1.7939 -1.5086
 2079TIP3   OH227727   0.120   6.060   0.943  0.2154  0.6467 -0.3835
 2079TIP3    H127728   0.138   6.027   0.855 -2.2368 -0.2893 -0.5923
 2079TIP3    H227729   0.114   5.981   0.997 -3.0495  0.7760 -0.3627
 2080TIP3   OH227730   2.242   4.039   2.134 -0.6760  0.6875 -0.2991
 2080TIP3    H127731   2.172   3.974   2.125 -0.1570  0.0765  0.0232
 2080TIP3    H227732   2.215   4.111   2.076 -0.5527 -0.4261 -1.7925
 2081TIP3   OH227733   1.416   0.619   3.466  0.2034  0.2000 -0.6258
 2081TIP3    H127734   1.450   0.613   3.377  0.7395  1.0184 -0.4885
 2081TIP3    H227735   1.413   0.528   3.497  0.1584 -0.0728 -1.4174
 2082TIP3   OH227736   2.953   3.518   3.504 -0.1350 -0.8592  0.2183
 2082TIP3    H127737   2.922   3.591   3.450 -0.3348  0.7027  2.3222
 2082TIP3    H227738   3.043   3.542   3.526 -0.3041 -1.1020  1.1874
 2083TIP3   OH227739   1.301   1.884   1.760 -0.8822 -0.3497 -0.2236
 2083TIP3    H127740   1.257   1.822   1.818 -1.9538 -1.0874 -1.7685
 2083TIP3    H227741   1.384   1.842   1.737  0.4921  0.7790  2.2024
 2084TIP3   OH227742   0.315   5.546  15.050 -0.5624  0.1869 -0.3741
 2084TIP3    H127743   0.339   5.590  14.969 -0.1119  0.5006 -0.0786
 2084TIP3    H227744   0.363   5.594  15.118 -0.7145 -0.2454  0.0441
 2085TIP3   OH227745   5.552   3.666   5.834  0.1931 -0.3910 -0.4296
 2085TIP3    H127746   5.563   3.648   5.927 -1.4478 -3.4945 -0.6920
 2085TIP3    H227747   5.602   3.746   5.819 -0.0504  0.6205  3.2151
 2086TIP3   OH227748   3.390   3.587   0.401  0.2058 -0.0497  0.3547
 2086TIP3    H127749   3.452   3.618   0.335  1.2653 -1.8973  0.4254
 2086TIP3    H227750   3.318   3.550   0.349  1.0867 -1.5986  0.1894
 2087TIP3   OH227751   1.052   6.674  11.067  0.3740  0.5127 -0.6835
 2087TIP3    H127752   1.113   6.719  11.125 -0.8014  0.1365  0.9248
 2087TIP3    H227753   1.103   6.601  11.031  1.8768  2.2307 -2.2064
 2088TIP3   OH227754   4.644   0.610  15.542  0.2612 -0.3963 -1.0009
 2088TIP3    H127755   4.586   0.547  15.500 -0.5280  0.4551 -1.2291
 2088TIP3    H227756   4.614   0.695  15.509  1.4298  0.0887 -0.8609
 2089TIP3   OH227757   0.685   6.705  16.091  0.1149  0.5595  1.0706
 2089TIP3    H127758   0.750   6.661  16.146  1.7806 -0.8721 -1.8080
 2089TIP3    H227759   0.603   6.659  16.110  0.9989 -1.0790  1.1447
 2090TIP3   OH227760   5.319   5.236  13.921 -0.1660  0.0181  0.1488
 2090TIP3    H127761   5.286   5.294  13.853 -2.9191 -0.0473  1.3256
 2090TIP3    H227762   5.304   5.148  13.887  0.0308 -0.0132  0.1421
 2091TIP3   OH227763   2.417   1.731   3.830 -0.1801  0.2896 -0.4067
 2091TIP3    H127764   2.453   1.807   3.875  0.4728 -0.0721 -0.3094
 2091TIP3    H227765   2.409   1.758   3.739  0.0919  0.4627 -0.3800
 2092TIP3   OH227766   5.978   6.516  16.117 -0.6321 -0.7482  0.2056
 2092TIP3    H127767   6.061   6.487  16.154 -0.6092  0.2584  1.0031
 2092TIP3    H227768   5.953   6.447  16.056  1.0367 -0.8506 -0.4170
 2093TIP3   OH227769   2.579   2.591  15.121  0.2373  0.4340 -0.2554
 2093TIP3    H127770   2.622   2.666  15.080 -1.6309  0.7783 -1.7540
 2093TIP3    H227771   2.508   2.569  15.061 -0.7744 -0.9926  1.3690
 2094TIP3   OH227772   0.533   1.324   4.408  0.0298 -0.2465  0.3269
 2094TIP3    H127773   0.556   1.243   4.364 -0.6835  1.0158 -2.6060
 2094TIP3    H227774   0.453   1.304   4.457  1.2025 -1.8592  1.6684
 2095TIP3   OH227775   5.205   3.197  13.929 -0.7358  0.5088  0.0803
 2095TIP3    H127776   5.187   3.277  13.979  1.9200  1.6967 -0.6845
 2095TIP3    H227777   5.264   3.147  13.985  0.7216  0.9583 -0.9941
 2096TIP3   OH227778   4.728   2.122  16.338  0.3367  0.1154  0.1324
 2096TIP3    H127779   4.722   2.150  16.247 -0.3273  0.0326  0.1513
 2096TIP3    H227780   4.652   2.065  16.351 -0.5519  1.5149  1.2256
 2097TIP3   OH227781   0.228   2.872  11.531  0.0148  0.5116 -0.4195
 2097TIP3    H127782   0.282   2.829  11.598  1.1899  0.8148 -1.1354
 2097TIP3    H227783   0.146   2.892  11.576  0.7179  0.5944  0.9091
 2098TIP3   OH227784   3.514   3.171   2.778 -0.1486  0.5121 -0.2352
 2098TIP3    H127785   3.506   3.128   2.692 -2.7565  0.6146 -0.1077
 2098TIP3    H227786   3.513   3.264   2.759  1.8040  0.5938 -0.2124
 2099TIP3   OH227787   5.142   3.472  16.682  0.4118 -0.2053 -0.4889
 2099TIP3    H127788   5.114   3.459  16.773  1.3154 -2.9080 -0.5101
 2099TIP3    H227789   5.100   3.401  16.634 -0.2014  1.2949 -2.2716
 2100TIP3   OH227790   3.874   0.908   2.624 -0.7617 -0.2447 -0.3969
 2100TIP3    H127791   3.879   0.878   2.715  0.3934 -0.2275 -0.4401
 2100TIP3    H227792   3.949   0.966   2.613 -0.8713 -0.2599 -1.3665
 2101TIP3   OH227793   0.027   6.209   6.401 -0.9071 -0.2508 -0.4563
 2101TIP3    H127794   0.054   6.204   6.309 -0.7358 -2.9841 -0.3459
 2101TIP3    H227795  -0.054   6.158   6.405 -1.3672  0.5214  0.7898
 2102TIP3   OH227796   3.163   3.711  11.729  0.2539  0.0220 -0.1044
 2102TIP3    H127797   3.148   3.805  11.731 -0.6114 -0.0626  2.9771
 2102TIP3    H227798   3.151   3.683  11.820 -0.1700 -3.1612 -1.0132
 2103TIP3   OH227799   4.717   3.648   4.012  0.1433  0.2483  0.2340
 2103TIP3    H127800   4.673   3.730   3.992 -0.0155  0.7307  2.3888
 2103TIP3    H227801   4.686   3.587   3.944 -2.6355  0.9889  0.7295
 2104TIP3   OH227802   0.145   0.140  10.491  0.1929  0.4066 -0.1095
 2104TIP3    H127803   0.069   0.109  10.441 -0.6040  2.4736 -0.2864
 2104TIP3    H227804   0.109   0.205  10.550  1.3649 -0.9099  2.1848
 2105TIP3   OH227805   5.427   2.126   0.967 -0.8779 -0.0766  0.1241
 2105TIP3    H127806   5.483   2.068   1.019 -0.8193  0.1572  0.3284
 2105TIP3    H227807   5.428   2.089   0.879 -0.3820 -0.0610  0.1214
 2106TIP3   OH227808   6.119   5.086   3.720  0.2602  0.1210 -0.3929
 2106TIP3    H127809   6.025   5.069   3.728  0.2324  0.6839  0.5823
 2106TIP3    H227810   6.133   5.098   3.626 -0.6253 -0.0714 -0.5556
 2107TIP3   OH227811   2.598   3.439  11.598 -0.3217  0.4473 -0.4374
 2107TIP3    H127812   2.612   3.475  11.511  0.9197  0.1423 -0.3890
 2107TIP3    H227813   2.511   3.469  11.623 -0.4509  1.0369 -1.5365
 2108TIP3   OH227814   4.568   2.631   0.951 -0.0150 -0.2742  0.1802
 2108TIP3    H127815   4.548   2.641   0.857  0.7624  0.9942  0.1190
 2108TIP3    H227816   4.652   2.675   0.962 -0.8415  1.0295  1.7665
 2109TIP3   OH227817   6.260   3.384   0.917 -0.1043 -0.2283 -0.2702
 2109TIP3    H127818   6.175   3.344   0.935 -0.0838  0.4228  1.4938
 2109TIP3    H227819   6.319   3.310   0.905 -0.2494 -0.8224  2.0543
 2110TIP3   OH227820   5.797   1.965  13.123  0.2313  0.6492  0.5316
 2110TIP3    H127821   5.868   1.989  13.064  1.0814  0.6102  1.4903
 2110TIP3    H227822   5.804   1.870  13.131 -1.1338  0.4109 -0.8213
 2111TIP3   OH227823   2.463   2.341   4.168 -0.1764 -0.1600  0.1589
 2111TIP3    H127824   2.544   2.381   4.138 -0.2748  0.4724  0.7106
 2111TIP3    H227825   2.420   2.409   4.220 -1.7990  0.0501 -1.3652
 2112TIP3   OH227826   6.742   3.132   5.433  1.1051 -0.8977 -0.0285
 2112TIP3    H127827   6.752   3.155   5.525 -1.1976 -1.1796  0.3569
 2112TIP3    H227828   6.796   3.054   5.421 -0.0457 -1.9942  1.6015
 2113TIP3   OH227829   4.429   5.503   1.323  0.4127  0.3516  0.4661
 2113TIP3    H127830   4.481   5.425   1.304 -1.9962 -0.9394 -1.5536
 2113TIP3    H227831   4.447   5.562   1.249 -1.8246 -0.6814 -1.0247
 2114TIP3   OH227832   4.935   1.327  14.546 -0.1616  0.5256 -0.6657
 2114TIP3    H127833   4.862   1.388  14.560 -0.9747  0.1335 -2.8781
 2114TIP3    H227834   4.971   1.352  14.461  1.2059 -0.3928 -0.3823
 2115TIP3   OH227835   6.639   1.754  12.600 -0.2363 -0.4125 -0.0253
 2115TIP3    H127836   6.650   1.667  12.639 -1.5671 -0.4422  0.3252
 2115TIP3    H227837   6.545   1.766  12.595 -0.0800  1.3436  0.6643
 2116TIP3   OH227838   6.556   1.605  14.057 -0.0483  0.7351 -0.7066
 2116TIP3    H127839   6.556   1.515  14.090 -0.1999  0.4179 -1.5583
 2116TIP3    H227840   6.519   1.599  13.969 -0.6777  1.7250 -0.5288
 2117TIP3   OH227841   2.875   4.053   2.498 -0.0503  0.2306 -0.1754
 2117TIP3    H127842   2.966   4.056   2.468 -0.2891  0.4479 -0.9014
 2117TIP3    H227843   2.857   3.959   2.508 -0.5205 -0.0050 -2.5620
 2118TIP3   OH227844   0.644   5.270  12.648 -0.2375  0.2606 -0.2375
 2118TIP3    H127845   0.646   5.339  12.715 -0.0200 -1.4353  1.5708
 2118TIP3    H227846   0.733   5.234  12.649 -0.5223 -0.4683 -0.6969
 2119TIP3   OH227847   3.403   1.450  15.204  0.0160  0.0739 -0.4978
 2119TIP3    H127848   3.311   1.458  15.229  0.5266 -0.3456  1.7855
 2119TIP3    H227849   3.410   1.361  15.168 -0.5187  0.2283 -0.9994
 2120TIP3   OH227850   6.359   1.176  15.542 -0.2759  0.2471 -0.0090
 2120TIP3    H127851   6.278   1.218  15.510  0.1776  0.5135 -0.8404
 2120TIP3    H227852   6.328   1.110  15.604 -1.1070  0.6498  0.0336
 2121TIP3   OH227853   2.820   6.526  14.643 -0.5717 -0.1836 -0.9834
 2121TIP3    H127854   2.888   6.460  14.654 -0.2655  0.4598  1.8450
 2121TIP3    H227855   2.829   6.556  14.553  1.3218 -1.7828 -1.3891
 2122TIP3   OH227856   5.024   2.917   1.292  0.3662 -0.2061 -0.0697
 2122TIP3    H127857   5.070   2.993   1.256 -1.1258  0.8870  0.2442
 2122TIP3    H227858   5.089   2.847   1.289  1.9065  1.1474 -0.0504
 2123TIP3   OH227859   5.174   3.456  14.135 -0.1936 -0.1015 -0.0780
 2123TIP3    H127860   5.107   3.469  14.203  0.4613  0.8018  0.4179
 2123TIP3    H227861   5.143   3.510  14.061 -0.2640 -0.0844 -0.0362
 2124TIP3   OH227862   0.760   2.465   4.639 -0.5540  0.3318 -0.0566
 2124TIP3    H127863   0.819   2.538   4.659 -0.0046  0.8873 -3.2950
 2124TIP3    H227864   0.816   2.387   4.647 -0.2159  0.5737 -0.0255
 2125TIP3   OH227865   5.204   1.418  14.322  0.2281 -0.7008  0.2160
 2125TIP3    H127866   5.275   1.415  14.258  0.0384  1.2817 -0.1629
 2125TIP3    H227867   5.128   1.449  14.272  0.0719  0.8747  1.3437
 2126TIP3   OH227868   5.710   5.306  14.939  0.1470 -0.1451  0.0182
 2126TIP3    H127869   5.631   5.266  14.977 -0.0524 -0.9391 -1.1602
 2126TIP3    H227870   5.683   5.333  14.851  0.3771  2.3613  0.6443
 2127TIP3   OH227871   6.552   6.147  13.250 -0.1173 -0.0575  0.7000
 2127TIP3    H127872   6.476   6.135  13.193  0.1424 -2.5141  0.7440
 2127TIP3    H227873   6.603   6.216  13.209 -0.4474 -1.0577 -1.5318
 2128TIP3   OH227874   6.108   0.619   2.301 -0.4959 -0.1510  0.3901
 2128TIP3    H127875   6.069   0.539   2.336 -0.0742  0.1297  1.5228
 2128TIP3    H227876   6.186   0.633   2.354 -0.3340  0.7809 -0.0760
 2129TIP3   OH227877   0.932   4.328  11.885  0.0887  0.4192 -0.2467
 2129TIP3    H127878   0.849   4.295  11.919  1.3784 -2.6659  0.2836
 2129TIP3    H227879   0.926   4.317  11.791 -0.0831  0.1402 -0.2050
 2130TIP3   OH227880   3.147   4.399  11.211 -0.7122 -0.3354  0.5020
 2130TIP3    H127881   3.139   4.465  11.142  0.7055 -1.1245 -0.4609
 2130TIP3    H227882   3.059   4.361  11.218 -0.5770 -1.3015 -2.0013
 2131TIP3   OH227883   1.702   2.649  12.335  0.2652 -0.0657 -0.5363
 2131TIP3    H127884   1.749   2.673  12.254  2.5362 -0.0390  0.6938
 2131TIP3    H227885   1.610   2.650  12.310  0.8324  0.6827 -2.9349
 2132TIP3   OH227886   0.146   3.084  14.478 -0.3942  0.1152 -0.1771
 2132TIP3    H127887   0.212   3.151  14.499 -2.0735  1.4530  1.1387
 2132TIP3    H227888   0.098   3.120  14.404  1.3000 -1.6160 -2.2596
 2133TIP3   OH227889   6.566   4.650   3.121  0.5048  0.2616 -0.9063
 2133TIP3    H127890   6.652   4.624   3.088  0.7190  0.7355 -0.7329
 2133TIP3    H227891   6.581   4.671   3.213  0.0131 -0.5620 -0.6257
 2134TIP3   OH227892   0.726   6.171   5.444  0.9291  0.3257  0.7661
 2134TIP3    H127893   0.688   6.222   5.516 -0.8464 -0.1323  0.2194
 2134TIP3    H227894   0.711   6.224   5.366  1.0628 -0.0383  0.4901
 2135TIP3   OH227895   6.316   3.773  12.424 -0.1806  0.5096 -0.0531
 2135TIP3    H127896   6.391   3.731  12.382  0.5584 -0.1966  1.8629
 2135TIP3    H227897   6.309   3.730  12.509 -1.3999  2.0942  0.6988
 2136TIP3   OH227898   0.349   3.682  14.021 -0.1937  0.8209 -0.0827
 2136TIP3    H127899   0.279   3.667  13.958  0.9199  0.8690 -1.3894
 2136TIP3    H227900   0.393   3.597  14.029  1.2905  1.3927 -1.4630
 2137TIP3   OH227901   3.349   2.842  14.490 -0.3671 -0.0398 -0.2352
 2137TIP3    H127902   3.365   2.866  14.398  0.5628 -0.4972 -0.2020
 2137TIP3    H227903   3.386   2.754  14.498  0.2689  0.3048  0.7793
 2138TIP3   OH227904   5.066   1.685   5.389  0.3458 -0.4766 -0.0249
 2138TIP3    H127905   5.096   1.661   5.477 -1.9539 -1.1599  0.6444
 2138TIP3    H227906   4.972   1.701   5.399  0.0102 -0.6198 -2.3603
 2139TIP3   OH227907   0.442   5.410   1.761  0.6422 -0.1984  0.0472
 2139TIP3    H127908   0.405   5.496   1.740  0.5256 -0.3218 -0.2554
 2139TIP3    H227909   0.380   5.372   1.824  2.5247  1.4273  3.1424
 2140TIP3   OH227910   3.055   5.379   1.332  0.1475  0.4380  0.6018
 2140TIP3    H127911   2.983   5.363   1.393  1.5428  0.8984  2.4368
 2140TIP3    H227912   3.055   5.302   1.274 -1.8213  0.4620  0.5212
 2141TIP3   OH227913   3.526   5.433   4.966  0.0878  0.4378 -0.0286
 2141TIP3    H127914   3.583   5.505   4.995 -0.5694  1.0615 -0.2394
 2141TIP3    H227915   3.511   5.450   4.873 -0.8394  0.5859  0.1287
 2142TIP3   OH227916   5.446   4.101   4.215  0.2539 -0.4441  0.4653
 2142TIP3    H127917   5.501   4.025   4.198 -0.1307 -0.4521 -0.7922
 2142TIP3    H227918   5.368   4.087   4.162  1.1887  1.9823 -1.7980
 2143TIP3   OH227919   4.548   3.019  11.714  0.1796  0.0194 -0.2097
 2143TIP3    H127920   4.624   3.059  11.757  0.3822 -1.2335  0.6437
 2143TIP3    H227921   4.585   2.966  11.643 -0.1050  1.4657 -1.5010
 2144TIP3   OH227922   3.623   3.164   0.191 -0.4762  0.5594 -0.2787
 2144TIP3    H127923   3.622   3.109   0.270 -2.1175  0.0533 -0.6078
 2144TIP3    H227924   3.715   3.166   0.165 -0.0027  0.1218  1.2241
 2145TIP3   OH227925   5.524   4.124  10.439 -0.3278  0.0887  0.3435
 2145TIP3    H127926   5.557   4.213  10.453  0.5822 -0.0161 -0.9326
 2145TIP3    H227927   5.580   4.068  10.493 -1.6524  0.3590  2.0883
 2146TIP3   OH227928   1.359   0.687   0.488  0.2074 -0.8130  0.0435
 2146TIP3    H127929   1.266   0.700   0.467 -0.3444  0.7051  3.0024
 2146TIP3    H227930   1.399   0.772   0.471  0.4168 -0.5765  1.6146
 2147TIP3   OH227931   1.303   6.647   3.103 -0.2218 -0.6781 -0.6466
 2147TIP3    H127932   1.273   6.735   3.083 -0.8009 -1.1482 -1.9171
 2147TIP3    H227933   1.368   6.659   3.172 -0.9495  0.6513 -0.1555
 2148TIP3   OH227934   0.040   1.947  12.029  0.5354 -0.3116 -0.0628
 2148TIP3    H127935   0.110   1.963  12.092  0.6889 -2.0715  0.2719
 2148TIP3    H227936   0.059   1.860  11.994 -0.5801 -0.1273 -1.1875
 2149TIP3   OH227937   4.134   6.515  14.926 -0.0905 -0.2674 -0.1501
 2149TIP3    H127938   4.195   6.455  14.967  0.9977  1.1878  0.4338
 2149TIP3    H227939   4.050   6.468  14.926  0.8967 -2.1153 -0.5713
 2150TIP3   OH227940   4.194   6.373   1.065  0.7061  0.3684 -0.5088
 2150TIP3    H127941   4.279   6.383   1.108 -0.3368  1.1969  1.5285
 2150TIP3    H227942   4.136   6.434   1.112 -1.1748 -0.6487 -1.3674
 2151TIP3   OH227943   2.534   4.257   3.658  0.7040  0.0354  0.0087
 2151TIP3    H127944   2.607   4.206   3.622  2.1630  2.7190 -1.1526
 2151TIP3    H227945   2.517   4.324   3.592 -0.0491  1.9968  2.0858
 2152TIP3   OH227946   5.923   0.826   5.757  0.3479 -0.4405 -0.3600
 2152TIP3    H127947   5.917   0.906   5.706 -2.8022 -1.2357 -1.4955
 2152TIP3    H227948   5.908   0.854   5.848 -2.9366  0.2154 -0.9439
 2153TIP3   OH227949   4.734   2.961   4.705 -0.0320  0.4901  0.3368
 2153TIP3    H127950   4.645   2.945   4.672  1.0374 -1.7810 -1.7907
 2153TIP3    H227951   4.746   3.056   4.696 -2.3352  0.9212  1.0728
 2154TIP3   OH227952   6.811   5.692  11.597 -0.5945  0.1314 -0.3519
 2154TIP3    H127953   6.774   5.772  11.558 -0.9918  0.7714  1.2691
 2154TIP3    H227954   6.740   5.658  11.652  0.0841 -0.5212  0.1310
 2155TIP3   OH227955   5.671   3.263   2.351  0.4844  0.1707  0.2869
 2155TIP3    H127956   5.626   3.220   2.278  0.3298  3.0354 -1.4751
 2155TIP3    H227957   5.601   3.308   2.399  0.8735  0.1839  0.8562
 2156TIP3   OH227958   4.812   4.189  16.959  0.8272 -0.1575  0.5398
 2156TIP3    H127959   4.778   4.200  17.048 -1.2056 -2.1645  0.1065
 2156TIP3    H227960   4.801   4.275  16.919  1.3935  0.6714  2.0752
 2157TIP3   OH227961   0.682   1.258  15.500  0.1524  0.4544  0.0459
 2157TIP3    H127962   0.618   1.220  15.440  0.4270 -0.1771  0.1452
 2157TIP3    H227963   0.629   1.297  15.570 -0.1201 -0.7711  0.5468
 2158TIP3   OH227964   6.357   6.430  15.658 -0.0695  0.1449  0.4616
 2158TIP3    H127965   6.308   6.505  15.623 -0.3622  0.3921  1.3839
 2158TIP3    H227966   6.433   6.468  15.700  0.9076 -0.2404 -0.8985
 2159TIP3   OH227967   6.745   0.059  12.109  0.2022 -0.1916 -0.3924
 2159TIP3    H127968   6.822   0.091  12.064 -0.0839 -1.1098 -1.5921
 2159TIP3    H227969   6.673   0.073  12.048 -0.1487 -1.7577 -0.3886
 2160TIP3   OH227970   1.849   1.579  10.663 -0.0042 -0.7142  0.0903
 2160TIP3    H127971   1.830   1.576  10.569 -0.9102  1.4147  0.1442
 2160TIP3    H227972   1.935   1.621  10.669 -0.0951 -0.5423  0.2118
 2161TIP3   OH227973   0.878   0.713  13.264 -0.0080  0.4526  0.3008
 2161TIP3    H127974   0.921   0.725  13.349 -1.0552 -1.0983  1.0989
 2161TIP3    H227975   0.795   0.759  13.272  0.2031  0.9094 -0.1447
 2162TIP3   OH227976   0.183   5.439  16.224 -0.9790  0.3628  0.2495
 2162TIP3    H127977   0.215   5.358  16.262  2.5268  1.0642 -0.8945
 2162TIP3    H227978   0.252   5.503  16.240 -2.7636  2.6746 -0.5694
 2163TIP3   OH227979   1.933   4.671  14.504 -0.6955 -0.6674 -0.0920
 2163TIP3    H127980   1.847   4.658  14.543 -0.4231 -0.3437  0.6351
 2163TIP3    H227981   1.928   4.757  14.462 -0.8860 -0.8748 -0.4998
 2164TIP3   OH227982   2.722   1.434   5.264  0.0594 -0.3036 -0.0192
 2164TIP3    H127983   2.744   1.490   5.338  2.1517 -0.7419 -0.2554
 2164TIP3    H227984   2.656   1.374   5.299  1.2438 -0.7280  1.6191
 2165TIP3   OH227985   1.690   0.930  14.056  0.5269 -0.1655  0.3185
 2165TIP3    H127986   1.700   0.959  13.966  1.3715  1.2839  0.8395
 2165TIP3    H227987   1.780   0.918  14.088  0.3685  1.7723  1.6782
 2166TIP3   OH227988   2.167   3.638   1.697 -0.3312  0.2412 -0.0771
 2166TIP3    H127989   2.258   3.652   1.671 -0.0512 -0.3877  0.5392
 2166TIP3    H227990   2.128   3.592   1.623  0.7695 -2.6158  0.9858
 2167TIP3   OH227991   1.145   1.956   0.230 -0.2481 -0.2282  0.4991
 2167TIP3    H127992   1.082   2.019   0.197 -0.4146  0.3471  1.8563
 2167TIP3    H227993   1.195   2.004   0.295 -0.8086 -1.6561  2.0527
 2168TIP3   OH227994   0.445   3.032  11.905 -0.5582  0.3562  0.0469
 2168TIP3    H127995   0.442   3.067  11.994 -3.5160 -0.7652  0.5084
 2168TIP3    H227996   0.442   2.937  11.916 -1.0877  0.1998 -1.2516
 2169TIP3   OH227997   3.448   4.691  15.394 -0.4244 -0.3160 -0.0552
 2169TIP3    H127998   3.511   4.658  15.331 -0.5870 -0.6788 -0.0274
 2169TIP3    H227999   3.464   4.640  15.474 -0.9784 -0.6504 -0.1517
 2170TIP3   OH228000   1.539   1.977  13.166 -0.2522  0.1496 -0.4628
 2170TIP3    H128001   1.547   1.884  13.185 -2.4188 -0.0332 -0.1645
 2170TIP3    H228002   1.568   2.020  13.246  0.8364 -0.2606 -0.6305
 2171TIP3   OH228003   6.725   0.454  13.542 -0.0686 -0.3364  0.5766
 2171TIP3    H128004   6.754   0.541  13.569 -2.6352  0.7324  0.1983
 2171TIP3    H228005   6.743   0.398  13.618  2.2866  0.2888  0.5638
 2172TIP3   OH228006   6.497   4.342   3.311  0.5846 -0.1862 -1.1639
 2172TIP3    H128007   6.504   4.248   3.297 -0.7500 -0.1968 -1.9098
 2172TIP3    H228008   6.466   4.377   3.227 -0.6549  0.6863 -0.3715
 2173TIP3   OH228009   3.065   4.616   0.436  0.6644 -0.2589 -0.3505
 2173TIP3    H128010   3.075   4.521   0.428 -0.4701 -0.3070 -1.8536
 2173TIP3    H228011   3.047   4.645   0.346 -0.3306  1.1892  0.2856
 2174TIP3   OH228012   3.947   5.550  15.056 -0.4729  0.6807 -0.4227
 2174TIP3    H128013   4.008   5.620  15.032  0.7039 -1.1356 -3.2108
 2174TIP3    H228014   3.995   5.496  15.118 -0.6576  1.2261  0.2108
 2175TIP3   OH228015   3.809   3.838  13.740 -0.1648  0.2470 -0.0265
 2175TIP3    H128016   3.743   3.811  13.804 -1.4463  0.7680 -1.0754
 2175TIP3    H228017   3.893   3.820  13.783 -0.9536  1.0551  2.0037
 2176TIP3   OH228018   2.645   0.058   4.087 -0.1232  0.1382 -1.0865
 2176TIP3    H128019   2.675   0.012   4.166 -0.6318  0.3408 -0.7703
 2176TIP3    H228020   2.561   0.018   4.066 -0.6874  1.0786 -0.6721
 2177TIP3   OH228021   0.980   2.831  16.461  0.2906 -0.5458  0.1077
 2177TIP3    H128022   0.892   2.855  16.433  1.3528  3.0063 -0.7502
 2177TIP3    H228023   0.992   2.878  16.544  1.7311  0.0704 -0.4088
 2178TIP3   OH228024   1.294   6.365  15.864  0.1157 -0.2109 -0.0267
 2178TIP3    H128025   1.305   6.445  15.813  0.6273  0.0906  0.5469
 2178TIP3    H228026   1.374   6.315  15.847  0.2461 -0.1496  0.3998
 2179TIP3   OH228027   1.084   2.588  11.072  0.9042  0.1524  0.2447
 2179TIP3    H128028   1.136   2.517  11.036  0.3346  0.1679 -0.6463
 2179TIP3    H228029   1.029   2.617  10.999  0.4215  0.8465  0.8663
 2180TIP3   OH228030   5.434   0.408  14.810 -0.0579  0.5521 -0.1567
 2180TIP3    H128031   5.450   0.385  14.902  1.6867  0.5019 -0.4371
 2180TIP3    H228032   5.443   0.325  14.763 -0.4300  0.6687 -0.4358
 2181TIP3   OH228033   2.691   1.479   4.827 -0.1667  0.0066  0.5347
 2181TIP3    H128034   2.712   1.427   4.750  2.0804 -1.6673  2.1575
 2181TIP3    H228035   2.706   1.570   4.800 -1.2578 -0.3537 -1.4815
 2182TIP3   OH228036   4.622   6.101  12.714 -0.3361 -0.0491 -0.0282
 2182TIP3    H128037   4.571   6.024  12.689 -1.0928 -0.3580  2.1568
 2182TIP3    H228038   4.556   6.169  12.729  0.2656  0.8108 -1.2173
 2183TIP3   OH228039   6.525   1.211  16.102  0.4819  0.3261  0.0735
 2183TIP3    H128040   6.542   1.124  16.138  0.3296  0.6113  0.8457
 2183TIP3    H228041   6.586   1.219  16.028  2.0290  0.4084  1.3225
 2184TIP3   OH228042   3.133   3.098   1.245  0.8017 -0.2720 -0.2580
 2184TIP3    H128043   3.102   3.119   1.333 -1.6005 -1.0306 -0.8341
 2184TIP3    H228044   3.204   3.035   1.259  1.3753  0.6380  1.1466
 2185TIP3   OH228045   6.723   3.201  12.269  0.3794  0.1210 -0.1756
 2185TIP3    H128046   6.672   3.151  12.206 -1.5112  2.5904 -0.7397
 2185TIP3    H228047   6.685   3.178  12.354 -0.2241  0.3205 -0.3885
 2186TIP3   OH228048   0.756   6.604   2.019 -0.2221  0.0713 -0.3798
 2186TIP3    H128049   0.807   6.575   2.094  0.3430 -0.6930 -1.0445
 2186TIP3    H228050   0.762   6.700   2.021  1.8302 -0.0100 -0.8137
 2187TIP3   OH228051   3.552   2.721  11.916  0.7683  0.1280  0.2427
 2187TIP3    H128052   3.528   2.739  12.006 -0.6684  2.9432 -0.5786
 2187TIP3    H228053   3.648   2.721  11.916  0.7878  0.4250  1.7005
 2188TIP3   OH228054   6.371   5.832   4.153  0.1347 -0.1663 -0.1493
 2188TIP3    H128055   6.442   5.863   4.208  1.1137  1.2420 -2.0657
 2188TIP3    H228056   6.298   5.891   4.171  1.4961  2.5433 -2.6149
 2189TIP3   OH228057   3.336   2.865  16.044 -0.2799 -0.1906  0.1413
 2189TIP3    H128058   3.291   2.819  16.114 -1.1441  1.5897  0.8105
 2189TIP3    H228059   3.266   2.896  15.986  0.3036 -0.0335 -0.4959
 2190TIP3   OH228060   0.119   1.984   2.984 -0.6684 -0.1070 -0.1674
 2190TIP3    H128061   0.185   2.044   2.949  0.4254 -1.0139  0.2694
 2190TIP3    H228062   0.039   2.036   2.988  0.2845  1.3829  0.4026
 2191TIP3   OH228063   3.351   2.317   2.937 -0.4634  0.1990 -0.7180
 2191TIP3    H128064   3.281   2.356   2.884 -0.1847  1.1826 -0.4014
 2191TIP3    H228065   3.424   2.379   2.928 -0.2161  0.0777  0.3376
 2192TIP3   OH228066   3.151   2.708   4.427  0.0208 -0.0144  0.8621
 2192TIP3    H128067   3.202   2.789   4.427  3.1806 -1.8366  1.3788
 2192TIP3    H228068   3.185   2.658   4.353 -1.1597 -1.2901  1.1344
 2193TIP3   OH228069   4.434   3.792  12.889  0.0580  0.6220 -0.1237
 2193TIP3    H128070   4.376   3.839  12.950  0.6679  0.3005  0.7167
 2193TIP3    H228071   4.418   3.834  12.805  1.6374  3.3653  0.8318
 2194TIP3   OH228072   5.558   2.124  15.119 -0.4431 -0.1868  0.2003
 2194TIP3    H128073   5.609   2.203  15.138 -0.8924 -0.0363  0.8151
 2194TIP3    H228074   5.554   2.077  15.202  0.8571 -1.4929 -0.4284
 2195TIP3   OH228075   2.048   4.128   5.050 -0.9124  0.1199  0.1193
 2195TIP3    H128076   2.010   4.214   5.030  0.6687  1.0852  1.0218
 2195TIP3    H228077   2.030   4.115   5.143  0.6282  0.4632  0.4944
 2196TIP3   OH228078   2.406   6.585   5.702  0.6291 -0.3043  0.0063
 2196TIP3    H128079   2.456   6.589   5.621  0.0992 -2.1128 -0.4587
 2196TIP3    H228080   2.386   6.492   5.713 -1.0766  0.1557  1.1208
 2197TIP3   OH228081   5.686   4.945  15.911  0.0313  0.2524 -0.0526
 2197TIP3    H128082   5.698   4.995  15.830 -0.1854 -1.2876 -1.0845
 2197TIP3    H228083   5.634   5.002  15.967  0.2807  1.4011 -0.9538
 2198TIP3   OH228084   4.063   6.675   2.861 -0.5805 -0.0217 -0.0878
 2198TIP3    H128085   4.110   6.592   2.871 -1.0524 -0.5617 -1.9272
 2198TIP3    H228086   4.039   6.700   2.951  3.0062  0.2379  0.9749
 2199TIP3   OH228087   4.830   6.674  12.235 -0.7734  0.0614 -0.3304
 2199TIP3    H128088   4.806   6.764  12.214 -1.1663  0.0637  0.1012
 2199TIP3    H228089   4.897   6.682  12.302 -1.1013  0.0329  0.0050
 2200TIP3   OH228090   4.885   0.673   1.745 -0.2571  0.0703  0.1641
 2200TIP3    H128091   4.811   0.614   1.733 -1.9397  1.3681  3.0288
 2200TIP3    H228092   4.859   0.753   1.699  0.1630 -0.0256 -0.2512
 2201TIP3   OH228093   1.319   3.801  14.707  0.1101  0.2416 -0.3767
 2201TIP3    H128094   1.325   3.880  14.761  3.0878 -0.8800  1.1478
 2201TIP3    H228095   1.395   3.804  14.649  0.2409 -1.4144 -0.3533
 2202TIP3   OH228096   4.302   1.765   5.128  0.1703  0.0060  0.4802
 2202TIP3    H128097   4.330   1.770   5.220  0.2947 -2.2797  0.6146
 2202TIP3    H228098   4.378   1.732   5.081 -0.4368 -0.5223 -0.1533
 2203TIP3   OH228099   6.346   4.028  16.951  0.0803  0.0326  0.0198
 2203TIP3    H128100   6.435   4.030  16.915 -0.0488  0.1164 -0.2896
 2203TIP3    H228101   6.333   3.936  16.974 -0.6408 -0.4649 -2.1578
 2204TIP3   OH228102   0.031   1.445   3.015 -0.3754  0.4048 -0.8018
 2204TIP3    H128103   0.003   1.359   2.984 -0.2649  1.3519 -3.9017
 2204TIP3    H228104   0.103   1.427   3.074 -0.9026 -1.6456 -0.7079
 2205TIP3   OH228105   0.254   2.863  12.772 -0.2355  0.1318  0.0529
 2205TIP3    H128106   0.293   2.926  12.712  0.0280 -0.3806 -0.3222
 2205TIP3    H228107   0.295   2.780  12.750 -1.6010 -0.4496 -0.4081
 2206TIP3   OH228108   3.303   4.840   1.784  0.0791  0.4569  0.1316
 2206TIP3    H128109   3.261   4.836   1.870  1.3257  1.5878  0.8261
 2206TIP3    H228110   3.358   4.918   1.788  2.4440 -1.0773 -0.6436
 2207TIP3   OH228111   1.826   2.819  13.961  0.2754 -0.2487  0.2300
 2207TIP3    H128112   1.861   2.827  13.873 -0.1950 -1.2180 -0.0551
 2207TIP3    H228113   1.858   2.734  13.992  1.3906  0.5644  1.4412
 2208TIP3   OH228114   2.981   5.810   5.163  0.2238 -0.6891  0.2260
 2208TIP3    H128115   2.971   5.719   5.193  0.7676 -0.9260 -0.2836
 2208TIP3    H228116   3.075   5.819   5.146 -0.0216 -0.4514 -1.0529
 2209TIP3   OH228117   6.783   0.255  12.606  0.4511  0.0068  0.0697
 2209TIP3    H128118   6.747   0.325  12.552 -0.8635 -0.3772  0.4110
 2209TIP3    H228119   6.756   0.174  12.562 -0.6576 -0.3116  1.2672
 2210TIP3   OH228120   0.415   0.763  17.204  0.7572  0.3178 -0.2380
 2210TIP3    H128121   0.428   0.671  17.182  1.4683  0.4296 -0.3007
 2210TIP3    H228122   0.435   0.768  17.298  2.2333  0.6811 -0.5506
 2211TIP3   OH228123   2.430   4.589   0.419 -0.6256  0.0907 -0.2240
 2211TIP3    H128124   2.516   4.558   0.449 -1.1627  0.7632  2.3308
 2211TIP3    H228125   2.445   4.680   0.395 -0.7446  0.4599  1.0344
 2212TIP3   OH228126   6.708   2.318   1.732 -0.4596 -0.1939 -0.1908
 2212TIP3    H128127   6.633   2.302   1.789 -0.3060  0.8957  0.3582
 2212TIP3    H228128   6.670   2.340   1.647 -0.7772  0.2310  0.0550
 2213TIP3   OH228129   1.294   2.106   2.956 -0.4357 -0.1967  0.4825
 2213TIP3    H128130   1.285   2.024   2.907  0.8324 -0.7262  1.0867
 2213TIP3    H228131   1.221   2.160   2.926 -1.2005 -1.4776 -0.0598
 2214TIP3   OH228132   0.161   6.816   2.008  0.2304  0.3030 -0.1841
 2214TIP3    H128133   0.130   6.832   2.097  0.1754  2.3644 -0.5217
 2214TIP3    H228134   0.082   6.808   1.955  0.2605 -1.1135 -0.0444
 2215TIP3   OH228135   6.232   1.540  15.192 -0.4153 -0.0030 -0.6773
 2215TIP3    H128136   6.301   1.566  15.131  0.0783  0.3273  0.0179
 2215TIP3    H228137   6.199   1.623  15.227  0.6817 -0.2462  1.0203
 2216TIP3   OH228138   0.409   4.667  16.933  0.0979  0.0208  0.0740
 2216TIP3    H128139   0.341   4.652  16.999  1.0969  0.3052  1.1977
 2216TIP3    H228140   0.400   4.759  16.910  0.5265  0.2380  0.7366
 2217TIP3   OH228141   0.270   4.706  11.780  0.3761  0.6118  0.3135
 2217TIP3    H128142   0.196   4.710  11.720  0.2257 -0.1987  0.4266
 2217TIP3    H228143   0.332   4.646  11.738  0.4136  0.3009  0.8030
 2218TIP3   OH228144   5.927   1.487   3.252 -0.3958  0.1920  0.0987
 2218TIP3    H128145   5.976   1.502   3.333  0.1065 -2.1806  0.3125
 2218TIP3    H228146   5.990   1.506   3.182  0.3600 -1.2024  0.3569
 2219TIP3   OH228147   3.832   4.030  14.564 -0.3449 -0.1226  0.7451
 2219TIP3    H128148   3.838   4.096  14.495  0.0401 -0.6130  0.3071
 2219TIP3    H228149   3.741   4.037  14.594 -0.8193 -0.6011 -0.5137
 2220TIP3   OH228150   2.370   2.003   6.068 -0.1677 -0.2964 -0.3805
 2220TIP3    H128151   2.281   2.015   6.102  0.3319  0.0761  0.8498
 2220TIP3    H228152   2.427   2.017   6.144  1.1172  2.4471 -1.6809
 2221TIP3   OH228153   3.486   3.605   4.670  0.4733 -0.5384  0.4400
 2221TIP3    H128154   3.535   3.584   4.591  0.4432 -0.1366  0.3126
 2221TIP3    H228155   3.445   3.522   4.696  2.9062 -1.4097  1.7410
 2222TIP3   OH228156   0.047   3.810  12.088  0.5300  0.0337 -0.3808
 2222TIP3    H128157   0.122   3.812  12.147 -0.3225 -0.3970  0.7656
 2222TIP3    H228158  -0.027   3.785  12.145 -0.4407  0.2817 -1.5047
 2223TIP3   OH228159   3.186   5.877  15.818  0.4559 -0.7182 -0.2511
 2223TIP3    H128160   3.230   5.886  15.902  1.4005 -1.4130 -0.6566
 2223TIP3    H228161   3.097   5.848  15.840  0.7140 -0.9500  0.4995
 2224TIP3   OH228162   1.007   6.718   5.593 -0.3282  0.0415 -0.5439
 2224TIP3    H128163   0.917   6.688   5.608 -0.3735 -0.8153 -2.2981
 2224TIP3    H228164   1.042   6.733   5.681 -2.2713  0.6987  0.1675
 2225TIP3   OH228165   5.022   1.884  13.273  0.1645 -0.0518  0.2611
 2225TIP3    H128166   4.982   1.912  13.355 -1.2392 -1.2911  0.0344
 2225TIP3    H228167   5.095   1.945  13.261 -2.7688  3.7271 -0.3617
 2226TIP3   OH228168   1.861   1.164  11.253  0.5920  0.1938 -0.6894
 2226TIP3    H128169   1.791   1.127  11.199 -0.1321 -0.2418  0.5101
 2226TIP3    H228170   1.908   1.224  11.194 -1.1844  1.0036 -1.3578
 2227TIP3   OH228171   4.215   4.230   2.748 -0.4422 -0.5172 -0.3951
 2227TIP3    H128172   4.279   4.198   2.685 -0.0715 -2.2984  0.8286
 2227TIP3    H228173   4.146   4.164   2.748 -0.5444 -0.4346  0.8816
 2228TIP3   OH228174   1.571   0.588   2.416  0.4621  0.6874 -0.6411
 2228TIP3    H128175   1.575   0.651   2.488 -1.9564  0.5566 -0.2924
 2228TIP3    H228176   1.543   0.639   2.340 -1.0367  0.1801 -0.4690
 2229TIP3   OH228177   2.890   5.377   4.601 -0.2907 -0.5720 -0.3263
 2229TIP3    H128178   2.892   5.297   4.654 -2.2698  0.4088  1.3540
 2229TIP3    H228179   2.801   5.411   4.612  0.7422  2.3566 -0.2154
 2230TIP3   OH228180   3.131   5.165  15.274  0.4908 -0.1451  0.9057
 2230TIP3    H128181   3.204   5.116  15.238  0.1227  0.9364 -1.5051
 2230TIP3    H228182   3.123   5.242  15.218 -1.6781  0.4362  1.8825
 2231TIP3   OH228183   3.798   6.434   1.471 -0.2339 -0.0580 -0.5678
 2231TIP3    H128184   3.715   6.469   1.438 -0.2563 -0.3160 -0.7883
 2231TIP3    H228185   3.862   6.502   1.453 -0.0601 -0.5605 -2.0119
 2232TIP3   OH228186   3.712   3.418   3.963  0.3378 -0.5878  0.2110
 2232TIP3    H128187   3.799   3.379   3.955 -0.8912 -3.2373 -1.6931
 2232TIP3    H228188   3.698   3.427   4.057  2.7908  0.4031  0.5656
 2233TIP3   OH228189   0.234   5.125  14.042 -0.0548  0.1589  0.2604
 2233TIP3    H128190   0.310   5.174  14.010  0.6604 -1.6901 -1.0780
 2233TIP3    H228191   0.159   5.175  14.011  0.5977  1.6419  0.9718
 2234TIP3   OH228192   0.657   2.308   1.665 -1.3635 -0.4894  0.0903
 2234TIP3    H128193   0.735   2.259   1.691 -0.5646  1.0731  0.8394
 2234TIP3    H228194   0.587   2.243   1.661  0.1632 -2.1433 -1.6912
 2235TIP3   OH228195   5.874   2.843  17.240 -0.0192 -0.2992 -0.0275
 2235TIP3    H128196   5.964   2.823  17.265 -0.3507 -0.9155  0.7023
 2235TIP3    H228197   5.836   2.883  17.319  0.0109  1.2635 -0.7740
 2236TIP3   OH228198   6.202   3.106   6.651 -0.4144 -0.4925  0.0796
 2236TIP3    H128199   6.132   3.152   6.604  0.6502  0.2920 -0.7875
 2236TIP3    H228200   6.183   3.122   6.743 -2.0488 -1.3150 -0.0766
 2237TIP3   OH228201   0.669   2.973  15.819 -0.1351 -0.0648 -0.5825
 2237TIP3    H128202   0.760   2.951  15.836 -0.6846 -0.4627  2.3385
 2237TIP3    H228203   0.630   2.892  15.785  0.4252 -0.1175 -1.1010
 2238TIP3   OH228204   0.826   2.239  16.199 -0.6064 -0.3166 -0.8867
 2238TIP3    H128205   0.743   2.197  16.222 -0.7610  1.8027  3.4508
 2238TIP3    H228206   0.891   2.193  16.252  0.1317  1.0948 -0.5259
 2239TIP3   OH228207   4.235   1.062   1.306 -0.1018  0.1949  0.2995
 2239TIP3    H128208   4.323   1.034   1.279 -0.7551 -1.7120  0.0495
 2239TIP3    H228209   4.183   1.056   1.226 -0.3095  2.1705  0.2381
 2240TIP3   OH228210   2.838   0.491   0.355 -0.5363 -0.6683  0.4445
 2240TIP3    H128211   2.899   0.470   0.425  0.4215  0.4859 -0.0122
 2240TIP3    H228212   2.872   0.445   0.279 -2.0985 -2.6949  0.8872
 2241TIP3   OH228213   3.353   6.003   3.516 -0.1062 -0.6262 -0.2571
 2241TIP3    H128214   3.330   5.911   3.530  1.5516 -0.8175  1.5564
 2241TIP3    H228215   3.418   6.023   3.583  1.9610  0.9731 -2.5278
 2242TIP3   OH228216   2.493   6.072  11.857  0.3470 -0.9099  0.4833
 2242TIP3    H128217   2.581   6.036  11.850  0.8625  0.5348 -1.1435
 2242TIP3    H228218   2.506   6.163  11.882 -0.4104  0.2320 -2.7816
 2243TIP3   OH228219   0.292   0.080   1.704 -0.0718 -0.2082  0.7166
 2243TIP3    H128220   0.251   0.148   1.758  1.8409  2.5105 -0.9952
 2243TIP3    H228221   0.371   0.055   1.752  1.1735  1.5899 -0.2516
 2244TIP3   OH228222   4.384   3.558   3.460 -0.4288  0.0743  0.9610
 2244TIP3    H128223   4.391   3.509   3.378 -0.3642  0.2459  0.8642
 2244TIP3    H228224   4.446   3.630   3.450 -2.2746  1.6259  0.0992
 2245TIP3   OH228225   3.281   2.827   2.137  0.6840 -0.2638  0.1303
 2245TIP3    H128226   3.360   2.817   2.084  0.9006 -1.9643  0.7139
 2245TIP3    H228227   3.313   2.830   2.227  0.3335  2.7110  0.2579
 2246TIP3   OH228228   4.512   2.091   4.824 -0.0152  0.4273  0.0354
 2246TIP3    H128229   4.495   1.997   4.822 -1.4631  0.5460  2.4489
 2246TIP3    H228230   4.591   2.100   4.878 -0.6020  0.6336  0.8800
 2247TIP3   OH228231   0.361   0.245   2.626 -0.2121 -0.8384  0.0060
 2247TIP3    H128232   0.402   0.282   2.704 -1.1739 -0.7488  0.4789
 2247TIP3    H228233   0.368   0.314   2.560 -1.7784  0.1270  0.8084
 2248TIP3   OH228234   0.883   6.735  16.302 -0.0822 -0.4758  0.2265
 2248TIP3    H128235   0.973   6.710  16.281  0.2447 -0.3274  1.4073
 2248TIP3    H228236   0.861   6.801  16.235 -0.2052 -2.2589 -1.5770
 2249TIP3   OH228237   1.144   1.697  16.574  0.3467  0.2663  0.2890
 2249TIP3    H128238   1.069   1.756  16.576  0.0941 -0.0439  0.0127
 2249TIP3    H228239   1.159   1.674  16.665 -0.7922 -0.8045  0.2248
 2250TIP3   OH228240   4.855   0.943   2.319  0.3030 -0.1563 -0.2839
 2250TIP3    H128241   4.801   0.929   2.396 -0.8013 -0.2164 -1.0490
 2250TIP3    H228242   4.884   0.855   2.294 -1.1172 -0.4154 -1.1664
 2251TIP3   OH228243   3.034   0.482  16.526 -0.2833 -0.4571  0.2752
 2251TIP3    H128244   3.086   0.560  16.508  0.6808 -0.9174  0.9730
 2251TIP3    H228245   2.955   0.515  16.567 -0.6442  0.2707 -0.9619
 2252TIP3   OH228246   1.968   4.347  15.026 -0.0091 -0.2989  0.4233
 2252TIP3    H128247   1.914   4.275  14.994  3.1772 -2.6537 -0.1706
 2252TIP3    H228248   1.981   4.403  14.949 -0.9764 -0.0783  0.4071
 2253TIP3   OH228249   3.737   5.699   2.542 -0.3643 -0.1054  0.9462
 2253TIP3    H128250   3.720   5.779   2.592 -0.1788  1.7139 -1.6718
 2253TIP3    H228251   3.663   5.642   2.560 -0.9137  0.9804  2.2594
 2254TIP3   OH228252   5.003   6.780  13.753 -0.0548  0.1964 -0.5464
 2254TIP3    H128253   5.086   6.745  13.785 -0.3959  0.0409  0.1963
 2254TIP3    H228254   4.938   6.716  13.781 -0.4168  0.2643 -1.2139
 2255TIP3   OH228255   5.188   4.564  13.830  0.5349  0.3343  0.9937
 2255TIP3    H128256   5.196   4.488  13.888  0.2703 -0.3825  0.1047
 2255TIP3    H228257   5.248   4.546  13.758 -0.4404  0.3573  0.1401
 2256TIP3   OH228258   4.698   0.437  14.272 -0.6461 -0.6024 -0.3769
 2256TIP3    H128259   4.609   0.420  14.301 -0.4152  0.2980  0.9728
 2256TIP3    H228260   4.745   0.355  14.286 -0.5787 -0.2435  1.7974
 2257TIP3   OH228261   3.041   1.784  15.671 -0.1951  0.3136  0.7097
 2257TIP3    H128262   2.992   1.772  15.590  1.3189 -1.6911  0.0284
 2257TIP3    H228263   3.010   1.714  15.729 -0.1258  0.7587  1.2959
 2258TIP3   OH228264   3.176   5.418  14.086 -0.5182  0.4896 -0.4444
 2258TIP3    H128265   3.105   5.451  14.141 -0.6011 -1.5037  0.7225
 2258TIP3    H228266   3.255   5.463  14.118 -0.7074  0.0301  0.7199
 2259TIP3   OH228267   1.401   5.590   0.768  0.0901 -0.7427  0.2775
 2259TIP3    H128268   1.411   5.543   0.851 -2.1252 -0.7606  0.5861
 2259TIP3    H228269   1.372   5.524   0.706  0.6605 -0.5065 -0.2485
 2260TIP3   OH228270   5.771   6.401  15.895  0.3895  0.2418 -0.1428
 2260TIP3    H128271   5.749   6.494  15.892  1.8846  0.6398  0.1268
 2260TIP3    H228272   5.709   6.363  15.957 -1.2164  0.7407 -1.3841
 2261TIP3   OH228273   0.056   5.845   0.038 -0.0948 -0.0904 -0.4656
 2261TIP3    H128274   0.032   5.759   0.073  0.4536  0.2477  0.8077
 2261TIP3    H228275   0.057   5.903   0.115  1.1175  0.7087 -1.0448
 2262TIP3   OH228276   4.033   5.508   3.677 -0.3176  0.3804 -0.1989
 2262TIP3    H128277   4.056   5.418   3.653  1.3167  0.3236  1.4034
 2262TIP3    H228278   4.040   5.511   3.772 -0.0599  2.2724 -0.2334
 2263TIP3   OH228279   6.402   5.349   4.039 -0.3971 -0.3867 -0.0725
 2263TIP3    H128280   6.390   5.433   4.084  1.9045 -0.1455  0.2186
 2263TIP3    H228281   6.386   5.284   4.107 -2.6229 -0.2665 -0.4019
 2264TIP3   OH228282   5.975   0.232   6.176  0.0028 -0.2384  0.4504
 2264TIP3    H128283   5.960   0.175   6.101  0.4199  0.4617 -0.1744
 2264TIP3    H228284   6.036   0.184   6.232  0.3881 -0.3892 -0.0938
 2265TIP3   OH228285   1.431   5.938  15.626  0.5083  0.3414  0.4072
 2265TIP3    H128286   1.337   5.934  15.608  0.3862 -0.1737  1.1423
 2265TIP3    H228287   1.455   5.848  15.650  0.8408  0.8026  1.8979
 2266TIP3   OH228288   3.983   1.406   0.295 -0.0561  0.0916 -0.1555
 2266TIP3    H128289   4.075   1.432   0.285 -0.2678  0.3334 -1.8887
 2266TIP3    H228290   3.946   1.470   0.355  1.3175 -1.1223  2.1091
 2267TIP3   OH228291   5.375   6.051  17.091 -0.0161 -0.0205  0.2278
 2267TIP3    H128292   5.325   6.059  17.010  0.2499  0.6422  0.1167
 2267TIP3    H228293   5.428   5.973  17.079 -0.9845 -0.7055  0.3288
 2268TIP3   OH228294   1.305   5.331  13.001  0.0100 -0.6949 -0.5467
 2268TIP3    H128295   1.258   5.414  12.995 -0.1013 -0.6984  0.2183
 2268TIP3    H228296   1.330   5.324  13.093  2.0711 -0.3834 -1.0329
 2269TIP3   OH228297   4.369   5.968  16.633 -0.0018  0.1232 -0.3999
 2269TIP3    H128298   4.367   5.872  16.637  0.0854  0.1282 -0.1809
 2269TIP3    H228299   4.278   5.995  16.645 -0.0330  0.0650 -0.5120
 2270TIP3   OH228300   5.069   1.108   0.822 -0.1482 -0.0279  0.1150
 2270TIP3    H128301   5.112   1.028   0.789 -1.2089 -0.1991 -0.9321
 2270TIP3    H228302   5.109   1.178   0.771 -1.2275 -0.2124 -1.0391
 2271TIP3   OH228303   6.061   5.257  12.823  0.0652  0.4036 -0.0008
 2271TIP3    H128304   6.010   5.200  12.765 -0.2234  0.7080 -0.0488
 2271TIP3    H228305   6.137   5.204  12.847  0.1929  0.2759 -0.6632
 2272TIP3   OH228306   3.417   5.354  15.303  0.1722  0.3553  0.2683
 2272TIP3    H128307   3.378   5.329  15.219 -0.1167  0.2210  0.4433
 2272TIP3    H228308   3.511   5.345  15.289  0.0839 -1.9495  0.6510
 2273TIP3   OH228309   4.645   5.010  13.680 -0.3138 -0.0210  0.9347
 2273TIP3    H128310   4.720   5.067  13.665 -1.2148  0.8607 -0.5065
 2273TIP3    H228311   4.618   5.027  13.770 -0.2106  1.4105  0.7088
 2274TIP3   OH228312   2.846   5.734   1.474 -0.2604  0.0941 -0.3360
 2274TIP3    H128313   2.805   5.718   1.559 -0.3486  0.5799 -0.2830
 2274TIP3    H228314   2.843   5.829   1.463  0.9503  0.1560 -0.2843
 2275TIP3   OH228315   4.252   0.444  16.095  0.2217 -0.0396 -0.0008
 2275TIP3    H128316   4.279   0.534  16.079 -1.0571  0.6211  1.3537
 2275TIP3    H228317   4.304   0.416  16.171  2.3292 -1.3117 -1.7761
 2276TIP3   OH228318   3.559   4.836   5.035  0.2811 -0.3837 -0.1753
 2276TIP3    H128319   3.529   4.749   5.008  1.6113 -0.4240 -1.7374
 2276TIP3    H228320   3.483   4.893   5.020 -0.5927 -1.2338  0.8282
 2277TIP3   OH228321   4.439   0.344  13.707  0.6443  0.3338 -0.4372
 2277TIP3    H128322   4.389   0.366  13.785 -0.6999 -1.2747 -0.7947
 2277TIP3    H228323   4.461   0.429  13.668 -0.7762  1.1108  0.3746
 2278TIP3   OH228324   6.775   2.216   2.870  0.4926  0.2460 -0.0281
 2278TIP3    H128325   6.813   2.191   2.786 -0.8930 -1.6614 -0.1374
 2278TIP3    H228326   6.690   2.173   2.872  0.8372 -0.4763  2.7086
 2279TIP3   OH228327   0.007   2.121   2.588 -0.0050 -0.1760 -0.6215
 2279TIP3    H128328  -0.051   2.186   2.548 -0.8010 -1.1683 -1.1232
 2279TIP3    H228329  -0.000   2.044   2.531  0.3555 -0.9520  0.3545
 2280TIP3   OH228330   1.049   0.980  15.992  0.1895 -0.6134  0.1084
 2280TIP3    H128331   1.140   0.975  16.021  0.1307  0.5605  0.5893
 2280TIP3    H228332   1.050   1.046  15.922 -0.3618 -0.1498  0.5210
 2281TIP3   OH228333   1.030   4.682  14.062  0.1227 -0.3909 -0.1658
 2281TIP3    H128334   1.080   4.616  14.111  0.7869 -0.7894 -1.3454
 2281TIP3    H228335   1.043   4.659  13.970 -1.6627 -0.0844 -0.5498
 2282TIP3   OH228336   6.137   4.053  14.984 -0.2928 -0.2986 -0.5241
 2282TIP3    H128337   6.123   4.086  15.073  0.2001 -2.1474  0.2849
 2282TIP3    H228338   6.118   3.959  14.991 -0.0449 -0.5029 -2.3353
 2283TIP3   OH228339   2.665   3.808  16.108 -0.2798  0.4314  0.0499
 2283TIP3    H128340   2.632   3.894  16.130 -0.6222  0.3112  0.0138
 2283TIP3    H228341   2.756   3.823  16.081 -0.7917  0.9960 -1.4428
 2284TIP3   OH228342   3.949   3.686  16.696 -0.0980 -0.1311  0.5499
 2284TIP3    H128343   3.873   3.629  16.713  0.6358 -1.8918 -1.5444
 2284TIP3    H228344   4.005   3.675  16.772 -0.9022 -0.6180  1.0852
 2285TIP3   OH228345   2.337   6.754  14.123 -0.4581 -0.1960 -0.0229
 2285TIP3    H128346   2.362   6.837  14.165  0.7039 -0.0129 -1.0222
 2285TIP3    H228347   2.274   6.779  14.056  0.7343  0.0635 -1.0876
 2286TIP3   OH228348   6.270   0.654  13.763 -0.5106 -0.1951  1.2822
 2286TIP3    H128349   6.179   0.683  13.772 -1.8035 -3.1040 -0.9463
 2286TIP3    H228350   6.271   0.564  13.795  0.7818 -1.3094 -1.4904
 2287TIP3   OH228351   1.986   1.948  13.869  0.2514  0.3658  0.0833
 2287TIP3    H128352   1.959   1.991  13.788  2.1025  2.1117  0.3135
 2287TIP3    H228353   2.024   1.865  13.841 -0.1419  0.4442 -0.7099
 2288TIP3   OH228354   0.848   5.693  17.040 -0.0069 -0.3065  0.0368
 2288TIP3    H128355   0.826   5.674  16.949 -0.2875  0.4730 -0.0704
 2288TIP3    H228356   0.860   5.788  17.042  0.5333 -0.3778  0.6984
 2289TIP3   OH228357   3.223   3.156   4.659  0.6088  0.4987 -0.5388
 2289TIP3    H128358   3.226   3.149   4.563  1.1285  0.3531 -0.5155
 2289TIP3    H228359   3.248   3.247   4.676  0.8164  0.4415 -0.5310
 2290TIP3   OH228360   1.960   6.522  14.673 -0.1148  0.1657 -0.1971
 2290TIP3    H128361   1.964   6.473  14.591  0.3752 -0.3327  0.1139
 2290TIP3    H228362   1.899   6.594  14.656  0.4454  0.4261 -1.1853
 2291TIP3   OH228363   4.498   0.169   1.282  0.4526 -0.8033 -0.1611
 2291TIP3    H128364   4.543   0.088   1.307  1.7544 -0.4404 -1.1923
 2291TIP3    H228365   4.440   0.188   1.356  0.5839 -2.3288  0.3788
 2292TIP3   OH228366   3.752   0.763  14.322  0.0559  0.1439 -0.3207
 2292TIP3    H128367   3.775   0.670  14.331 -0.2364  0.0079 -0.9166
 2292TIP3    H228368   3.697   0.766  14.244 -0.5112  0.7236  0.1002
 2293TIP3   OH228369   2.153   4.675  13.699  0.0203  0.1784 -0.1900
 2293TIP3    H128370   2.069   4.631  13.693  0.3579 -0.9420  1.9494
 2293TIP3    H228371   2.215   4.614  13.660  0.4690 -1.3988  2.6608
 2294TIP3   OH228372   0.241   1.304   4.034  0.0456  0.1730  0.0245
 2294TIP3    H128373   0.190   1.224   4.021  1.7756 -0.7697 -1.3056
 2294TIP3    H228374   0.331   1.273   4.048  0.8390  1.8716 -1.0333
 2295TIP3   OH228375   5.815   1.537  11.821  0.0211 -0.2837  0.4876
 2295TIP3    H128376   5.805   1.552  11.915  0.3571 -0.5130  0.5621
 2295TIP3    H228377   5.737   1.490  11.795  0.2185 -0.7734  0.7754
 2296TIP3   OH228378   5.884   0.854  11.351  0.7301 -0.2226 -0.1642
 2296TIP3    H128379   5.931   0.916  11.296 -0.1701 -1.2599 -2.2069
 2296TIP3    H228380   5.949   0.823  11.414  1.8219  0.9459 -0.6832
 2297TIP3   OH228381   0.269   1.791   2.486  0.2578  0.1699 -0.2169
 2297TIP3    H128382   0.180   1.755   2.483  0.2589  0.0191  1.0319
 2297TIP3    H228383   0.323   1.717   2.516  0.8453  0.1923 -1.2008
 2298TIP3   OH228384   1.928   0.351   0.865  0.4334 -0.2196 -0.1999
 2298TIP3    H128385   1.833   0.348   0.875 -0.0915  4.0612 -1.7221
 2298TIP3    H228386   1.942   0.339   0.771  1.1610  1.1307 -0.2850
 2299TIP3   OH228387   5.358   1.849  17.122 -0.3322  0.1162 -0.2293
 2299TIP3    H128388   5.263   1.858  17.130 -0.0488  2.7309  1.2860
 2299TIP3    H228389   5.375   1.857  17.029 -1.7597 -3.9770 -1.0489
 2300TIP3   OH228390   0.138   0.762   4.973  0.1031 -0.3801 -0.4022
 2300TIP3    H128391   0.150   0.792   5.063  1.1705 -0.0601 -0.6365
 2300TIP3    H228392   0.226   0.764   4.936 -0.3926 -0.0923 -1.5862
 2301TIP3   OH228393   4.457   3.248   0.377 -0.4681  0.4687  0.1450
 2301TIP3    H128394   4.512   3.303   0.322  1.2902 -2.4277 -1.2360
 2301TIP3    H228395   4.369   3.259   0.342 -0.2102  2.3983  0.0007
 2302TIP3   OH228396   6.015   1.887   1.599  0.3612 -0.3775 -0.1428
 2302TIP3    H128397   5.921   1.901   1.610  0.1003 -1.7347 -0.5207
 2302TIP3    H228398   6.050   1.888   1.688 -0.1868 -0.9767  0.0877
 2303TIP3   OH228399   2.461   4.515  11.440 -0.3923  0.4728  0.1573
 2303TIP3    H128400   2.530   4.462  11.481  1.8140  2.4708 -0.6712
 2303TIP3    H228401   2.468   4.496  11.347 -1.0067  0.6426  0.0755
 2304TIP3   OH228402   0.956   4.082  16.534 -0.0708 -0.3285  0.4349
 2304TIP3    H128403   0.988   4.166  16.501  1.0983 -1.2033 -0.7667
 2304TIP3    H228404   0.911   4.042  16.460 -2.3600  0.0164  1.5380
 2305TIP3   OH228405   0.621   1.747   3.023  0.5044  0.0048 -0.1371
 2305TIP3    H128406   0.653   1.740   3.113  0.4988 -1.1622 -0.2153
 2305TIP3    H228407   0.698   1.736   2.969  0.8111  2.4631 -0.2932
 2306TIP3   OH228408   4.583   0.638   5.224  0.3016  0.6738  0.0952
 2306TIP3    H128409   4.658   0.689   5.255  0.5263  0.3230  0.1370
 2306TIP3    H228410   4.608   0.547   5.240 -0.5230  0.5973  0.9734
 2307TIP3   OH228411   2.786   4.094  13.821  0.4087 -0.4240 -0.7247
 2307TIP3    H128412   2.721   4.163  13.807 -1.8811 -2.1975  0.4531
 2307TIP3    H228413   2.754   4.047  13.898  2.7348 -1.8491 -0.5596
 2308TIP3   OH228414   6.090   4.799   0.937  0.1883 -0.8104  0.2360
 2308TIP3    H128415   6.012   4.745   0.929 -0.9869  0.7305  0.8555
 2308TIP3    H228416   6.109   4.800   1.031  0.4177 -0.4391  0.1874
 2309TIP3   OH228417   1.023   2.732  16.198 -0.4326 -0.6703  0.4342
 2309TIP3    H128418   1.017   2.740  16.293 -1.4044  0.3928  0.3007
 2309TIP3    H228419   0.937   2.701  16.171  0.3323 -2.6221  0.0150
 2310TIP3   OH228420   4.225   4.145   0.018 -0.4728  0.3371  0.3105
 2310TIP3    H128421   4.288   4.105   0.078 -0.4961 -1.3958 -0.7308
 2310TIP3    H228422   4.195   4.072  -0.036 -2.0739  1.4478 -0.3681
 2311TIP3   OH228423   4.345   6.495  11.816 -0.0044  0.3830  0.0248
 2311TIP3    H128424   4.438   6.505  11.799  0.0492  0.4536  0.3573
 2311TIP3    H228425   4.337   6.410  11.861 -0.0120  0.7190  0.6644
 2312TIP3   OH228426   2.791   0.208   2.651  0.1226  0.4236  0.4160
 2312TIP3    H128427   2.708   0.170   2.680 -0.3535  1.3862  0.3481
 2312TIP3    H228428   2.779   0.303   2.660  0.8788  0.6229 -0.4676
 2313TIP3   OH228429   1.266   4.097   0.887 -0.0823 -0.2092 -0.4356
 2313TIP3    H128430   1.236   4.187   0.898  0.0777  0.0336 -1.8054
 2313TIP3    H228431   1.315   4.078   0.967  1.6613  1.6616 -0.9811
 2314TIP3   OH228432   3.480   0.582  10.588 -0.4386  0.0956 -0.6244
 2314TIP3    H128433   3.415   0.554  10.524 -1.3156  1.2895 -0.3034
 2314TIP3    H228434   3.518   0.501  10.622 -1.2008 -0.5980 -1.3888
 2315TIP3   OH228435   5.561   3.224  12.469 -0.1959  0.3296 -0.1368
 2315TIP3    H128436   5.504   3.292  12.434  0.1984  0.2746 -0.9001
 2315TIP3    H228437   5.522   3.201  12.554 -2.4604 -1.0679 -1.4367
 2316TIP3   OH228438   2.903   6.047  13.812 -0.6160 -0.2960  0.1004
 2316TIP3    H128439   2.860   5.987  13.751  0.1362  0.0637 -0.8028
 2316TIP3    H228440   2.979   5.998  13.843  0.6334  0.5416 -1.4892
 2317TIP3   OH228441   1.688   1.793   4.805  0.3159 -0.1115  0.3088
 2317TIP3    H128442   1.735   1.867   4.769 -1.4279  0.5548 -0.7453
 2317TIP3    H228443   1.693   1.726   4.737 -0.4361  0.0536  0.0825
 2318TIP3   OH228444   1.862   0.323  12.153 -0.1840  0.4386  0.1055
 2318TIP3    H128445   1.840   0.313  12.060  1.2686  1.1225 -0.3422
 2318TIP3    H228446   1.913   0.404  12.157  1.5199 -0.6123  1.1451
 2319TIP3   OH228447   4.914   2.617   5.047 -0.3722  0.3644  0.0173
 2319TIP3    H128448   4.978   2.567   5.098  1.8443  1.3339 -1.6173
 2319TIP3    H228449   4.925   2.707   5.076 -0.3779  0.6589 -0.8638
 2320TIP3   OH228450   4.219   6.078  10.660  0.4542 -0.0065  0.9749
 2320TIP3    H128451   4.219   6.174  10.664 -2.0059  0.0123  3.2464
 2320TIP3    H228452   4.311   6.053  10.665  1.1304  2.1975  0.5219
 2321TIP3   OH228453   4.511   6.515   2.256  0.3778  0.0930 -0.1546
 2321TIP3    H128454   4.438   6.557   2.300  0.0071 -2.2397  1.6435
 2321TIP3    H228455   4.587   6.568   2.279 -0.0388 -0.2333  2.1961
 2322TIP3   OH228456   4.225   2.960   4.487 -0.0797  0.1310  0.3494
 2322TIP3    H128457   4.176   3.001   4.558 -0.2600  0.1389  0.2215
 2322TIP3    H228458   4.160   2.905   4.442  0.0628  0.0306  0.2666
 2323TIP3   OH228459   1.179   2.413  11.484 -0.1512  0.1632  0.1864
 2323TIP3    H128460   1.084   2.407  11.494 -0.0739  1.9096  2.8344
 2323TIP3    H228461   1.214   2.358  11.554  0.7824  0.5373  0.0271
 2324TIP3   OH228462   0.432   2.641   2.165  0.1436  0.0657 -0.3105
 2324TIP3    H128463   0.469   2.568   2.115 -0.7497  0.0622 -0.9892
 2324TIP3    H228464   0.338   2.636   2.149  0.0996  1.5562 -0.6166
 2325TIP3   OH228465   0.960   1.955   3.050  0.1529 -0.5248  0.2964
 2325TIP3    H128466   0.868   1.968   3.072  0.4056  1.7179  0.3227
 2325TIP3    H228467   0.995   2.044   3.041  2.0431 -1.3162 -0.8843
 2326TIP3   OH228468   2.854   2.195  12.908  0.5565  0.6532  0.4653
 2326TIP3    H128469   2.801   2.174  12.985  0.4935  0.0011  0.2522
 2326TIP3    H228470   2.834   2.287  12.890 -0.1017  0.5653  0.7035
 2327TIP3   OH228471   5.635   1.316   4.670  0.8481 -0.0374 -0.2709
 2327TIP3    H128472   5.637   1.222   4.684  1.6402  0.0162  0.0176
 2327TIP3    H228473   5.698   1.331   4.599  0.5270  0.2460 -0.4993
 2328TIP3   OH228474   5.149   4.739  14.434 -0.1402  0.1178 -0.4414
 2328TIP3    H128475   5.160   4.644  14.431  0.9764  0.1708  1.1960
 2328TIP3    H228476   5.168   4.768  14.344 -2.0584 -1.3072 -1.3943
 2329TIP3   OH228477   0.506   1.587  16.959 -1.0851 -0.6047 -0.2045
 2329TIP3    H128478   0.553   1.516  17.004 -1.2438  0.1464  1.2179
 2329TIP3    H228479   0.435   1.543  16.912 -1.1031 -1.4120  0.5395
 2330TIP3   OH228480   2.913   5.523  11.054  0.5703  0.0351  0.2395
 2330TIP3    H128481   2.873   5.546  11.138 -0.1213  1.2412 -0.3959
 2330TIP3    H228482   2.854   5.457  11.017  0.2396  0.3537  0.1903
 2331TIP3   OH228483   1.992   3.423  14.634  0.4812  0.2635  0.2369
 2331TIP3    H128484   2.044   3.388  14.562  0.2497  1.1775 -0.3954
 2331TIP3    H228485   1.916   3.365  14.639  0.6942 -0.0379  0.0141
 2332TIP3   OH228486   1.646   5.916   0.962 -0.0015  0.0368  0.0286
 2332TIP3    H128487   1.703   5.863   1.017  2.2155  1.4757 -0.7550
 2332TIP3    H228488   1.621   5.990   1.018  0.6566  0.5022 -0.2907
 2333TIP3   OH228489   5.209   1.882   2.462 -0.9954 -0.3508 -0.3183
 2333TIP3    H128490   5.190   1.967   2.503  1.0184 -0.2565  0.5218
 2333TIP3    H228491   5.137   1.825   2.489 -0.2388 -0.0349  2.6549
 2334TIP3   OH228492   6.519   2.358   0.046 -0.2195 -0.4422 -0.2432
 2334TIP3    H128493   6.431   2.383   0.071  0.0055  0.2781 -0.1602
 2334TIP3    H228494   6.514   2.263   0.031 -1.1372 -0.3127 -0.8081
 2335TIP3   OH228495   6.320   2.783   4.564  0.7352 -0.3483  0.7202
 2335TIP3    H128496   6.351   2.846   4.629 -1.4708  0.2459  1.2630
 2335TIP3    H228497   6.227   2.801   4.555  0.1875 -2.9836  0.2737
 2336TIP3   OH228498   0.666   0.059  11.682  0.1702  0.0614 -0.1331
 2336TIP3    H128499   0.614  -0.021  11.691  0.6125 -0.3631 -1.2376
 2336TIP3    H228500   0.747   0.041  11.731 -0.0437  0.1288  0.2527
 2337TIP3   OH228501   0.012   0.140   4.056 -0.2675 -0.3363  0.9252
 2337TIP3    H128502  -0.075   0.162   4.089 -0.3449 -1.5478  1.5567
 2337TIP3    H228503  -0.004   0.093   3.974 -0.2261 -0.8140  1.1879
 2338TIP3   OH228504   3.297   0.647  16.514  0.6021  0.4218  0.0905
 2338TIP3    H128505   3.358   0.626  16.444 -0.8468 -2.8509 -0.3726
 2338TIP3    H228506   3.347   0.635  16.594  1.2236  0.2447 -0.3168
 2339TIP3   OH228507   0.253   1.554   4.532 -0.3322  0.1116 -0.3622
 2339TIP3    H128508   0.294   1.530   4.615 -0.2488 -1.2694 -0.7702
 2339TIP3    H228509   0.240   1.470   4.487  0.3251  0.8835 -2.0643
 2340TIP3   OH228510   5.772   5.628  14.627  0.2356  0.2860  0.0995
 2340TIP3    H128511   5.797   5.599  14.540 -1.5920  1.9003 -1.0345
 2340TIP3    H228512   5.831   5.702  14.645 -0.9438  1.4981 -0.8444
 2341TIP3   OH228513   5.451   4.853  12.800 -1.0774  0.4071  0.2258
 2341TIP3    H128514   5.392   4.925  12.778 -1.9511 -0.6690 -1.1030
 2341TIP3    H228515   5.403   4.802  12.865 -0.5812  0.8071  0.9371
 2342TIP3   OH228516   4.492   2.145  15.795 -0.2283 -0.0569  0.7257
 2342TIP3    H128517   4.535   2.068  15.832 -0.3280  0.0297  1.0263
 2342TIP3    H228518   4.521   2.148  15.704  0.2356 -0.1176  0.8725
 2343TIP3   OH228519   6.021   0.009  14.262 -0.0818 -0.3591 -0.3015
 2343TIP3    H128520   5.972   0.091  14.257  0.9888  0.3012 -0.4747
 2343TIP3    H228521   6.097   0.031  14.316 -0.4865 -1.6261  0.8453
 2344TIP3   OH228522   2.863   5.532   2.855 -0.1457 -0.3903 -0.3964
 2344TIP3    H128523   2.813   5.450   2.850  0.4801 -0.8914  1.0802
 2344TIP3    H228524   2.849   5.563   2.944  0.0377  0.8643 -0.7892
 2345TIP3   OH228525   2.916   5.761   0.565  0.3992  0.1624  0.3121
 2345TIP3    H128526   2.848   5.754   0.498  0.1420 -0.3045  0.6147
 2345TIP3    H228527   2.868   5.765   0.647  0.7315 -3.0790  0.7868
 2346TIP3   OH228528   0.929   5.982  12.706  0.2169  0.7921  0.0885
 2346TIP3    H128529   0.919   6.030  12.788  1.4770 -1.0719  1.4181
 2346TIP3    H228530   1.009   6.017  12.667  0.2620  0.8723  0.2513
 2347TIP3   OH228531   6.028   3.312  10.822  0.5023 -0.8449  0.5788
 2347TIP3    H128532   6.098   3.266  10.775  1.2225 -0.1783  0.9848
 2347TIP3    H228533   5.956   3.314  10.759  1.2515 -0.4808 -0.3014
 2348TIP3   OH228534   3.278   6.406  10.459 -0.1398 -0.1052  0.0310
 2348TIP3    H128535   3.217   6.445  10.396  0.1978  2.3997  1.1535
 2348TIP3    H228536   3.225   6.393  10.538  0.4333  0.8264  0.5841
 2349TIP3   OH228537   5.953   3.022  10.766 -0.1323 -0.0504 -0.3358
 2349TIP3    H128538   5.883   2.997  10.826  0.6930  1.7063  1.4852
 2349TIP3    H228539   5.915   3.012  10.679 -1.9760 -0.9946  0.5262
 2350TIP3   OH228540   4.257   1.647  11.329  0.7221 -0.3141  0.1476
 2350TIP3    H128541   4.279   1.600  11.249 -2.1966 -3.1357  0.7691
 2350TIP3    H228542   4.212   1.582  11.383 -0.6025  2.3983  2.5871
 2351TIP3   OH228543   5.865   2.982   6.522  0.1293 -0.2258  0.2363
 2351TIP3    H128544   5.901   3.060   6.564  0.8045 -0.2310 -0.3009
 2351TIP3    H228545   5.942   2.933   6.494 -0.2927 -0.1717 -1.0772
 2352TIP3   OH228546   0.051   3.857  11.265  0.5377  0.1772 -0.1417
 2352TIP3    H128547   0.045   3.796  11.339  2.9199  1.0212  0.8341
 2352TIP3    H228548   0.026   3.942  11.301 -2.6493 -0.0440 -1.4731
 2353TIP3   OH228549   5.798   4.621   4.805 -0.6789 -0.1060  0.4703
 2353TIP3    H128550   5.760   4.709   4.815  0.2152  0.1328  2.1858
 2353TIP3    H228551   5.762   4.571   4.878 -2.2011 -1.6038 -1.2222
 2354TIP3   OH228552   2.046   5.325   2.652  0.3169  0.4158 -0.4463
 2354TIP3    H128553   2.084   5.238   2.662  0.2378  0.4293 -0.0241
 2354TIP3    H228554   2.104   5.383   2.702 -1.2367  0.1718  1.7797
 2355TIP3   OH228555   5.992   1.832   5.750  0.3576 -0.1467  0.3792
 2355TIP3    H128556   5.951   1.773   5.813 -3.5277 -0.6864 -2.3066
 2355TIP3    H228557   5.920   1.888   5.720  2.7677  2.3812 -1.1185
 2356TIP3   OH228558   5.224   3.485  11.900  0.1390  0.2880  0.3620
 2356TIP3    H128559   5.223   3.450  11.989  0.0073  2.1873  1.1635
 2356TIP3    H228560   5.132   3.494  11.877  0.0381  2.6708  1.3244
 2357TIP3   OH228561   6.285   5.579   5.811  0.0002  0.2073  0.5748
 2357TIP3    H128562   6.320   5.632   5.882 -0.4367 -0.4483  1.3034
 2357TIP3    H228563   6.195   5.611   5.799  0.4679  1.1525 -0.5441
 2358TIP3   OH228564   4.708   5.220  12.580  0.0529 -0.0003  0.5697
 2358TIP3    H128565   4.707   5.131  12.615 -0.5824 -0.4349 -0.5312
 2358TIP3    H228566   4.758   5.270  12.645  0.6779 -1.2097  1.0522
 2359TIP3   OH228567   6.092   3.318  14.637  0.0094 -0.2415  0.0311
 2359TIP3    H128568   6.159   3.261  14.599 -0.5439 -0.4531 -0.6389
 2359TIP3    H228569   6.141   3.374  14.698  0.3794 -2.3144  1.7692
 2360TIP3   OH228570   2.554   0.594  12.852  0.0666  1.2437 -0.1818
 2360TIP3    H128571   2.620   0.525  12.855 -0.4951  0.6110 -1.4819
 2360TIP3    H228572   2.597   0.670  12.892  0.2415 -0.1701  2.5391
 2361TIP3   OH228573   0.694   4.401  12.666 -0.8659 -0.1003  0.0078
 2361TIP3    H128574   0.681   4.331  12.730  1.6821  0.2253  0.9904
 2361TIP3    H228575   0.729   4.357  12.589 -0.1763 -0.0362  0.2802
 2362TIP3   OH228576   2.344   5.864  10.253  0.1626  0.0839 -0.2326
 2362TIP3    H128577   2.405   5.907  10.313  0.8465 -2.1210  0.7312
 2362TIP3    H228578   2.395   5.848  10.173  0.7639 -1.3668  0.4160
 2363TIP3   OH228579   0.262   0.484   3.460 -0.0933  0.5053  0.0758
 2363TIP3    H128580   0.257   0.493   3.555  0.0458 -1.5123  0.3128
 2363TIP3    H228581   0.176   0.454   3.433  0.3347 -0.5043 -0.2154
 2364TIP3   OH228582   4.328   2.301  13.653 -0.0992  0.4256  0.0899
 2364TIP3    H128583   4.297   2.373  13.709  0.2975  0.4185  0.3240
 2364TIP3    H228584   4.250   2.272  13.606 -0.5067  0.2256  0.8746
 2365TIP3   OH228585   6.728   5.579  14.514 -0.2158 -0.1241 -0.1057
 2365TIP3    H128586   6.666   5.543  14.577 -0.1240  0.7507  0.4957
 2365TIP3    H228587   6.690   5.558  14.428 -1.0404 -0.1305  0.2500
 2366TIP3   OH228588   2.629   3.143  14.247  0.6664  0.0785  0.4413
 2366TIP3    H128589   2.551   3.088  14.242  1.2513 -0.7120 -0.3582
 2366TIP3    H228590   2.642   3.159  14.340 -0.8575  0.8410  0.5583
 2367TIP3   OH228591   5.562   5.732   1.875 -0.1003  0.1580  0.5461
 2367TIP3    H128592   5.570   5.713   1.968  0.3252 -0.1149  0.4544
 2367TIP3    H228593   5.493   5.798   1.870 -1.3539 -1.0763  0.9062
 2368TIP3   OH228594   0.165   3.149  12.893 -0.8876  0.3038  0.2606
 2368TIP3    H128595   0.216   3.071  12.916 -1.9477 -0.4363  0.1629
 2368TIP3    H228596   0.231   3.217  12.882  0.1624 -0.7855 -0.5603
 2369TIP3   OH228597   6.370   4.793  11.975 -0.1108  0.2556  0.1011
 2369TIP3    H128598   6.372   4.886  11.954  0.2940 -0.1234 -1.6683
 2369TIP3    H228599   6.462   4.768  11.983 -0.2227  0.3606  2.4720
 2370TIP3   OH228600   5.835   3.779  17.214 -0.1392 -0.2389  0.5772
 2370TIP3    H128601   5.820   3.755  17.306 -0.5786 -2.8698 -0.0854
 2370TIP3    H228602   5.883   3.704  17.178 -2.8737 -0.8441 -2.1160
 2371TIP3   OH228603   4.761   4.291  11.291 -0.4884  0.1398  0.0207
 2371TIP3    H128604   4.782   4.384  11.278 -1.1817 -0.0274 -2.9815
 2371TIP3    H228605   4.810   4.266  11.369  3.1976  2.0019 -1.4468
 2372TIP3   OH228606   0.419   1.130   1.284 -0.1867 -0.1599 -0.3917
 2372TIP3    H128607   0.456   1.183   1.214  0.6217 -1.8119 -1.2867
 2372TIP3    H228608   0.325   1.127   1.265 -0.6542  2.7285  0.9754
 2373TIP3   OH228609   4.578   0.530  12.967  0.2471  0.1170 -0.0728
 2373TIP3    H128610   4.484   0.548  12.974 -0.7792 -2.9825 -3.0373
 2373TIP3    H228611   4.589   0.494  12.879  4.4962  1.4504 -0.2852
 2374TIP3   OH228612   4.913   3.379   0.416 -0.2771 -0.1935  0.1979
 2374TIP3    H128613   4.863   3.434   0.356  1.8418  0.6340 -0.9155
 2374TIP3    H228614   4.952   3.312   0.359  2.3371  1.0208  0.4331
 2375TIP3   OH228615   0.345   4.644  17.263  0.2448  0.2424  0.2095
 2375TIP3    H128616   0.281   4.644  17.334 -1.2007  2.0358 -1.0203
 2375TIP3    H228617   0.398   4.721  17.279 -0.7034  1.2081 -1.1350
 2376TIP3   OH228618   4.664   5.765  14.528  0.5565  0.3299 -0.0693
 2376TIP3    H128619   4.607   5.774  14.452  1.9992  0.9409 -1.1177
 2376TIP3    H228620   4.711   5.683  14.513 -0.9918 -0.9092  1.4855
 2377TIP3   OH228621   4.746   5.105   5.869  0.2547  0.3560  0.4030
 2377TIP3    H128622   4.671   5.132   5.817  1.0522 -1.1921 -1.7070
 2377TIP3    H228623   4.711   5.093   5.957 -2.7107 -2.8350 -0.9650
 2378TIP3   OH228624   1.293   3.587   1.161  0.2283 -0.2698  0.2753
 2378TIP3    H128625   1.257   3.647   1.225  0.2246  0.1902 -0.1461
 2378TIP3    H228626   1.384   3.615   1.151 -0.1262  0.5554 -0.9167
 2379TIP3   OH228627   3.520   4.354  12.847 -0.2250  0.0341 -0.2256
 2379TIP3    H128628   3.544   4.295  12.776 -1.3859 -3.6664  2.1431
 2379TIP3    H228629   3.597   4.355  12.904 -0.9908 -1.2934  0.9178
 2380TIP3   OH228630   5.086   1.608  11.253  0.3774  0.0618 -0.7832
 2380TIP3    H128631   5.057   1.517  11.256 -1.0758  0.4657 -1.4359
 2380TIP3    H228632   5.023   1.654  11.308 -1.0074  1.1438 -3.1042
 2381TIP3   OH228633   3.029   1.893   5.657 -0.3305  0.6842  0.3482
 2381TIP3    H128634   2.947   1.941   5.646 -0.1682  1.4611  2.1933
 2381TIP3    H228635   3.097   1.959   5.651  0.1355  0.1532 -0.3945
 2382TIP3   OH228636   5.002   1.762  17.200  0.0236 -0.3502 -0.1205
 2382TIP3    H128637   5.056   1.683  17.198 -0.2018 -0.5070 -0.0367
 2382TIP3    H228638   4.948   1.752  17.279 -1.7307 -1.2623 -1.3570
 2383TIP3   OH228639   3.033   0.246  12.866 -0.1894 -0.1266 -0.5665
 2383TIP3    H128640   3.060   0.282  12.782  1.2193 -0.1770 -0.1543
 2383TIP3    H228641   3.013   0.323  12.920  0.4243 -0.0368 -0.4626
 2384TIP3   OH228642   6.388   4.370   6.015  0.0198  0.1309 -0.0925
 2384TIP3    H128643   6.358   4.458   6.038  0.1997 -0.3125  2.0034
 2384TIP3    H228644   6.460   4.352   6.075  0.2815 -1.2855 -0.7841
 2385TIP3   OH228645   4.786   1.248  13.216  0.3727 -0.3453  0.1315
 2385TIP3    H128646   4.874   1.263  13.249  0.6163 -1.7124  0.1612
 2385TIP3    H228647   4.775   1.312  13.145  2.0666 -1.2996 -1.0529
 2386TIP3   OH228648   2.244   5.357  10.319  0.4734  0.3652  0.0926
 2386TIP3    H128649   2.201   5.323  10.240 -0.4027  0.1911  0.6296
 2386TIP3    H228650   2.222   5.450  10.321 -2.0463 -0.1682  1.6656
 2387TIP3   OH228651   0.269   4.654   5.125 -0.4301 -0.0171  0.0247
 2387TIP3    H128652   0.179   4.654   5.158  0.0537  1.0413  1.4556
 2387TIP3    H228653   0.264   4.611   5.040 -1.9729 -1.6739  0.9048
 2388TIP3   OH228654   5.662   6.096  13.547  0.2986 -0.7910  0.2759
 2388TIP3    H128655   5.733   6.108  13.610  1.2488 -1.0600 -0.7175
 2388TIP3    H228656   5.687   6.018  13.497 -1.0676 -1.3338  0.3834
 2389TIP3   OH228657   1.520   3.759   1.082 -0.1978  0.0148 -0.3184
 2389TIP3    H128658   1.605   3.749   1.041 -0.6338 -0.9763 -1.0332
 2389TIP3    H228659   1.505   3.854   1.084  0.8602  0.1935 -0.2727
 2390TIP3   OH228660   2.269   6.286  14.182  0.0661  0.2649 -0.0429
 2390TIP3    H128661   2.302   6.209  14.136  1.3640  0.7290  0.0814
 2390TIP3    H228662   2.346   6.325  14.223 -0.5180  1.7688 -0.3023
 2391TIP3   OH228663   2.421   5.494   3.602 -0.3787 -0.0013  0.1762
 2391TIP3    H128664   2.451   5.403   3.601  0.3942  0.2044  1.8655
 2391TIP3    H228665   2.351   5.496   3.537 -0.2347 -1.7365 -0.0907
 2392TIP3   OH228666   4.508   2.529   0.477  0.4505  0.1257  0.4048
 2392TIP3    H128667   4.564   2.458   0.506  0.1458 -0.0863  0.4784
 2392TIP3    H228668   4.547   2.559   0.395  1.4866  0.9186  1.1498
 2393TIP3   OH228669   4.324   5.785  11.656 -0.0508 -0.5863 -0.1727
 2393TIP3    H128670   4.372   5.843  11.598  1.0929 -0.8575  0.4735
 2393TIP3    H228671   4.232   5.807  11.641  0.3538  1.9858  0.6198
 2394TIP3   OH228672   4.215   1.023   4.917  0.1857  0.1859 -0.3210
 2394TIP3    H128673   4.253   1.064   4.840 -0.4548  1.3977 -0.0120
 2394TIP3    H228674   4.271   1.051   4.990  1.0598 -1.3214 -0.3678
 2395TIP3   OH228675   1.771   6.163  11.009  0.4907 -0.2704  0.2622
 2395TIP3    H128676   1.790   6.256  11.015  3.7662 -0.7243 -1.0803
 2395TIP3    H228677   1.689   6.158  10.960  1.9284  1.9209 -2.6566
 2396TIP3   OH228678   6.366   2.585  13.124  0.5610  0.2479  0.0585
 2396TIP3    H128679   6.393   2.664  13.171  2.1683  0.5803 -1.3412
 2396TIP3    H228680   6.271   2.581  13.137  0.4742  2.2562  0.4068
 2397TIP3   OH228681   5.698   5.909   3.255 -0.3076  0.0610 -0.1211
 2397TIP3    H128682   5.747   5.829   3.274  1.9815  0.9725 -1.6918
 2397TIP3    H228683   5.703   5.960   3.336  0.8909 -0.1050 -0.0741
 2398TIP3   OH228684   1.176   5.605  11.986  0.0490  0.0670  0.4407
 2398TIP3    H128685   1.178   5.654  11.904 -1.7976 -0.6341 -0.0564
 2398TIP3    H228686   1.184   5.513  11.959  0.3042 -0.1187  1.1243
 2399TIP3   OH228687   3.364   6.360   5.277 -0.0091 -0.5209 -0.7435
 2399TIP3    H128688   3.303   6.337   5.208 -0.1327 -2.3184 -0.0781
 2399TIP3    H228689   3.313   6.351   5.358  0.8557 -1.0523 -0.2472
 2400TIP3   OH228690   4.225   3.902   4.426  0.8503 -0.1654 -0.3259
 2400TIP3    H128691   4.264   3.917   4.512 -0.8099  1.4591  0.2116
 2400TIP3    H228692   4.139   3.944   4.431  0.6627 -0.1102 -2.7481
 2401TIP3   OH228693   3.010   6.422   2.963  0.1449  0.5294 -0.7268
 2401TIP3    H128694   2.961   6.487   2.913 -0.5887  0.8819  0.3879
 2401TIP3    H228695   3.058   6.371   2.898  0.2238  1.7770 -1.6648
 2402TIP3   OH228696   1.209   1.545   3.521  0.3852  0.4618  0.3765
 2402TIP3    H128697   1.248   1.520   3.437 -0.5025 -1.1998  0.4102
 2402TIP3    H228698   1.135   1.600   3.498 -0.0947 -0.3104  0.0162
 2403TIP3   OH228699   0.035   3.041  15.297 -0.2345 -0.6526  0.4374
 2403TIP3    H128700   0.043   3.062  15.390  1.6533  0.4313  0.0728
 2403TIP3    H228701   0.031   3.126  15.253  0.4705 -1.1342 -0.5931
 2404TIP3   OH228702   4.918   1.277   2.879  0.4886  0.1829  0.3614
 2404TIP3    H128703   4.855   1.330   2.830  0.4711  0.4910  0.7159
 2404TIP3    H228704   4.949   1.334   2.949  1.5110  0.1990 -0.0778
 2405TIP3   OH228705   5.457   1.994   0.744  0.5710 -0.0173 -0.1839
 2405TIP3    H128706   5.479   1.905   0.715  0.7002  0.3152 -1.1574
 2405TIP3    H228707   5.445   2.042   0.662 -1.2933  0.4215  0.3027
 2406TIP3   OH228708   3.114   4.608   3.776 -0.0026  0.5770 -0.6175
 2406TIP3    H128709   3.134   4.606   3.870 -1.8735 -1.3804 -0.1897
 2406TIP3    H228710   3.190   4.566   3.735  0.4687  0.7245  0.0866
 2407TIP3   OH228711   6.196   4.509   5.127 -0.6122 -0.5202  0.4294
 2407TIP3    H128712   6.206   4.417   5.151  0.8620 -0.7590 -0.9291
 2407TIP3    H228713   6.201   4.510   5.032  2.1712  1.1869  0.4870
 2408TIP3   OH228714   4.059   2.292   5.626 -0.6905 -0.1678  0.0590
 2408TIP3    H128715   4.054   2.206   5.584  0.6564 -0.1255 -0.2545
 2408TIP3    H228716   4.125   2.339   5.576 -0.7735  0.7382  0.7699
 2409TIP3   OH228717   1.766   0.946   4.128  0.7049 -0.2242  0.4559
 2409TIP3    H128718   1.712   1.016   4.167 -0.0133  0.9938 -2.4942
 2409TIP3    H228719   1.702   0.886   4.090  1.3749 -1.8610  1.7807
 2410TIP3   OH228720   4.943   1.145   1.684  1.0010  0.0585 -0.3984
 2410TIP3    H128721   4.855   1.182   1.675 -0.0413 -2.3012 -0.6783
 2410TIP3    H228722   4.985   1.200   1.750 -0.5278  1.4712 -0.5209
 2411TIP3   OH228723   5.346   6.225   6.445 -0.4856  0.4283 -0.9946
 2411TIP3    H128724   5.364   6.319   6.432 -1.1551  0.4260 -2.0752
 2411TIP3    H228725   5.260   6.212   6.406 -1.5876 -0.1343  1.4283
 2412TIP3   OH228726   3.224   0.965  12.939 -0.0473  0.4347  0.0082
 2412TIP3    H128727   3.245   0.894  13.000 -1.2104  0.6901  0.7180
 2412TIP3    H228728   3.139   0.942  12.902 -0.9843  1.9897  1.0891
 2413TIP3   OH228729   4.634   1.228  14.399  0.3238 -0.0317 -0.3623
 2413TIP3    H128730   4.660   1.315  14.431  2.5255  0.1057 -2.2055
 2413TIP3    H228731   4.717   1.185  14.378 -0.8040 -1.6375 -1.7982
 2414TIP3   OH228732   5.107   5.435  10.329 -0.8811 -0.3035  0.2217
 2414TIP3    H128733   5.141   5.472  10.410 -2.2033  0.5354  0.4160
 2414TIP3    H228734   5.179   5.381  10.296  0.2944  0.6745  1.0721
 2415TIP3   OH228735   0.312   1.299   6.454 -0.1032  0.4358 -0.3574
 2415TIP3    H128736   0.282   1.244   6.526 -1.0846 -0.4570 -1.4063
 2415TIP3    H228737   0.399   1.265   6.433  0.2349  0.7702  0.4461
 2416TIP3   OH228738   2.730   6.314   3.623  0.0227  0.1349  0.1876
 2416TIP3    H128739   2.799   6.373   3.653 -0.7267  1.1994 -0.0856
 2416TIP3    H228740   2.711   6.343   3.533  0.8412 -1.6847 -0.6067
 2417TIP3   OH228741   6.278   6.107  15.120  0.0486 -0.2676  0.2101
 2417TIP3    H128742   6.235   6.030  15.082 -1.7353  1.4111 -1.4610
 2417TIP3    H228743   6.371   6.086  15.119 -0.3833 -2.3555 -0.2743
 2418TIP3   OH228744   2.932   1.613   0.251  0.1807  0.4212 -0.0204
 2418TIP3    H128745   2.999   1.562   0.206  0.5552  0.2403  0.7288
 2418TIP3    H228746   2.885   1.549   0.304 -1.3580  0.3339 -1.4021
 2419TIP3   OH228747   5.170   2.648  11.661 -0.2669 -0.2905 -0.1378
 2419TIP3    H128748   5.133   2.562  11.681 -1.2576  0.0367 -0.5015
 2419TIP3    H228749   5.233   2.664  11.732 -2.5299  0.1655  1.9063
 2420TIP3   OH228750   3.301   6.440   1.628  0.0055 -0.4397 -0.0333
 2420TIP3    H128751   3.321   6.521   1.580  0.2935 -0.3923  0.1630
 2420TIP3    H228752   3.235   6.396   1.574  1.1315 -0.9225 -1.0693
 2421TIP3   OH228753   6.504   6.421  15.032 -0.4472  0.7351  0.3840
 2421TIP3    H128754   6.467   6.481  14.966 -0.7130 -0.9572 -1.0888
 2421TIP3    H228755   6.597   6.443  15.033 -0.5460  1.2304 -0.0728
 2422TIP3   OH228756   5.912   4.062  15.489 -0.1788  0.0768 -0.4565
 2422TIP3    H128757   5.946   4.076  15.401  1.2678  0.5652  0.1515
 2422TIP3    H228758   5.818   4.078  15.481 -0.0325  0.3488 -1.8526
 2423TIP3   OH228759   1.633   0.879  16.552 -0.1871  0.3852 -0.3199
 2423TIP3    H128760   1.555   0.847  16.598  0.6107  0.0646  0.8741
 2423TIP3    H228761   1.670   0.801  16.510  0.6454  0.0911  0.9055
 2424TIP3   OH228762   6.371   5.314  13.462 -0.4901  0.0767 -0.6399
 2424TIP3    H128763   6.381   5.240  13.402 -0.8322 -0.5923  0.1104
 2424TIP3    H228764   6.374   5.391  13.405  1.7416 -0.3814 -1.2760
 2425TIP3   OH228765   2.559   4.265  14.570  0.0968 -0.2588  0.7638
 2425TIP3    H128766   2.611   4.194  14.610 -0.6048 -0.9081  0.5508
 2425TIP3    H228767   2.618   4.305  14.507  0.6702 -0.3184  1.2470
 2426TIP3   OH228768   1.919   3.441   2.250 -0.0022  0.0172  0.4370
 2426TIP3    H128769   1.853   3.449   2.181  0.7343  1.6218 -0.1073
 2426TIP3    H228770   1.913   3.522   2.299  0.9854 -0.1888  0.9176
 2427TIP3   OH228771   2.160   4.198   3.856 -0.0294  0.1075  0.6373
 2427TIP3    H128772   2.253   4.181   3.876  0.0832  0.0393  0.0557
 2427TIP3    H228773   2.158   4.213   3.762 -0.4879  0.9902  0.7819
 2428TIP3   OH228774   3.437   2.893   4.352  0.8472  0.1816 -0.1799
 2428TIP3    H128775   3.462   2.986   4.348  0.5202  0.2970  0.3405
 2428TIP3    H228776   3.391   2.878   4.269 -0.5593  0.9348  0.4238
 2429TIP3   OH228777   3.192   4.560   4.030  0.6158  0.0737 -0.4840
 2429TIP3    H128778   3.278   4.542   3.993  0.4049 -0.2576 -0.8137
 2429TIP3    H228779   3.161   4.475   4.061  1.4180  0.5437  1.8489
 2430TIP3   OH228780   0.573   4.299   3.338  0.2532  0.2072  0.2419
 2430TIP3    H128781   0.621   4.379   3.358  0.5587  0.1187 -0.1128
 2430TIP3    H228782   0.520   4.282   3.415  1.6437 -0.3155  1.1289
 2431TIP3   OH228783   0.772   2.671  16.074 -0.1608  0.4673  0.1206
 2431TIP3    H128784   0.756   2.598  16.134 -0.7043  1.1050  0.7580
 2431TIP3    H228785   0.696   2.671  16.017  0.5124 -0.3525 -0.8214
 2432TIP3   OH228786   5.078   3.860   5.524  0.1117  0.2828  0.1295
 2432TIP3    H128787   4.998   3.808   5.520  0.6595 -0.5592 -0.2370
 2432TIP3    H228788   5.071   3.920   5.449 -0.7002  1.0257  0.7789
 2433TIP3   OH228789   5.424   0.137  17.058  0.0533 -0.5581 -0.5575
 2433TIP3    H128790   5.478   0.156  17.135 -0.0460 -1.1107 -0.3477
 2433TIP3    H228791   5.456   0.053  17.026  0.2057 -0.2507 -1.2297
 2434TIP3   OH228792   6.569   6.746   2.385 -0.9117  0.5853 -0.3712
 2434TIP3    H128793   6.548   6.786   2.469 -0.2999  0.6325 -0.2344
 2434TIP3    H228794   6.648   6.695   2.401 -0.4179  1.1082 -1.0525
 2435TIP3   OH228795   5.416   4.358   2.015 -0.1221 -0.6802 -0.0001
 2435TIP3    H128796   5.397   4.367   2.109 -0.6922  0.2997 -0.2010
 2435TIP3    H228797   5.340   4.397   1.971  1.7718  2.3770 -0.8394
 2436TIP3   OH228798   3.882   1.746   5.454 -0.2686  0.0503 -0.0053
 2436TIP3    H128799   3.788   1.728   5.451 -0.4964  1.1813 -0.4258
 2436TIP3    H228800   3.889   1.837   5.424  0.9790 -0.0827 -0.1555
 2437TIP3   OH228801   4.015   3.119  13.452 -0.2342 -0.2765 -0.3131
 2437TIP3    H128802   4.105   3.124  13.420  0.4109 -0.1753  1.3983
 2437TIP3    H228803   3.993   3.025  13.448  0.8958 -0.6834  1.5577
 2438TIP3   OH228804   0.599   4.983  12.473  0.0682  0.4187  0.2930
 2438TIP3    H128805   0.660   4.935  12.530  0.0851 -0.3234 -0.3312
 2438TIP3    H228806   0.653   5.010  12.398  0.2665  2.2066  1.0458
 2439TIP3   OH228807   0.349   5.321  17.064  0.2738  0.5334 -0.1761
 2439TIP3    H128808   0.319   5.270  17.138  1.4939  0.5811  0.3760
 2439TIP3    H228809   0.444   5.327  17.076  0.5289  0.3520 -1.8543
 2440TIP3   OH228810   0.712   5.835   0.525 -0.2212  0.4758  0.4710
 2440TIP3    H128811   0.715   5.920   0.481  0.2541 -0.6013 -1.6608
 2440TIP3    H228812   0.625   5.801   0.504 -0.2954  0.2897  1.0701
 2441TIP3   OH228813   6.306   1.962   0.782  0.0209 -0.5143 -0.6228
 2441TIP3    H128814   6.376   1.937   0.720 -0.1370 -0.0664 -0.9862
 2441TIP3    H228815   6.232   1.984   0.726  0.4312  1.6747 -0.3789
 2442TIP3   OH228816   1.873   6.430   4.076  0.5899 -0.0263  0.4871
 2442TIP3    H128817   1.925   6.405   4.152  2.5999 -0.1227 -0.8564
 2442TIP3    H228818   1.864   6.350   4.025  1.4964  0.5605 -0.6380
 2443TIP3   OH228819   5.937   1.307  16.822 -0.4688 -0.2721 -0.5907
 2443TIP3    H128820   6.019   1.260  16.831  0.9230  2.3833  2.0149
 2443TIP3    H228821   5.913   1.332  16.911 -1.8894  2.5459 -1.6321
 2444TIP3   OH228822   1.392   2.706   1.372  0.4053  0.0863 -0.1089
 2444TIP3    H128823   1.457   2.763   1.330 -0.8914  1.9411  0.2816
 2444TIP3    H228824   1.318   2.707   1.312 -0.3698  0.3927  0.8370
 2445TIP3   OH228825   3.154   4.411   4.576 -0.2495 -0.2545  0.3184
 2445TIP3    H128826   3.212   4.464   4.521 -1.9493  1.2274 -0.1284
 2445TIP3    H228827   3.198   4.325   4.581  0.7780  0.0720 -1.9561
 2446TIP3   OH228828   4.680   2.447  16.775 -0.1441  0.1314 -0.2690
 2446TIP3    H128829   4.732   2.375  16.740  0.1191 -1.0885  2.3907
 2446TIP3    H228830   4.721   2.468  16.859 -1.7848  1.6043  0.2290
 2447TIP3   OH228831   5.255   1.557   4.901  0.2837 -0.3175 -0.1384
 2447TIP3    H128832   5.277   1.489   4.837 -0.3910 -1.2094  0.5576
 2447TIP3    H228833   5.243   1.636   4.848 -0.6422 -1.1105 -1.1735
 2448TIP3   OH228834   2.723   6.499   0.617  0.0569 -0.3971  0.3272
 2448TIP3    H128835   2.679   6.421   0.583  2.1522 -1.7042  0.4858
 2448TIP3    H228836   2.742   6.551   0.539  1.2152 -1.4378 -0.1069
 2449TIP3   OH228837   0.760   1.516   5.132  0.3898  0.4416  0.0119
 2449TIP3    H128838   0.731   1.587   5.075 -0.8375  0.8181  1.0721
 2449TIP3    H228839   0.686   1.455   5.135  1.5608 -1.1399 -1.2068
 2450TIP3   OH228840   1.784   6.212   3.893  0.3493  0.9154 -0.0545
 2450TIP3    H128841   1.777   6.118   3.908 -0.4778  1.0694  0.5801
 2450TIP3    H228842   1.694   6.241   3.879  0.6377  1.5581 -0.5983
 2451TIP3   OH228843   0.166   5.294  14.456  0.2626  0.3375  0.6591
 2451TIP3    H128844   0.251   5.251  14.452  0.3687  0.3854  1.9122
 2451TIP3    H228845   0.112   5.249  14.391  1.0610 -0.0950  0.2923
 2452TIP3   OH228846   6.093   1.354   1.165  0.2198 -0.2447  0.0080
 2452TIP3    H128847   6.094   1.340   1.071  1.7910 -0.0107 -0.0515
 2452TIP3    H228848   6.020   1.414   1.180 -1.9077 -2.5242 -0.6419
 2453TIP3   OH228849   5.074   2.752  14.156  0.1448  0.3523 -0.5029
 2453TIP3    H128850   5.044   2.840  14.133 -0.6887 -0.1510 -1.4437
 2453TIP3    H228851   5.002   2.694  14.131  0.0877 -0.4906  1.4122
 2454TIP3   OH228852   2.332   2.179  14.372  0.0735  0.1866 -0.1080
 2454TIP3    H128853   2.398   2.110  14.369  0.5165  0.6226 -0.3959
 2454TIP3    H228854   2.359   2.234  14.445 -0.3972 -0.0482  0.2565
 2455TIP3   OH228855   6.425   5.465  14.433  0.1669  0.7145 -0.2337
 2455TIP3    H128856   6.417   5.499  14.522 -1.8200  2.5402 -1.0331
 2455TIP3    H228857   6.335   5.460  14.401  0.6190 -2.1746 -1.4005
 2456TIP3   OH228858   4.902   2.640  16.219  0.2983 -0.3442  0.3414
 2456TIP3    H128859   4.832   2.607  16.274 -1.5916 -1.1251 -2.3221
 2456TIP3    H228860   4.943   2.562  16.181 -0.0599  0.1643 -1.1818
 2457TIP3   OH228861   4.328   5.961  12.321  0.2401 -0.3797  0.5919
 2457TIP3    H128862   4.357   5.876  12.288 -1.6139  0.0397 -2.5487
 2457TIP3    H228863   4.345   6.022  12.249 -0.0805  1.5744  2.0846
 2458TIP3   OH228864   1.034   3.915   2.249 -0.3094  0.3246 -0.4341
 2458TIP3    H128865   1.059   4.003   2.276 -0.3092  1.0598 -2.5867
 2458TIP3    H228866   1.018   3.868   2.330  0.3717  2.1053  0.7904
 2459TIP3   OH228867   1.254   5.004   4.267 -0.6553 -0.1994 -0.3220
 2459TIP3    H128868   1.218   5.088   4.296  0.0004 -0.5490  1.6507
 2459TIP3    H228869   1.196   4.976   4.196 -1.9348  1.0795  0.1709
 2460TIP3   OH228870   3.119   4.121   4.271  0.2073 -0.5829  0.6603
 2460TIP3    H128871   3.083   4.102   4.358  0.9749  1.4078  1.4780
 2460TIP3    H228872   3.167   4.042   4.247 -0.7772 -1.5107  1.6305
 2461TIP3   OH228873   1.165   1.322  16.085 -0.1382 -0.0574  0.3968
 2461TIP3    H128874   1.071   1.336  16.094 -0.1809 -1.0856  1.8953
 2461TIP3    H228875   1.182   1.334  15.992 -1.3438  2.4757  0.3999
 2462TIP3   OH228876   0.507   2.445  13.359  0.2933 -0.3298  0.2207
 2462TIP3    H128877   0.534   2.503  13.430  1.3439  0.5176 -0.8301
 2462TIP3    H228878   0.464   2.503  13.296  0.1273 -0.9209 -0.2171
 2463TIP3   OH228879   1.759   2.887   4.366 -0.0778  0.4283 -0.2488
 2463TIP3    H128880   1.824   2.894   4.436 -1.1941 -0.2954  0.9311
 2463TIP3    H228881   1.681   2.929   4.403 -1.6416 -2.5746  0.2457
 2464TIP3   OH228882   0.564   2.539  11.688 -0.3927 -0.3864  0.2871
 2464TIP3    H128883   0.535   2.455  11.722 -0.8056  0.1067  1.1707
 2464TIP3    H228884   0.660   2.534  11.690 -0.4163 -0.7215  0.6201
 2465TIP3   OH228885   1.398   0.635  12.330 -0.0887 -0.5598  0.2505
 2465TIP3    H128886   1.493   0.637  12.339  0.3134  1.0055 -2.9057
 2465TIP3    H228887   1.383   0.607  12.239 -2.5065  1.6000 -0.1240
 2466TIP3   OH228888   4.879   6.456   6.110 -1.0023  0.5313 -0.1387
 2466TIP3    H128889   4.871   6.537   6.161  1.2623  1.0201 -0.4541
 2466TIP3    H228890   4.897   6.388   6.175  0.0862  0.8440 -0.0816
 2467TIP3   OH228891   2.396   2.028   3.306 -0.7512  0.0523  0.1102
 2467TIP3    H128892   2.368   1.978   3.230 -1.7785  1.1136 -0.2517
 2467TIP3    H228893   2.316   2.071   3.337  0.3512  2.9497 -0.7292
 2468TIP3   OH228894   4.170   2.456   6.050 -0.4019  0.7080 -0.5806
 2468TIP3    H128895   4.093   2.498   6.012  0.1556  0.7721 -1.6908
 2468TIP3    H228896   4.242   2.482   5.992  0.5863  1.2570  0.8542
 2469TIP3   OH228897   3.753   4.845  15.694 -0.4254  0.0737  0.1491
 2469TIP3    H128898   3.725   4.757  15.717  1.1072 -0.4631  0.0994
 2469TIP3    H228899   3.729   4.899  15.770 -1.2816 -0.3959  0.2193
 2470TIP3   OH228900   2.328   5.761  15.404 -0.0455 -0.5837  0.7555
 2470TIP3    H128901   2.264   5.693  15.427 -1.2277  0.7040  1.4540
 2470TIP3    H228902   2.284   5.813  15.337  0.5561 -0.0732  0.7492
 2471TIP3   OH228903   0.835   5.224   0.928  0.4169 -0.8326 -0.0322
 2471TIP3    H128904   0.742   5.236   0.950 -0.3723 -1.3083 -2.7647
 2471TIP3    H228905   0.882   5.259   1.004 -1.9722 -0.1199  1.2229
 2472TIP3   OH228906   1.545   4.693   2.168 -0.0640 -0.4976  0.8841
 2472TIP3    H128907   1.475   4.630   2.151 -0.4387  0.0459  0.3292
 2472TIP3    H228908   1.608   4.646   2.223 -0.6294 -1.1496  0.9866
 2473TIP3   OH228909   1.250   5.717  14.153 -0.2748  0.1026  0.9435
 2473TIP3    H128910   1.323   5.712  14.215  0.3343  0.7255  0.2995
 2473TIP3    H228911   1.172   5.716  14.208  0.2539  0.6016  1.7262
 2474TIP3   OH228912   3.939   4.033  15.051 -0.2307  0.2990 -0.0319
 2474TIP3    H128913   3.923   4.075  14.967  0.2783  2.2863  0.8157
 2474TIP3    H228914   3.863   4.056  15.105 -0.5735 -0.9920  0.0703
 2475TIP3   OH228915   4.181   6.050   5.450 -0.6909 -0.7593  0.8376
 2475TIP3    H128916   4.186   6.121   5.514 -1.5905 -0.0840  0.1839
 2475TIP3    H228917   4.179   5.970   5.503 -1.1079 -0.2294  1.6454
 2476TIP3   OH228918   4.883   3.824  17.195 -0.0260 -0.0320  0.1824
 2476TIP3    H128919   4.925   3.801  17.113 -1.4080 -0.0554 -0.5625
 2476TIP3    H228920   4.892   3.919  17.201 -1.6951  0.2444 -1.0743
 2477TIP3   OH228921   3.608   0.122   0.025 -0.1837  0.3703  0.6579
 2477TIP3    H128922   3.693   0.089  -0.005  0.3528  3.2373 -1.4451
 2477TIP3    H228923   3.548   0.048   0.015  0.9994 -0.3003 -3.2100
 2478TIP3   OH228924   3.223   5.580  12.129  0.1377  0.5643 -0.0621
 2478TIP3    H128925   3.203   5.487  12.142  0.3553  0.5666  0.2807
 2478TIP3    H228926   3.210   5.620  12.215 -1.3705  1.1141 -0.5082
 2479TIP3   OH228927   0.450   1.435  16.743  0.3740  0.6323 -0.0873
 2479TIP3    H128928   0.538   1.470  16.729  0.7577 -0.1405  0.2857
 2479TIP3    H228929   0.391   1.505  16.717  1.0999  1.0145 -0.7529
 2480TIP3   OH228930   6.574   2.491  13.880  0.5105 -0.2435 -0.0119
 2480TIP3    H128931   6.666   2.480  13.902  0.0336 -1.0296  1.7867
 2480TIP3    H228932   6.552   2.416  13.824  0.7012 -0.6855  0.5001
 2481TIP3   OH228933   1.297   6.640  14.108  0.7958  0.1942 -0.0785
 2481TIP3    H128934   1.238   6.671  14.177  2.4502  1.7722  0.6880
 2481TIP3    H228935   1.324   6.553  14.137  1.4006  0.8003  1.2446
 2482TIP3   OH228936   6.314   3.363  12.293  0.3473 -0.0437 -0.1553
 2482TIP3    H128937   6.368   3.440  12.275  0.9721 -0.3558  0.3037
 2482TIP3    H228938   6.264   3.349  12.213  0.2504  0.8202 -0.2521
 2483TIP3   OH228939   2.473   4.890   3.634  0.9512 -0.1266  0.1280
 2483TIP3    H128940   2.560   4.852   3.638  1.1296  0.1988 -0.5098
 2483TIP3    H228941   2.476   4.963   3.697  0.9556 -0.4705  0.5282
 2484TIP3   OH228942   6.467   2.096   5.192 -0.0573 -0.1324  0.5426
 2484TIP3    H128943   6.412   2.155   5.140  1.1977 -0.0177 -0.7229
 2484TIP3    H228944   6.523   2.155   5.243 -0.8289 -0.2479  1.5440
 2485TIP3   OH228945   2.284   4.544  16.228 -0.1566  0.1612  0.2996
 2485TIP3    H128946   2.364   4.552  16.281  0.7418 -1.2389 -0.7723
 2485TIP3    H228947   2.307   4.482  16.159 -1.1445  2.2312 -2.0245
 2486TIP3   OH228948   4.298   6.361   6.217 -0.1062 -0.2904  0.4268
 2486TIP3    H128949   4.219   6.415   6.222  0.8380  1.2112 -0.0334
 2486TIP3    H228950   4.365   6.413   6.263  1.3421 -0.0674 -1.7800
 2487TIP3   OH228951   1.957   2.899   0.477  0.6503 -0.4657  0.4874
 2487TIP3    H128952   1.891   2.898   0.408  0.9286 -0.4451  0.2218
 2487TIP3    H228953   1.929   2.969   0.536  1.2263  0.5411 -0.3988
 2488TIP3   OH228954   5.329   1.437   2.325  0.0065  0.1962  0.4637
 2488TIP3    H128955   5.301   1.505   2.265 -0.5218  0.3783  0.9041
 2488TIP3    H228956   5.316   1.355   2.277 -0.3352  0.3458  0.3022
 2489TIP3   OH228957   0.670   4.530  11.709 -0.0045  0.4746 -0.3090
 2489TIP3    H128958   0.704   4.610  11.750 -0.9896 -0.0637  1.6458
 2489TIP3    H228959   0.728   4.516  11.633  1.2836  2.0434  0.3173
 2490TIP3   OH228960   3.030   6.748  10.506  0.2730 -0.0144  0.0426
 2490TIP3    H128961   3.019   6.667  10.457  0.5868 -0.2450  0.3483
 2490TIP3    H228962   3.107   6.790  10.467  0.5838 -0.2471  0.3983
 2491TIP3   OH228963   3.341   5.078  12.328  0.0781 -0.4684 -0.0507
 2491TIP3    H128964   3.302   5.009  12.274  1.2506 -0.1094 -1.4054
 2491TIP3    H228965   3.354   5.037  12.413  1.4119 -2.1893 -1.0260
 2492TIP3   OH228966   1.574   5.329   2.540  0.0740 -0.2296 -0.1767
 2492TIP3    H128967   1.482   5.350   2.524 -0.2579 -2.1901 -1.1550
 2492TIP3    H228968   1.622   5.406   2.510 -1.2613  1.4875  1.7670
 2493TIP3   OH228969   0.868   2.605  14.156  0.2800 -0.1661 -0.3656
 2493TIP3    H128970   0.782   2.646  14.167 -0.1045 -1.3720  1.3541
 2493TIP3    H228971   0.926   2.657  14.211 -0.2191 -1.8576  1.8644
 2494TIP3   OH228972   2.586   3.303   4.671 -0.1438 -0.0638 -0.3491
 2494TIP3    H128973   2.675   3.285   4.702 -0.3039 -0.8789 -0.3572
 2494TIP3    H228974   2.588   3.284   4.578 -0.6345 -1.2806 -0.1256
 2495TIP3   OH228975   2.376   2.162  12.212 -0.3446 -0.4969  0.0795
 2495TIP3    H128976   2.297   2.184  12.262 -0.6931 -1.4607 -0.0314
 2495TIP3    H228977   2.359   2.195  12.124  0.4699  1.6558  0.6499
 2496TIP3   OH228978   5.999   2.859  15.252 -0.2215 -0.1472 -0.0395
 2496TIP3    H128979   6.030   2.845  15.163  0.8750 -2.0850  0.6099
 2496TIP3    H228980   5.908   2.886  15.241 -0.1721 -0.5611 -1.7396
 2497TIP3   OH228981   2.882   2.312   0.936  0.1264 -0.4013  0.2840
 2497TIP3    H128982   2.889   2.377   0.866 -1.6688 -0.3950  0.0667
 2497TIP3    H228983   2.858   2.363   1.013 -0.2591 -0.6693  0.3464
 2498TIP3   OH228984   2.144   0.581  16.637 -0.0781  0.4466 -0.3550
 2498TIP3    H128985   2.097   0.648  16.587 -1.9958 -1.3441 -1.0919
 2498TIP3    H228986   2.082   0.555  16.706  0.8700 -0.1471  0.2968
 2499TIP3   OH228987   3.749   2.389   5.171  0.1508  0.4328 -0.0734
 2499TIP3    H128988   3.769   2.471   5.216  0.7610  0.5216 -0.4823
 2499TIP3    H228989   3.677   2.351   5.220 -0.5582  1.5113 -0.2408
 2500TIP3   OH228990   6.792   3.155   1.851 -0.4084 -0.4804  0.5918
 2500TIP3    H128991   6.764   3.067   1.826 -0.4275 -0.6349  1.1488
 2500TIP3    H228992   6.853   3.141   1.924  1.6199 -0.1951 -0.9486
 2501TIP3   OH228993   4.971   0.197   2.255  0.1384  0.5161 -0.3070
 2501TIP3    H128994   4.876   0.193   2.268  0.2691  1.6381  1.4268
 2501TIP3    H228995   4.982   0.239   2.170 -0.9231  0.1540 -0.6383
 2502TIP3   OH228996   0.970   5.527  10.950 -0.0408 -0.2849  0.5714
 2502TIP3    H128997   0.957   5.621  10.959 -0.2373 -0.1318 -1.0101
 2502TIP3    H228998   1.057   5.518  10.911 -0.7492 -0.6282 -1.0119
 2503TIP3   OH228999   2.436   5.277   2.640 -0.4090  0.1063 -0.5713
 2503TIP3    H129000   2.444   5.329   2.560 -0.2905  1.7297  0.4485
 2503TIP3    H229001   2.358   5.312   2.683  0.2007  0.0710  0.5918
 2504TIP3   OH229002   3.101   5.956   2.445  0.1033 -0.2309 -0.0954
 2504TIP3    H129003   3.045   5.979   2.520  2.3081  1.3592  1.1943
 2504TIP3    H229004   3.108   5.861   2.448 -2.9404 -0.5823 -0.7075
 2505TIP3   OH229005   1.807   4.477  16.950 -0.0612 -0.0216 -0.1231
 2505TIP3    H129006   1.724   4.487  16.997  0.1089  1.1207 -0.0459
 2505TIP3    H229007   1.789   4.409  16.884 -1.7808  1.8057 -1.6760
 2506TIP3   OH229008   2.968   2.909   0.402  0.1202 -0.3778 -0.1066
 2506TIP3    H129009   2.948   2.953   0.484 -2.1298  0.5298 -1.0401
 2506TIP3    H229010   3.038   2.962   0.363 -0.0999  0.2879  0.3856
 2507TIP3   OH229011   6.431   1.059  12.504 -0.4693  0.7416 -0.2470
 2507TIP3    H129012   6.445   1.149  12.473 -0.1461 -0.1409 -2.8886
 2507TIP3    H229013   6.455   1.004  12.430  2.4892 -1.7333  2.2660
 2508TIP3   OH229014   6.520   0.807  13.752 -0.3187  0.0245 -0.9413
 2508TIP3    H129015   6.562   0.860  13.684  0.0397  1.4611  0.3370
 2508TIP3    H229016   6.428   0.804  13.728 -0.6275  2.4855 -0.3505
 2509TIP3   OH229017   0.445   6.117   2.596  0.2015 -0.3877 -0.7819
 2509TIP3    H129018   0.427   6.061   2.521  0.2829 -0.6051 -0.6410
 2509TIP3    H229019   0.363   6.165   2.611  0.0736 -0.6010 -0.7912
 2510TIP3   OH229020   6.301   4.507  11.976 -0.6090  0.4133 -0.5082
 2510TIP3    H129021   6.236   4.531  12.042 -0.6550  0.4141 -0.5548
 2510TIP3    H229022   6.353   4.587  11.964 -0.5615  0.3941 -0.4277
 2511TIP3   OH229023   6.156   3.631   4.096 -0.0516  0.1735 -0.4061
 2511TIP3    H129024   6.117   3.603   4.013 -0.1840 -0.3519 -0.1725
 2511TIP3    H229025   6.160   3.551   4.148 -1.1104  0.7309  0.5609
 2512TIP3   OH229026   2.081   0.763  14.398 -0.3407 -0.0757 -0.2373
 2512TIP3    H129027   2.008   0.825  14.408 -0.6745 -0.6207  1.0001
 2512TIP3    H229028   2.105   0.769  14.306 -0.9930  1.1876 -0.3575
 2513TIP3   OH229029   4.058   1.782  10.655 -0.0583 -0.0743 -0.6885
 2513TIP3    H129030   4.004   1.853  10.691  1.0007  0.3775  0.0443
 2513TIP3    H229031   4.126   1.827  10.605  0.3667 -0.5955 -0.5792
 2514TIP3   OH229032   6.711   6.769   0.811  1.1545  0.0455  0.0697
 2514TIP3    H129033   6.672   6.847   0.774 -0.1099 -1.2615 -1.4547
 2514TIP3    H229034   6.639   6.707   0.821  2.4356 -1.6924 -0.8147
 2515TIP3   OH229035   1.626   2.676   0.729  0.3061 -0.5627 -0.2075
 2515TIP3    H129036   1.614   2.682   0.634 -0.5668  1.3843 -0.0356
 2515TIP3    H229037   1.685   2.748   0.750  1.1810 -1.5031  0.6598
 2516TIP3   OH229038   6.300   5.152  14.731 -0.1384 -0.6295 -0.0442
 2516TIP3    H129039   6.314   5.139  14.637 -0.3048 -0.9575 -0.0247
 2516TIP3    H229040   6.374   5.107  14.772  0.6442  0.6142 -0.0574
 2517TIP3   OH229041   5.987   4.989   4.674 -0.4853  0.0694 -0.1704
 2517TIP3    H129042   6.066   5.043   4.673  0.8418 -1.8037 -0.6912
 2517TIP3    H229043   5.920   5.046   4.712  1.5410  1.1383  2.0685
 2518TIP3   OH229044   0.528   3.188   4.886 -0.9250 -0.1664  0.0385
 2518TIP3    H129045   0.496   3.206   4.974 -2.1191 -0.0636 -0.3880
 2518TIP3    H229046   0.620   3.214   4.887 -0.9659 -0.0161  1.1975
 2519TIP3   OH229047   2.341   0.389   1.332 -0.1957  0.2294  0.2998
 2519TIP3    H129048   2.289   0.422   1.259  1.7672  0.3184 -1.1491
 2519TIP3    H229049   2.349   0.295   1.315  0.8290  0.3602 -0.0076
 2520TIP3   OH229050   0.726   2.286  15.174  0.4717 -0.3201  0.2493
 2520TIP3    H129051   0.634   2.300  15.150  0.5741 -0.8392 -0.4925
 2520TIP3    H229052   0.725   2.273  15.269 -0.2609 -0.6262  0.2081
 2521TIP3   OH229053   2.579   2.159   2.176  0.0320  0.0144  0.1357
 2521TIP3    H129054   2.643   2.129   2.241 -2.1297 -2.2632  1.3913
 2521TIP3    H229055   2.548   2.243   2.210  0.5438 -0.0712  0.8432
 2522TIP3   OH229056   2.720   5.294   5.236 -0.5088 -0.4426  0.1457
 2522TIP3    H129057   2.741   5.204   5.210 -0.8062 -0.3998 -0.2572
 2522TIP3    H229058   2.687   5.334   5.156 -0.4829 -0.0061  0.3545
 2523TIP3   OH229059   1.236   1.925  14.430  0.3930  0.4770  0.2556
 2523TIP3    H129060   1.248   1.965  14.344 -1.5174  2.0976  0.6695
 2523TIP3    H229061   1.204   1.837  14.412  2.2260 -0.0367 -0.6698
 2524TIP3   OH229062   1.011   0.164  11.006  0.4702  0.1025 -0.1034
 2524TIP3    H129063   1.061   0.084  11.025  2.3658  1.3740  0.5608
 2524TIP3    H229064   1.070   0.217  10.952 -1.0355  0.7909 -1.1567
 2525TIP3   OH229065   1.421   5.164   0.918  0.1539  0.1756 -0.7022
 2525TIP3    H129066   1.492   5.228   0.910 -0.5237  0.7575 -2.5011
 2525TIP3    H229067   1.377   5.187   1.000  1.5271  0.3172  0.0285
 2526TIP3   OH229068   2.273   2.457   3.503 -0.1921  0.0419  0.9267
 2526TIP3    H129069   2.211   2.523   3.534 -0.9098 -0.4121  0.4703
 2526TIP3    H229070   2.259   2.382   3.561 -0.4199 -0.2388  0.5113
 2527TIP3   OH229071   5.491   5.091   1.155  0.2430  0.0654 -0.7330
 2527TIP3    H129072   5.447   5.024   1.101  0.5296 -1.1214  0.4545
 2527TIP3    H229073   5.569   5.046   1.189  0.5969  1.1116 -0.1474
 2528TIP3   OH229074   2.297   1.731   1.586  0.4551  0.4771 -0.4738
 2528TIP3    H129075   2.239   1.656   1.578  1.5759 -0.2729 -2.2033
 2528TIP3    H229076   2.377   1.696   1.627  1.0386  0.6601 -1.4194
 2529TIP3   OH229077   6.005   1.493   4.659  0.4949  0.1240 -0.4885
 2529TIP3    H129078   5.932   1.537   4.703  1.1652  1.6311 -0.8195
 2529TIP3    H229079   5.990   1.510   4.566 -0.2353 -1.9790 -0.8000
 2530TIP3   OH229080   2.646   2.186   1.902  0.3905 -0.4315 -0.1222
 2530TIP3    H129081   2.631   2.158   1.992 -1.8224 -1.1190 -0.6354
 2530TIP3    H229082   2.739   2.170   1.887  0.3713 -2.3466  1.3693
 2531TIP3   OH229083   0.987   5.550   1.677 -0.5319 -0.1346 -0.7741
 2531TIP3    H129084   0.909   5.541   1.730 -2.2317  0.7515 -2.9488
 2531TIP3    H229085   0.954   5.574   1.590  2.2045  1.3038 -1.5382
 2532TIP3   OH229086   1.461   1.245  16.160  0.3105 -0.0537  0.0611
 2532TIP3    H129087   1.374   1.208  16.144  0.6812 -0.3819 -1.4057
 2532TIP3    H229088   1.489   1.277  16.074  1.3969  0.5771  0.6311
 2533TIP3   OH229089   4.732   4.543  10.438 -0.5215 -0.8307 -0.3816
 2533TIP3    H129090   4.747   4.463  10.487 -1.2390 -0.8623 -0.1932
 2533TIP3    H229091   4.662   4.588  10.486  0.4401  0.3199 -0.0056
 2534TIP3   OH229092   1.240   1.973   3.911 -0.5335  0.0365 -0.1023
 2534TIP3    H129093   1.148   1.997   3.920 -0.5603 -0.5445  1.3070
 2534TIP3    H229094   1.240   1.879   3.897 -0.1351 -0.0261  0.2926
 2535TIP3   OH229095   5.871   0.038   5.687 -0.2459  0.2068  0.5545
 2535TIP3    H129096   5.862   0.122   5.642  0.6192  0.0941  0.1503
 2535TIP3    H229097   5.783   0.000   5.684 -0.2901  0.3594 -0.7521
 2536TIP3   OH229098   6.029   6.290  14.276  0.4552  0.4946  0.0993
 2536TIP3    H129099   6.046   6.323  14.365 -0.0111  0.6785  0.1199
 2536TIP3    H229100   5.954   6.231  14.286  1.0082 -0.2479 -0.0112
 2537TIP3   OH229101   0.369   2.545   6.480 -0.0733 -0.4189  0.0591
 2537TIP3    H129102   0.428   2.589   6.418  0.0671  0.1113  0.5609
 2537TIP3    H229103   0.358   2.608   6.551  0.0078 -1.1454  0.7235
 2538TIP3   OH229104   6.067   6.258  10.607  0.0172 -0.2391 -0.5504
 2538TIP3    H129105   6.044   6.228  10.519  0.0793  0.5973 -0.8549
 2538TIP3    H229106   6.066   6.353  10.601 -3.6105  0.0006  1.2411
 2539TIP3   OH229107   1.947   0.497  15.200 -0.1166 -0.5384  0.1132
 2539TIP3    H129108   2.029   0.541  15.179 -0.7894  1.1604  0.8602
 2539TIP3    H229109   1.932   0.437  15.127  2.3529 -1.7594  0.5135
 2540TIP3   OH229110   1.943   4.020   1.735  0.1153 -0.3225 -0.0963
 2540TIP3    H129111   2.033   3.990   1.748  0.0617  0.0652  1.3687
 2540TIP3    H229112   1.936   4.035   1.641  2.1572  1.4637 -0.0457
 2541TIP3   OH229113   5.211   6.489   1.401 -0.0991  0.3378  0.1254
 2541TIP3    H129114   5.233   6.515   1.312 -0.6093  2.0253  0.4660
 2541TIP3    H229115   5.278   6.529   1.456 -0.6046  0.5338  0.6162
 2542TIP3   OH229116   6.235   4.582   6.067 -0.4380 -0.0294 -0.1380
 2542TIP3    H129117   6.184   4.640   6.009  0.6256  2.3214  1.1286
 2542TIP3    H229118   6.179   4.570   6.144 -0.6165 -0.6587 -0.3576
 2543TIP3   OH229119   4.031   1.010   3.399  0.0271  0.1228  0.3192
 2543TIP3    H129120   4.038   0.935   3.341 -0.0479  1.2265 -1.1650
 2543TIP3    H229121   4.007   0.972   3.484 -0.5241 -1.4760 -0.5019
 2544TIP3   OH229122   2.686   3.038  15.881 -0.3783  0.3959 -0.4280
 2544TIP3    H129123   2.684   2.945  15.900 -0.1106  0.5356  0.2826
 2544TIP3    H229124   2.765   3.051  15.828 -0.0937  0.3139 -0.0251
 2545TIP3   OH229125   1.802   5.155   5.629 -0.0398 -0.7979  0.3477
 2545TIP3    H129126   1.717   5.112   5.642 -0.3188 -0.3930 -0.1115
 2545TIP3    H229127   1.822   5.194   5.714 -1.4341  1.0888 -0.1306
 2546TIP3   OH229128   4.582   3.072   2.771 -0.0625  0.7444 -1.0162
 2546TIP3    H129129   4.650   3.066   2.838 -1.1223  2.8299  0.3467
 2546TIP3    H229130   4.597   3.157   2.730 -1.1627  0.7330 -1.4575
 2547TIP3   OH229131   6.582   2.431   5.084 -0.3361 -0.1534 -0.4922
 2547TIP3    H129132   6.526   2.358   5.061  0.0972 -1.2367  1.6310
 2547TIP3    H229133   6.665   2.413   5.039  0.1372 -1.6181  0.8671
 2548TIP3   OH229134   3.438   2.329  13.739 -0.7820  0.1704  0.0103
 2548TIP3    H129135   3.368   2.387  13.769 -0.8957 -0.1672  0.4048
 2548TIP3    H229136   3.393   2.249  13.711 -0.7136  0.5800 -1.3626
 2549TIP3   OH229137   4.306   1.222  11.429  0.3238 -0.3888 -0.2690
 2549TIP3    H129138   4.286   1.179  11.512 -2.4850  1.0812 -0.0371
 2549TIP3    H229139   4.240   1.187  11.368 -0.2378  1.4384 -0.7724
 2550TIP3   OH229140   0.258   3.937   3.702 -0.5189  0.1083 -0.4018
 2550TIP3    H129141   0.213   3.869   3.751 -0.2711 -0.8559 -1.4641
 2550TIP3    H229142   0.197   3.960   3.632 -0.6136  1.0127 -0.0335
 2551TIP3   OH229143   2.294   4.600  14.831  0.3520 -0.4805 -0.5557
 2551TIP3    H129144   2.266   4.533  14.894  0.6639 -0.4583 -0.3897
 2551TIP3    H229145   2.363   4.648  14.877 -1.7020  1.7608  0.3999
 2552TIP3   OH229146   1.356   3.167   5.284 -0.2232 -0.5334 -0.3783
 2552TIP3    H129147   1.384   3.196   5.372 -2.4798 -0.2092  0.2824
 2552TIP3    H229148   1.289   3.101   5.300  0.4859 -1.6812 -1.9041
 2553TIP3   OH229149   4.656   2.398  14.162  0.1998 -0.3281  0.7324
 2553TIP3    H129150   4.745   2.362  14.154  0.8859  1.6617 -2.0676
 2553TIP3    H229151   4.650   2.428  14.252  2.5810 -0.0278  0.8487
 2554TIP3   OH229152   1.935   1.309   1.552 -0.5804  0.0845 -0.1487
 2554TIP3    H129153   1.883   1.270   1.482 -0.5288  0.3863 -0.3607
 2554TIP3    H229154   1.968   1.235   1.602 -1.4368 -0.1099  0.1520
 2555TIP3   OH229155   2.591   6.756  14.367 -0.0306  0.6381  0.2019
 2555TIP3    H129156   2.502   6.739  14.397 -0.7411  2.3552 -0.7512
 2555TIP3    H229157   2.601   6.701  14.289  0.2215 -0.5189  1.0393
 2556TIP3   OH229158   4.093   6.374   6.705 -0.3376  0.6399 -0.1040
 2556TIP3    H129159   4.033   6.405   6.637  0.6970  0.1740 -1.2784
 2556TIP3    H229160   4.129   6.454   6.743  1.0216  0.9569 -1.9263
 2557TIP3   OH229161   6.565   3.433   0.167 -0.4857  0.3443  0.0049
 2557TIP3    H129162   6.608   3.407   0.085 -1.8145 -1.1737 -0.2697
 2557TIP3    H229163   6.618   3.505   0.200  0.6563  0.3479 -1.6910
 2558TIP3   OH229164   6.799   5.047   5.330  0.7015 -0.5516 -0.0074
 2558TIP3    H129165   6.780   5.122   5.386 -3.4786 -1.7390  0.5553
 2558TIP3    H229166   6.833   5.086   5.249 -1.8014  2.1015  0.0378
 2559TIP3   OH229167   4.449   2.681   4.754 -0.4681 -0.2475  0.1936
 2559TIP3    H129168   4.495   2.614   4.703 -1.7282 -0.5156 -0.6621
 2559TIP3    H229169   4.420   2.636   4.833  1.1049  0.0515  0.9870
 2560TIP3   OH229170   0.748   3.273   0.688 -0.1954  0.8306 -0.2174
 2560TIP3    H129171   0.725   3.282   0.595 -0.7004 -1.4607 -0.3674
 2560TIP3    H229172   0.843   3.282   0.690 -0.1910  1.0546 -0.9244
 2561TIP3   OH229173   6.048   1.318  14.097 -0.1324 -0.3533 -0.8222
 2561TIP3    H129174   5.961   1.280  14.112 -0.0376 -1.4375 -2.7095
 2561TIP3    H229175   6.107   1.243  14.100  0.3207 -0.1004 -2.6020
 2562TIP3   OH229176   2.893   5.212  16.099 -0.3944  0.1476  0.0820
 2562TIP3    H129177   2.815   5.227  16.152 -1.6774 -0.4036 -1.5885
 2562TIP3    H229178   2.895   5.117  16.086 -1.2673  0.4061 -2.4613
 2563TIP3   OH229179   2.419   6.137  15.976 -0.3724  0.5857 -0.5560
 2563TIP3    H129180   2.488   6.191  16.015  0.0249 -0.9667  0.9954
 2563TIP3    H229181   2.443   6.047  15.998 -4.1020  0.0323  2.2963
 2564TIP3   OH229182   6.794   2.612  15.451  0.4839  0.0724 -0.3858
 2564TIP3    H129183   6.843   2.669  15.392 -0.1693  0.6675 -0.3570
 2564TIP3    H229184   6.716   2.662  15.475 -0.0618 -0.8012 -0.2942
 2565TIP3   OH229185   3.132   4.424   1.132 -0.0198 -0.1204 -0.5374
 2565TIP3    H129186   3.165   4.466   1.211 -0.9914 -0.3389  0.0042
 2565TIP3    H229187   3.176   4.469   1.060  0.9961 -0.0219  0.1274
 2566TIP3   OH229188   4.849   1.734  14.058  0.4467  0.1753  0.3895
 2566TIP3    H129189   4.771   1.765  14.105  0.0844 -0.4026  0.1699
 2566TIP3    H229190   4.815   1.689  13.982  0.7812 -3.3661  2.1373
 2567TIP3   OH229191   4.869   5.099   2.859 -0.6177  0.0511 -0.0948
 2567TIP3    H129192   4.784   5.130   2.889 -0.8448  0.5640 -1.2110
 2567TIP3    H229193   4.866   5.108   2.764  0.1097 -1.4115 -0.2871
 2568TIP3   OH229194   0.951   4.190  15.076  0.4797 -0.6457  0.3694
 2568TIP3    H129195   0.990   4.123  15.133  2.2878 -2.0062 -2.2455
 2568TIP3    H229196   0.860   4.161  15.064  0.4420 -1.0429  1.4850
 2569TIP3   OH229197   5.314   2.910  14.829 -0.5563 -0.4392 -0.0503
 2569TIP3    H129198   5.250   2.981  14.839 -1.5514 -1.3380  0.1776
 2569TIP3    H229199   5.262   2.835  14.800  0.3549 -1.2837  0.4414
 2570TIP3   OH229200   3.767   2.248   1.246  0.2301 -0.8349  0.1157
 2570TIP3    H129201   3.692   2.253   1.305 -1.4002 -1.9448 -1.7301
 2570TIP3    H229202   3.728   2.241   1.159  2.4575 -2.8983 -0.8200
 2571TIP3   OH229203   1.771   1.357   3.003 -0.3198 -0.3116  0.3406
 2571TIP3    H129204   1.816   1.437   3.031 -1.3890  0.2295  0.5774
 2571TIP3    H229205   1.779   1.298   3.078  0.6440 -0.5005  0.0903
 2572TIP3   OH229206   1.159   2.484  12.329  0.1317 -0.8326  0.1943
 2572TIP3    H129207   1.188   2.397  12.300 -1.2870 -1.7133  1.3256
 2572TIP3    H229208   1.144   2.475  12.422 -0.7591  0.4476  0.1953
 2573TIP3   OH229209   4.874   4.839   3.354 -0.1708 -0.1444  0.0037
 2573TIP3    H129210   4.829   4.877   3.279 -1.1015 -0.0159  0.6057
 2573TIP3    H229211   4.965   4.867   3.345  0.0351 -1.2427 -1.7817
 2574TIP3   OH229212   4.484   1.683  16.871  0.1418  0.1670  0.9794
 2574TIP3    H129213   4.425   1.745  16.828  0.3490 -0.5150 -0.3384
 2574TIP3    H229214   4.426   1.628  16.924 -0.3054  0.0433  0.3687
 2575TIP3   OH229215   5.504   0.967  14.029  0.2167  0.7777 -0.7922
 2575TIP3    H129216   5.534   1.055  14.003  0.0768  0.3055 -2.6951
 2575TIP3    H229217   5.552   0.907  13.972  1.1819 -0.5139  1.2658
 2576TIP3   OH229218   2.446   3.658  14.572  0.5368  0.1083  0.2919
 2576TIP3    H129219   2.388   3.583  14.558 -1.3822  1.6371 -0.5012
 2576TIP3    H229220   2.534   3.626  14.552 -0.3962 -1.5812 -1.3114
 2577TIP3   OH229221   3.441   6.727  14.586 -0.3164  0.4626  0.3578
 2577TIP3    H129222   3.404   6.815  14.589 -1.8846 -0.1861  0.6372
 2577TIP3    H229223   3.450   6.701  14.678  0.2520  0.3591  0.2801
 2578TIP3   OH229224   1.797   2.130   1.401 -0.0437  0.0754  0.3378
 2578TIP3    H129225   1.720   2.084   1.434 -1.2843  0.8013 -1.3832
 2578TIP3    H229226   1.871   2.083   1.438 -1.2797 -2.1722  0.1058
 2579TIP3   OH229227   1.623   4.829   1.797 -0.4545  0.2031  0.1994
 2579TIP3    H129228   1.561   4.760   1.820  0.4689 -1.4545 -1.8890
 2579TIP3    H229229   1.573   4.891   1.745 -1.4349  1.5327  2.5729
 2580TIP3   OH229230   4.347   3.870   6.022 -0.3668 -0.3950 -0.2918
 2580TIP3    H129231   4.353   3.950   6.074  1.6221 -0.3841 -0.4456
 2580TIP3    H229232   4.344   3.800   6.086  0.9876 -0.3259 -0.1258
 2581TIP3   OH229233   2.365   5.024  17.202 -0.4610 -0.2032  0.1754
 2581TIP3    H129234   2.391   4.951  17.258  0.6157 -0.2062 -0.3055
 2581TIP3    H229235   2.447   5.070  17.183 -1.0176  0.6659 -0.1760
 2582TIP3   OH229236   5.241   4.821  14.178 -0.3062  0.7228 -0.4568
 2582TIP3    H129237   5.303   4.793  14.110 -0.6240 -0.1080 -0.4137
 2582TIP3    H229238   5.235   4.916  14.167  0.0568  0.6640 -1.2383
 2583TIP3   OH229239   5.441   6.238   4.239 -0.3803 -0.3212 -0.0213
 2583TIP3    H129240   5.352   6.235   4.202 -0.2775  0.5027 -0.3578
 2583TIP3    H229241   5.498   6.215   4.166 -0.0845  2.4514 -0.8066
 2584TIP3   OH229242   4.314   3.417  13.538  0.2421 -0.1248  0.3048
 2584TIP3    H129243   4.400   3.379  13.550  0.4851 -0.5009 -2.1366
 2584TIP3    H229244   4.329   3.498  13.489 -0.6304  1.0733  1.8890
 2585TIP3   OH229245   0.112   3.054  14.763 -0.1502  0.0609  0.0891
 2585TIP3    H129246   0.150   2.967  14.770  0.8382  0.3352 -1.2494
 2585TIP3    H229247   0.088   3.062  14.670 -0.2718  1.1798  0.2024
 2586TIP3   OH229248   6.582   3.128  12.522 -0.7270  0.1440  0.3715
 2586TIP3    H129249   6.510   3.191  12.513 -0.6502  0.1334 -0.4222
 2586TIP3    H229250   6.538   3.043  12.531 -0.8295  0.0188 -1.0715
 2587TIP3   OH229251   0.612   2.688  14.141  0.4906 -0.3092  0.0825
 2587TIP3    H129252   0.571   2.613  14.185  0.4126 -0.7081 -0.6553
 2587TIP3    H229253   0.587   2.763  14.194 -0.8929 -0.5912 -0.1368
 2588TIP3   OH229254   2.959   3.256  13.021 -0.0764 -0.4286 -0.3299
 2588TIP3    H129255   2.895   3.259  12.950 -0.5068 -0.4968  0.0538
 2588TIP3    H229256   3.034   3.209  12.983  1.3878  2.9811 -2.0720
 2589TIP3   OH229257   2.671   4.846   1.414 -0.1113  0.1632  0.0501
 2589TIP3    H129258   2.724   4.897   1.353 -0.2261 -0.0822 -0.2554
 2589TIP3    H229259   2.595   4.902   1.432 -1.3516 -0.7698 -2.0029
 2590TIP3   OH229260   4.924   0.627   5.087 -0.2622  0.3464  0.4741
 2590TIP3    H129261   4.998   0.589   5.039  0.1795  0.4326  1.0864
 2590TIP3    H229262   4.964   0.675   5.159 -1.0284 -2.4333  2.8965
 2591TIP3   OH229263   3.483   2.315   2.390 -0.1372  0.1876  0.4320
 2591TIP3    H129264   3.529   2.358   2.318  1.3427 -1.2494  0.4522
 2591TIP3    H229265   3.489   2.221   2.371 -1.1766 -0.1506  1.5790
 2592TIP3   OH229266   2.632   2.436   1.630  0.0585 -0.0748 -0.1578
 2592TIP3    H129267   2.622   2.342   1.647 -0.2614 -0.3343 -1.6272
 2592TIP3    H229268   2.560   2.476   1.677 -0.9103 -0.7748 -0.9877
 2593TIP3   OH229269   4.734   3.873   0.980 -0.5566 -0.0406 -0.1230
 2593TIP3    H129270   4.677   3.935   1.025  0.7348 -0.6214  2.4599
 2593TIP3    H229271   4.688   3.789   0.985 -1.2531  0.2125 -1.6169
 2594TIP3   OH229272   5.365   4.558  11.698  0.4010 -0.2643 -0.0836
 2594TIP3    H129273   5.318   4.626  11.649  0.1055  0.5070  1.2265
 2594TIP3    H229274   5.435   4.604  11.743  0.7408 -0.9786  0.1444
 2595TIP3   OH229275   4.649   2.030  13.023 -0.6449  0.3260 -0.6158
 2595TIP3    H129276   4.596   1.952  13.006  1.6126 -1.0116 -1.9474
 2595TIP3    H229277   4.605   2.100  12.974 -0.2332 -1.1495 -3.2999
 2596TIP3   OH229278   3.313   1.365  13.171  0.1031  0.1142  0.1078
 2596TIP3    H129279   3.323   1.446  13.121 -1.3524 -0.0633 -0.5041
 2596TIP3    H229280   3.223   1.338  13.156  0.7003 -1.9281 -0.1501
 2597TIP3   OH229281   6.125   2.617  15.693  0.2188 -0.4876  0.1267
 2597TIP3    H129282   6.210   2.573  15.690  0.1893 -0.6112  0.8333
 2597TIP3    H229283   6.144   2.708  15.671  0.3471 -0.7620 -0.9118
 2598TIP3   OH229284   2.723   1.839   3.730 -0.1248  0.0507  0.0059
 2598TIP3    H129285   2.642   1.820   3.684 -1.4555  0.0514  2.2107
 2598TIP3    H229286   2.792   1.817   3.668 -1.7901  0.6077 -2.1576
 2599TIP3   OH229287   1.757   1.299   5.682  0.1691  0.1654 -0.1571
 2599TIP3    H129288   1.702   1.363   5.636  0.5470 -0.3841 -1.4279
 2599TIP3    H229289   1.803   1.254   5.612  1.7962  0.2026  0.8511
 2600TIP3   OH229290   4.148   5.276   4.677 -0.3921  0.5402 -0.3204
 2600TIP3    H129291   4.154   5.337   4.751 -0.6003 -0.9644  0.9866
 2600TIP3    H229292   4.114   5.195   4.715 -2.0389  0.1819 -2.3594
 2601TIP3   OH229293   1.040   0.086   6.474  0.5846 -0.1560 -0.3377
 2601TIP3    H129294   0.950   0.054   6.471 -0.1040  1.5747  0.2159
 2601TIP3    H229295   1.074   0.070   6.386  1.3182 -4.8306  0.5609
 2602TIP3   OH229296   1.024   3.683   3.968  0.3106 -0.7257 -0.3025
 2602TIP3    H129297   0.956   3.700   3.903  1.4001 -2.0069 -1.8254
 2602TIP3    H229298   0.991   3.608   4.017 -0.1835 -0.1956  0.2077
 2603TIP3   OH229299   3.684   4.630   4.446 -0.1742 -0.2525 -0.6933
 2603TIP3    H129300   3.632   4.638   4.526 -0.5561 -0.3456 -0.9289
 2603TIP3    H229301   3.756   4.692   4.457  0.1276 -0.7108 -0.0063
 2604TIP3   OH229302   5.569   1.156  11.215  0.7132 -0.0077 -0.3971
 2604TIP3    H129303   5.624   1.139  11.139 -0.2903 -4.5649 -0.4384
 2604TIP3    H229304   5.619   1.120  11.289 -0.2231  0.0955  0.3171
 2605TIP3   OH229305   5.571   1.482  16.486 -0.1661 -0.1666  0.3291
 2605TIP3    H129306   5.505   1.480  16.555  0.1288  1.7119  0.7202
 2605TIP3    H229307   5.644   1.432  16.521 -1.0045 -1.4514  0.2801
 2606TIP3   OH229308   2.593   1.704  16.573 -0.1791 -0.1828  0.3625
 2606TIP3    H129309   2.504   1.724  16.542 -0.4789 -1.2600  0.5094
 2606TIP3    H229310   2.592   1.731  16.665 -0.0643  0.6465  0.1323
 2607TIP3   OH229311   5.806   6.214  12.176  0.2224  0.1458 -0.0754
 2607TIP3    H129312   5.804   6.293  12.229  2.2049  0.0886  0.1673
 2607TIP3    H229313   5.791   6.245  12.086 -2.9831  0.2578  0.3992
 2608TIP3   OH229314   6.672   1.247  17.204 -0.2167  0.3129 -0.2958
 2608TIP3    H129315   6.737   1.200  17.256 -0.0578  0.8876  0.0465
 2608TIP3    H229316   6.604   1.183  17.186  0.8858 -0.5554 -1.4724
 2609TIP3   OH229317   2.937   6.794   0.945 -0.0005  0.0816  0.1511
 2609TIP3    H129318   3.024   6.786   0.984 -0.0421 -1.3489  0.0103
 2609TIP3    H229319   2.945   6.750   0.860 -1.0797 -0.8221  0.5083
 2610TIP3   OH229320   2.421   2.813  11.692  0.2388  0.3037 -0.1449
 2610TIP3    H129321   2.453   2.901  11.708  0.2696  0.0876  1.0813
 2610TIP3    H229322   2.455   2.761  11.765  0.2560 -0.7371 -0.8663
 2611TIP3   OH229323   2.535   3.031  16.740  0.1457 -0.6982  0.3097
 2611TIP3    H129324   2.581   3.060  16.662 -2.1331  0.0942 -0.8431
 2611TIP3    H229325   2.598   2.976  16.786  1.9440 -0.2780 -1.4996
 2612TIP3   OH229326   5.369   1.234   0.317  0.0234  0.1725  0.3478
 2612TIP3    H129327   5.314   1.156   0.324  1.3228 -0.7955  0.0102
 2612TIP3    H229328   5.311   1.301   0.279 -0.9444 -0.7747  0.1180
 2613TIP3   OH229329   4.782   5.839   3.440 -0.7708 -0.5057  0.4641
 2613TIP3    H129330   4.797   5.745   3.427 -0.8814 -0.5386  0.5780
 2613TIP3    H229331   4.862   5.880   3.407 -0.5606 -0.6662  0.7746
 2614TIP3   OH229332   3.957   1.073   4.766  0.0380  0.0317  0.3690
 2614TIP3    H129333   4.019   1.066   4.839  0.2833  0.6163  0.2224
 2614TIP3    H229334   3.923   0.984   4.755  0.9408 -0.3294  0.3788
 2615TIP3   OH229335   0.063   6.370   0.851 -0.5279 -0.1701 -0.1686
 2615TIP3    H129336   0.103   6.297   0.803 -0.3332  1.8979 -3.3974
 2615TIP3    H229337  -0.030   6.363   0.832 -0.3996  0.9017 -1.3074
 2616TIP3   OH229338   1.610   2.328  14.082  0.6612  0.1871  0.2730
 2616TIP3    H129339   1.677   2.295  14.022 -1.5072 -0.0353 -2.2286
 2616TIP3    H229340   1.571   2.250  14.121 -0.4891  0.0608 -1.0612
 2617TIP3   OH229341   2.305   1.532   6.593  0.6345 -0.1757  0.4878
 2617TIP3    H129342   2.220   1.569   6.619  0.8181  2.4634 -2.0901
 2617TIP3    H229343   2.369   1.587   6.639  0.9722 -0.8949  0.8928
 2618TIP3   OH229344   3.447   2.000  12.290  0.0822  0.2983  0.4814
 2618TIP3    H129345   3.536   1.973  12.268  0.0932  1.2172 -0.7108
 2618TIP3    H229346   3.419   2.053  12.215 -1.2999  0.4098  1.0467
 2619TIP3   OH229347   3.369   3.458  10.401  0.2148  0.1676  0.8487
 2619TIP3    H129348   3.333   3.500  10.323  0.3056 -0.4289  0.4693
 2619TIP3    H229349   3.459   3.435  10.375  0.6043  0.9240  1.5032
 2620TIP3   OH229350   5.212   2.019  15.606  0.0775 -0.1352 -0.0440
 2620TIP3    H129351   5.124   2.056  15.594  0.5843  0.6640 -1.4589
 2620TIP3    H229352   5.231   1.976  15.523  1.4329  0.5923 -0.1261
 2621TIP3   OH229353   5.154   0.024   0.132  0.4002  0.3340 -0.5147
 2621TIP3    H129354   5.082   0.087   0.135 -0.7898 -0.9590 -0.6490
 2621TIP3    H229355   5.163  -0.007   0.222  1.2644  0.9692 -0.3670
 2622TIP3   OH229356   3.647   1.543   0.241 -0.1998 -0.6357  0.4038
 2622TIP3    H129357   3.683   1.541   0.153 -2.4096 -0.1404 -0.5880
 2622TIP3    H229358   3.660   1.633   0.271 -3.0741  0.4137 -1.1439
 2623TIP3   OH229359   2.204   1.798  12.852 -0.1874  0.1431  0.1935
 2623TIP3    H129360   2.132   1.861  12.862  0.5348  0.8921  0.7609
 2623TIP3    H229361   2.276   1.836  12.901  1.4693  0.7016 -2.4942
 2624TIP3   OH229362   0.823   6.585   5.334 -0.2860 -0.1745  0.6746
 2624TIP3    H129363   0.860   6.558   5.418 -1.2833 -3.4953  0.2123
 2624TIP3    H229364   0.870   6.532   5.270 -1.6766 -0.0351 -0.5101
 2625TIP3   OH229365   3.185   6.173   3.904 -0.2731 -0.1971 -0.1037
 2625TIP3    H129366   3.105   6.222   3.885  0.1562  0.4716 -0.2403
 2625TIP3    H229367   3.169   6.132   3.989 -0.3407  0.8575  0.4090
 2626TIP3   OH229368   2.261   0.964  11.930  0.0187  0.5295  0.2326
 2626TIP3    H129369   2.237   0.924  11.846 -2.5535  3.7168 -0.7583
 2626TIP3    H229370   2.181   0.957  11.983  0.9825  0.3250  1.6938
 2627TIP3   OH229371   2.101   6.754   6.414 -0.0240 -0.0255 -0.3055
 2627TIP3    H129372   2.135   6.813   6.346 -0.5448  2.4119  1.4053
 2627TIP3    H229373   2.006   6.766   6.410 -0.2378 -1.6263 -0.6087
 2628TIP3   OH229374   1.423   3.274   3.972  0.0783  0.1486  0.1618
 2628TIP3    H129375   1.378   3.195   4.002 -1.1389  0.9969  0.6434
 2628TIP3    H229376   1.378   3.298   3.891 -0.0823  0.7853  0.4325
 2629TIP3   OH229377   5.833   5.565   6.098  0.2013 -0.4977  0.3870
 2629TIP3    H129378   5.786   5.647   6.114 -0.9535 -1.0357 -0.1014
 2629TIP3    H229379   5.839   5.524   6.184 -0.0570 -0.3235  0.4900
 2630TIP3   OH229380   0.860   3.146   3.769 -0.3032 -0.1233 -0.0694
 2630TIP3    H129381   0.796   3.083   3.802  0.6910 -0.9595  0.3243
 2630TIP3    H229382   0.906   3.098   3.699  0.7875 -0.0329  0.5565
 2631TIP3   OH229383   6.352   3.887  15.677 -0.0952 -0.2593 -0.2766
 2631TIP3    H129384   6.385   3.966  15.720  0.6917 -0.4267 -0.5692
 2631TIP3    H229385   6.409   3.874  15.601 -0.0891 -1.2166 -0.1274
 2632TIP3   OH229386   4.687   1.347   5.411 -0.6544 -0.5139  0.1036
 2632TIP3    H129387   4.704   1.398   5.332 -1.4339 -0.0554  0.2281
 2632TIP3    H229388   4.611   1.388   5.451 -1.1841 -1.6578  0.3100
 2633TIP3   OH229389   6.082   3.636  12.338  0.4860  0.0300 -0.3080
 2633TIP3    H129390   6.040   3.598  12.415  2.2874 -3.4164 -0.8202
 2633TIP3    H229391   6.145   3.698  12.374 -0.1663  0.0613  0.8379
 2634TIP3   OH229392   4.760   0.165  15.351  0.7132 -0.2032 -0.1319
 2634TIP3    H129393   4.806   0.202  15.427  1.3525  2.3352 -1.6408
 2634TIP3    H229394   4.667   0.180  15.370  0.9003  0.9990 -0.1006
 2635TIP3   OH229395   2.207   1.730  16.072 -0.1337  0.1812  0.1654
 2635TIP3    H129396   2.162   1.681  16.003  0.3602 -0.4549  0.2874
 2635TIP3    H229397   2.234   1.664  16.135  0.9123  0.5581  0.1308
 2636TIP3   OH229398   5.636   5.465   0.407 -0.2775  0.0137 -0.5177
 2636TIP3    H129399   5.675   5.504   0.485  0.1962 -0.7196 -0.3755
 2636TIP3    H229400   5.586   5.536   0.367 -1.8673 -0.0092  1.3097
 2637TIP3   OH229401   4.729   5.163   4.787 -0.1327  0.3160  0.0338
 2637TIP3    H129402   4.677   5.214   4.725 -1.1483  0.2878  0.8432
 2637TIP3    H229403   4.704   5.072   4.771 -0.5368  0.3226  0.6021
 2638TIP3   OH229404   0.825   0.358   3.466 -0.1082  0.2729  0.1699
 2638TIP3    H129405   0.872   0.346   3.549 -0.6496  0.6441  0.5393
 2638TIP3    H229406   0.751   0.297   3.471 -1.4065  1.8376  0.9442
 2639TIP3   OH229407   2.060   5.185   2.177  0.0792  0.0967 -0.5139
 2639TIP3    H129408   2.030   5.187   2.086 -1.8510  0.6659  0.0859
 2639TIP3    H229409   1.987   5.222   2.227  0.7643 -0.9608  1.3597
 2640TIP3   OH229410   3.732   5.736  13.543  0.0744  0.2095 -0.4289
 2640TIP3    H129411   3.817   5.705  13.511  0.4794  0.0586  0.7306
 2640TIP3    H229412   3.726   5.827  13.513  1.7295  1.0022  1.4356
 2641TIP3   OH229413   3.350   5.337   4.382 -0.4749  0.0109 -0.5123
 2641TIP3    H129414   3.445   5.324   4.381 -0.3745  0.6134  0.1507
 2641TIP3    H229415   3.315   5.263   4.333  0.3525 -0.0700 -1.0035
 2642TIP3   OH229416   2.527   3.335   3.787  0.1257 -0.4137 -0.2779
 2642TIP3    H129417   2.554   3.425   3.767 -0.3797  0.2430  1.8168
 2642TIP3    H229418   2.464   3.313   3.719  0.8277  0.5177 -1.2659
 2643TIP3   OH229419   4.796   1.310   5.831 -0.5030  0.1651  0.6392
 2643TIP3    H129420   4.827   1.357   5.909 -0.8303  1.0488  0.2490
 2643TIP3    H229421   4.876   1.277   5.790 -0.3878 -1.1761  1.8595
 2644TIP3   OH229422   5.307   1.667  12.887  0.1498 -0.0003  0.2413
 2644TIP3    H129423   5.251   1.655  12.964  1.0006 -0.1076  0.8609
 2644TIP3    H229424   5.290   1.758  12.860  0.2084  0.2006  0.8589
 2645TIP3   OH229425   5.912   5.322   0.681  0.6561  0.1820  0.1044
 2645TIP3    H129426   5.891   5.357   0.768  0.6437  0.5533 -0.0435
 2645TIP3    H229427   5.888   5.393   0.621  0.3652 -0.1911 -0.2266
 2646TIP3   OH229428   3.818   2.352  13.324  0.2864 -0.4288  0.4240
 2646TIP3    H129429   3.788   2.441  13.341 -0.1203 -0.4200 -0.2789
 2646TIP3    H229430   3.760   2.297  13.376 -0.1360 -0.3357  0.0612
 2647TIP3   OH229431   3.439   6.271   2.598 -0.2005 -0.0290  0.2889
 2647TIP3    H129432   3.411   6.227   2.517  0.0005 -0.7808  0.6130
 2647TIP3    H229433   3.532   6.249   2.606 -0.2776 -0.1684  0.8445
 2648TIP3   OH229434   1.923   5.396   5.532  0.1378 -0.1120 -0.3735
 2648TIP3    H129435   1.882   5.312   5.512 -0.0288  0.1678 -1.2297
 2648TIP3    H229436   1.989   5.375   5.599 -0.8043 -0.6952  0.3845
 2649TIP3   OH229437   1.456   4.368  12.642 -0.2273  0.3816  0.2638
 2649TIP3    H129438   1.465   4.460  12.618 -0.3848 -0.3458 -3.1452
 2649TIP3    H229439   1.430   4.325  12.560 -1.1328 -2.5603  1.9625
 2650TIP3   OH229440   4.472   0.174   2.802 -0.5698  0.2316  0.9529
 2650TIP3    H129441   4.470   0.199   2.710  0.1854  0.6545  1.0430
 2650TIP3    H229442   4.432   0.247   2.849 -0.5869  0.1946  0.9963
 2651TIP3   OH229443   6.344   6.171  14.187 -0.5146  0.3453  0.0458
 2651TIP3    H129444   6.421   6.204  14.233 -0.3151 -2.0372  1.5526
 2651TIP3    H229445   6.283   6.147  14.256 -2.0043  0.6959 -1.0916
 2652TIP3   OH229446   1.941   1.689   6.322 -0.0200  0.2229  0.0923
 2652TIP3    H129447   1.969   1.741   6.397 -0.3496 -0.7242  0.8923
 2652TIP3    H229448   1.854   1.722   6.301 -0.9791 -1.1361  1.7167
 2653TIP3   OH229449   2.205   4.956  13.759  0.1426  0.1899  0.3191
 2653TIP3    H129450   2.172   4.879  13.712 -0.5897 -0.4367  1.7967
 2653TIP3    H229451   2.126   5.003  13.787  0.5240  0.1576  1.5223
 2654TIP3   OH229452   0.440   5.888   5.341 -0.1112 -0.2362 -0.5230
 2654TIP3    H129453   0.423   5.795   5.328 -0.1211 -0.1523 -1.1500
 2654TIP3    H229454   0.353   5.928   5.351 -0.1162 -0.2710 -0.4309
 2655TIP3   OH229455   4.405   4.090   6.188 -0.5059  0.0075  0.1480
 2655TIP3    H129456   4.366   4.075   6.274  0.1069 -0.6299  0.3282
 2655TIP3    H229457   4.356   4.163   6.151 -1.0152  0.0465  0.8891
 2656TIP3   OH229458   2.791   5.322  11.287 -0.1929  0.0631  0.6243
 2656TIP3    H129459   2.883   5.334  11.312 -0.0731 -1.7036  1.2104
 2656TIP3    H229460   2.762   5.408  11.258  2.0856  0.3698 -1.0361
 2657TIP3   OH229461   3.730   5.384  12.526 -0.1821 -0.4926  0.8061
 2657TIP3    H129462   3.733   5.453  12.460  0.5344  0.3678  1.7015
 2657TIP3    H229463   3.717   5.303  12.476 -1.7427  0.3477 -0.2049
 2658TIP3   OH229464   3.428   4.389   0.106 -0.5715  0.3087 -0.3490
 2658TIP3    H129465   3.478   4.454   0.057 -1.1063  1.8315  1.0539
 2658TIP3    H229466   3.337   4.411   0.090 -0.7871 -0.9080 -0.8791
 2659TIP3   OH229467   4.633   1.145   3.642 -0.4725 -1.3197 -0.2089
 2659TIP3    H129468   4.686   1.225   3.640  0.4392 -1.8734  0.5613
 2659TIP3    H229469   4.584   1.146   3.560 -0.1551 -0.1860 -0.4000
 2660TIP3   OH229470   3.209   1.115   4.568 -0.7185  0.2719 -0.7927
 2660TIP3    H129471   3.302   1.099   4.548 -0.3863 -2.1124  1.9490
 2660TIP3    H229472   3.201   1.210   4.570  1.5439  0.5366 -1.6528
 2661TIP3   OH229473   2.824   6.561  13.476  0.3691  0.3505 -0.3145
 2661TIP3    H129474   2.918   6.578  13.484  0.6591 -1.4018  0.4366
 2661TIP3    H229475   2.784   6.614  13.545  0.8099  0.9660 -0.5197
 2662TIP3   OH229476   4.577   6.525   1.625 -0.3690 -0.3975  0.0273
 2662TIP3    H129477   4.484   6.513   1.643 -0.1269 -1.0505  0.9174
 2662TIP3    H229478   4.599   6.611   1.662 -0.2740 -0.9490  1.3011
 2663TIP3   OH229479   1.368   2.900  15.216 -0.5146  0.1486 -0.2140
 2663TIP3    H129480   1.273   2.904  15.218 -0.6112 -1.1785 -0.8256
 2663TIP3    H229481   1.396   2.939  15.299 -1.6425 -0.6365  0.5669
 2664TIP3   OH229482   1.561   0.447   4.448 -0.4414 -0.3538  0.8667
 2664TIP3    H129483   1.544   0.382   4.516  0.3035  0.1002  1.5068
 2664TIP3    H229484   1.656   0.444   4.436 -0.5511 -0.3417 -0.0814
 2665TIP3   OH229485   3.407   5.921  13.828 -0.3911 -0.1026  0.1843
 2665TIP3    H129486   3.457   5.844  13.854  0.4793  0.1197 -0.7500
 2665TIP3    H229487   3.410   5.920  13.732  0.1480  1.4137  0.1548
 2666TIP3   OH229488   2.471   6.595  16.071 -0.5205 -0.2657  0.1250
 2666TIP3    H129489   2.561   6.563  16.061 -1.1148 -1.2962 -3.1484
 2666TIP3    H229490   2.466   6.670  16.011 -1.6345  0.2713  0.8761
 2667TIP3   OH229491   2.912   4.663  14.853 -0.6274 -0.0030  0.5671
 2667TIP3    H129492   2.820   4.690  14.848 -0.0251  2.1419  0.2864
 2667TIP3    H229493   2.946   4.676  14.765  0.3816  0.9771  1.0766
 2668TIP3   OH229494   5.161   2.461   2.233  0.4258 -0.1545 -0.1326
 2668TIP3    H129495   5.097   2.497   2.295  0.8949  0.0456  0.2423
 2668TIP3    H229496   5.160   2.521   2.159  0.1965 -0.1415 -0.1193
 2669TIP3   OH229497   5.803   0.102   0.585  0.2258  0.3542  0.0628
 2669TIP3    H129498   5.816   0.183   0.634 -0.3961 -0.0754  0.9722
 2669TIP3    H229499   5.743   0.126   0.514 -0.7655  0.5019  0.9157
 2670TIP3   OH229500   6.563   2.725  14.267 -0.2594  0.2557  0.2926
 2670TIP3    H129501   6.574   2.749  14.359 -1.1503  1.7256  0.0503
 2670TIP3    H229502   6.593   2.802  14.218  0.5311 -0.6401 -0.6674
 2671TIP3   OH229503   0.743   0.204  10.899 -0.5735  0.7546  0.0846
 2671TIP3    H129504   0.835   0.191  10.922 -0.4836  0.3457 -0.4795
 2671TIP3    H229505   0.739   0.294  10.868 -0.6710  1.2723  1.5164
 2672TIP3   OH229506   4.098   5.312   1.533 -0.3079  0.0257 -0.3456
 2672TIP3    H129507   4.135   5.377   1.473 -1.0005  1.2061  0.4732
 2672TIP3    H229508   4.080   5.361   1.613 -0.4970 -1.2689  0.4221
 2673TIP3   OH229509   5.558   4.621   2.556 -0.0773  0.4870 -0.1407
 2673TIP3    H129510   5.627   4.668   2.508  0.3568  0.7169  0.6865
 2673TIP3    H229511   5.484   4.681   2.558  0.5372  1.2409  1.0729
 2674TIP3   OH229512   1.504   0.807   2.239  0.1932  0.6010  0.0466
 2674TIP3    H129513   1.447   0.877   2.209  1.0149  1.6870  0.9178
 2674TIP3    H229514   1.574   0.803   2.173  0.7446  1.3832  0.5709
 2675TIP3   OH229515   2.534   2.826  10.904  0.0553 -0.5419  0.0357
 2675TIP3    H129516   2.625   2.809  10.928  0.0391  0.0858  0.6064
 2675TIP3    H229517   2.483   2.767  10.960 -0.0890  2.2591  3.2470
 2676TIP3   OH229518   2.160   4.855  14.864  0.2462 -0.7871 -0.5399
 2676TIP3    H129519   2.116   4.770  14.852  1.8488 -1.6645 -0.4455
 2676TIP3    H229520   2.253   4.834  14.860  0.6854  0.8273  0.5465
 2677TIP3   OH229521   6.290   1.572  16.247 -0.3199 -0.0804 -0.4628
 2677TIP3    H129522   6.230   1.527  16.189  0.5892  0.9800 -2.3161
 2677TIP3    H229523   6.344   1.502  16.285 -1.2610 -0.8318 -0.4940
 2678TIP3   OH229524   0.455   3.059   3.574 -0.3799 -0.1525 -0.4096
 2678TIP3    H129525   0.449   3.117   3.650 -0.1591 -0.6228 -0.0302
 2678TIP3    H229526   0.365   3.048   3.544 -0.6597 -1.2791  0.7804
 2679TIP3   OH229527   6.035   6.286   2.420  0.0739 -0.1831 -0.6359
 2679TIP3    H129528   6.094   6.222   2.381  0.9436 -0.5041  1.1203
 2679TIP3    H229529   5.947   6.254   2.397  0.4793 -2.1173  0.3364
 2680TIP3   OH229530   5.768   2.211   3.356  0.2751  0.0082  0.5422
 2680TIP3    H129531   5.820   2.152   3.301  0.4411  0.4206  0.2499
 2680TIP3    H229532   5.679   2.176   3.350  0.7334 -1.6654  2.3376
 2681TIP3   OH229533   1.315   0.573   4.566 -0.1422 -0.0123  0.1916
 2681TIP3    H129534   1.404   0.555   4.536  0.3191  0.9406  0.9340
 2681TIP3    H229535   1.307   0.525   4.648  0.5523  1.7382  1.3643
 2682TIP3   OH229536   2.149   2.015   2.054 -0.1926 -0.2946 -0.0916
 2682TIP3    H129537   2.134   1.931   2.009 -1.3355 -0.9902  1.4932
 2682TIP3    H229538   2.197   1.991   2.133  0.5008  0.7119 -0.2026
 2683TIP3   OH229539   6.252   4.392  15.041 -0.1130  0.4441 -0.5024
 2683TIP3    H129540   6.160   4.369  15.031 -0.0671  0.1389 -0.2515
 2683TIP3    H229541   6.293   4.362  14.960 -0.1727  0.2572 -0.4636
 2684TIP3   OH229542   3.487   1.310   1.518 -0.1600 -0.3849 -0.2169
 2684TIP3    H129543   3.450   1.315   1.606  1.0098 -1.6357  0.3748
 2684TIP3    H229544   3.581   1.304   1.532  0.5697  3.9247 -1.6975
 2685TIP3   OH229545   2.925   3.473   0.895  0.2823  0.3027  0.3903
 2685TIP3    H129546   2.993   3.540   0.890  0.6721 -0.0658  0.6815
 2685TIP3    H229547   2.894   3.463   0.805 -0.1842  1.2793  0.4332
 2686TIP3   OH229548   5.018   2.214  12.126 -0.0420 -0.4536 -0.1687
 2686TIP3    H129549   5.007   2.239  12.217  0.7684  0.1974 -0.2370
 2686TIP3    H229550   5.068   2.132  12.129  0.6179 -0.0583 -0.0324
 2687TIP3   OH229551   3.411   2.455  17.039 -0.0727 -0.2239 -1.0904
 2687TIP3    H129552   3.356   2.520  16.995  0.9642  0.5874 -1.2468
 2687TIP3    H229553   3.427   2.493  17.126 -0.2536 -0.7387 -0.8324
 2688TIP3   OH229554   5.528   1.491  13.806  0.4018  0.2705 -0.1850
 2688TIP3    H129555   5.509   1.401  13.834 -1.5663  0.5048 -0.6653
 2688TIP3    H229556   5.443   1.532  13.795  1.2297  1.8071 -1.2996
 2689TIP3   OH229557   4.203   0.719  11.429 -0.1718  0.1658 -0.1634
 2689TIP3    H129558   4.161   0.633  11.442  0.4333 -0.3272 -1.3186
 2689TIP3    H229559   4.156   0.777  11.488 -1.0791 -0.8140  0.1242
 2690TIP3   OH229560   1.583   0.325  16.505 -0.2604  0.4084  0.2106
 2690TIP3    H129561   1.665   0.276  16.512 -1.5116 -1.9369 -0.5059
 2690TIP3    H229562   1.570   0.363  16.592  1.1500  0.0817  0.5793
 2691TIP3   OH229563   0.900   5.299   4.274  0.9933  0.2691 -0.3580
 2691TIP3    H129564   0.994   5.280   4.267  0.8039 -0.1196 -2.2263
 2691TIP3    H229565   0.885   5.308   4.368  2.7752 -0.3040  0.0255
 2692TIP3   OH229566   4.369   5.412   0.816 -0.1528  0.0197 -0.0838
 2692TIP3    H129567   4.345   5.444   0.729 -0.3719  1.7177  0.5553
 2692TIP3    H229568   4.287   5.378   0.853 -0.4753  1.0303  0.1515
 2693TIP3   OH229569   0.593   1.869   2.492  0.0111 -0.9341 -0.1070
 2693TIP3    H129570   0.657   1.806   2.525  0.5731 -0.2439  0.1422
 2693TIP3    H229571   0.573   1.839   2.403  1.2713 -0.7255 -0.4757
 2694TIP3   OH229572   0.287   4.438  16.017 -0.0993 -0.4406  0.0067
 2694TIP3    H129573   0.204   4.474  16.049  1.2308  0.3973  2.8709
 2694TIP3    H229574   0.343   4.435  16.095  2.1797 -2.1521 -1.5652
 2695TIP3   OH229575   2.420   1.196   4.572 -0.4757 -0.7666  0.3636
 2695TIP3    H129576   2.325   1.193   4.561 -0.5315 -0.2088  0.6638
 2695TIP3    H229577   2.456   1.184   4.484 -0.8677  2.3454 -0.3438
 2696TIP3   OH229578   3.986   1.174   2.350 -0.2425  0.1123 -0.1817
 2696TIP3    H129579   4.031   1.211   2.426 -1.0267 -0.9735  0.8554
 2696TIP3    H229580   4.031   1.091   2.333  0.3456  0.6458 -1.3387
 2697TIP3   OH229581   2.166   2.938  13.607  0.5832  0.3974 -0.5086
 2697TIP3    H129582   2.191   2.944  13.700  0.9164  0.5099 -0.6030
 2697TIP3    H229583   2.074   2.912  13.609  0.1479  1.8559 -0.1108
 2698TIP3   OH229584   5.085   1.682   1.477 -0.0067 -0.3085  0.1808
 2698TIP3    H129585   5.025   1.640   1.538  0.3659 -0.8681  0.1682
 2698TIP3    H229586   5.035   1.690   1.396 -0.6188  0.7449  0.6325
 2699TIP3   OH229587   3.922   5.957   0.346  0.1360  0.0929  0.0169
 2699TIP3    H129588   3.975   6.038   0.345 -0.0362  0.2127  0.4566
 2699TIP3    H229589   3.980   5.892   0.385 -0.8597  0.8186  2.9520
 2700TIP3   OH229590   2.901   6.385  16.826  0.7688  0.2799 -0.1899
 2700TIP3    H129591   2.957   6.345  16.892  2.8010  0.2415 -1.8071
 2700TIP3    H229592   2.874   6.313  16.770  0.4730  0.5381 -0.3853
 2701TIP3   OH229593   1.353   4.120  10.951 -0.0016 -0.0562  0.0449
 2701TIP3    H129594   1.268   4.098  10.913 -0.5262 -0.8818  1.6079
 2701TIP3    H229595   1.416   4.073  10.896 -0.7018 -0.8571 -0.0988
 2702TIP3   OH229596   4.372   4.809  15.345 -0.1909  0.1818  0.0899
 2702TIP3    H129597   4.402   4.852  15.425  0.6543  0.2411 -0.2521
 2702TIP3    H229598   4.321   4.734  15.376 -1.1357  1.0496  0.6833
 2703TIP3   OH229599   3.284   5.035   5.341  0.3755 -0.0811  0.3556
 2703TIP3    H129600   3.264   5.054   5.432 -0.4247 -0.5329  0.2806
 2703TIP3    H229601   3.309   5.120   5.304 -1.2123  0.4867  0.5193
 2704TIP3   OH229602   3.167   2.747  12.231  0.6843  0.4657 -0.0684
 2704TIP3    H129603   3.083   2.762  12.187  1.2658  1.1847 -0.9783
 2704TIP3    H229604   3.149   2.677  12.294 -0.8487  1.3397  0.5171
 2705TIP3   OH229605   2.021   3.723  12.450  0.9561 -0.0954 -0.0595
 2705TIP3    H129606   2.083   3.651  12.458 -2.0445 -2.7602  2.1330
 2705TIP3    H229607   2.023   3.766  12.535 -0.4383 -0.5300  0.2185
 2706TIP3   OH229608   1.727   4.975   0.829 -0.0177  0.1980 -0.5981
 2706TIP3    H129609   1.656   5.013   0.776  0.3548  1.9495  0.0952
 2706TIP3    H229610   1.755   5.047   0.885 -0.2214 -1.5203  1.8333
 2707TIP3   OH229611   1.902   2.818  13.692  0.3982 -0.1779  0.1253
 2707TIP3    H129612   1.837   2.858  13.634  1.8788 -1.1134 -2.3577
 2707TIP3    H229613   1.874   2.727  13.702 -0.6812  0.3307  2.2682
 2708TIP3   OH229614   4.328   0.171   6.554  0.1503  0.1537  0.2711
 2708TIP3    H129615   4.343   0.080   6.580 -0.0577  0.2997  0.9275
 2708TIP3    H229616   4.234   0.184   6.564  0.0690  0.2327 -0.5286
 2709TIP3   OH229617   6.015   5.729   0.076  0.0444 -0.1643 -0.6921
 2709TIP3    H129618   6.098   5.696   0.112 -0.4155 -0.7668 -0.1679
 2709TIP3    H229619   5.995   5.670   0.004 -0.2159 -0.3742 -0.4526
 2710TIP3   OH229620   6.495   6.115   5.487 -0.2223 -0.3524 -0.5201
 2710TIP3    H129621   6.547   6.110   5.407 -0.0794  1.7793 -0.6127
 2710TIP3    H229622   6.515   6.034   5.533  0.9443 -0.8965 -1.8946
 2711TIP3   OH229623   1.331   4.797   3.297  0.0782 -0.2767 -0.0835
 2711TIP3    H129624   1.241   4.765   3.283  0.2655 -0.4708 -0.9025
 2711TIP3    H229625   1.379   4.719   3.325  0.1564 -0.3293 -0.3697
 2712TIP3   OH229626   2.483   2.016  12.485  0.2784  0.6674  0.5239
 2712TIP3    H129627   2.478   1.937  12.539  2.4755 -0.1148 -0.2808
 2712TIP3    H229628   2.427   1.997  12.409 -1.3390  1.0235  1.5830
 2713TIP3   OH229629   3.271   0.600  12.917 -0.0167 -0.7542 -0.3122
 2713TIP3    H129630   3.218   0.595  12.996  1.3273 -0.9718  0.6026
 2713TIP3    H229631   3.286   0.509  12.893  0.4682 -0.7032 -0.2014
 2714TIP3   OH229632   5.452   2.364  15.928  0.0219 -0.1657  0.1960
 2714TIP3    H129633   5.404   2.291  15.966 -0.8064 -0.8697 -2.0168
 2714TIP3    H229634   5.537   2.326  15.903  1.4952  0.8316  3.1819
 2715TIP3   OH229635   5.900   5.667   4.609  0.2946 -0.9480 -0.2970
 2715TIP3    H129636   5.807   5.650   4.622  0.0099 -2.5476 -3.3476
 2715TIP3    H229637   5.944   5.591   4.649  0.5152  0.5217  2.4728
 2716TIP3   OH229638   2.986   3.986   1.552 -0.0597 -0.0200 -0.3894
 2716TIP3    H129639   2.892   3.989   1.530  0.0978 -0.8718 -1.2851
 2716TIP3    H229640   3.013   4.077   1.555 -0.9730  0.2456  0.1164
 2717TIP3   OH229641   1.638   6.545  14.931 -0.4177 -0.1896 -0.6622
 2717TIP3    H129642   1.686   6.464  14.953  1.7057  0.8506 -1.1692
 2717TIP3    H229643   1.627   6.590  15.015  0.4378  0.0215 -0.6509
 2718TIP3   OH229644   4.439   5.983  13.155 -0.2553 -0.2881  0.8490
 2718TIP3    H129645   4.494   5.912  13.188  1.2476  0.4661  0.0615
 2718TIP3    H229646   4.366   5.939  13.112 -0.2085 -1.3195  1.7812
 2719TIP3   OH229647   2.196   3.873  14.483  0.2298  0.2310  0.1172
 2719TIP3    H129648   2.189   3.949  14.425 -0.1526  1.1801  1.3389
 2719TIP3    H229649   2.151   3.802  14.436  1.0789  0.5909 -1.2939
 2720TIP3   OH229650   6.053   1.809  16.638  0.8805  0.5328 -0.2391
 2720TIP3    H129651   6.097   1.828  16.555 -0.6440  1.0316 -0.9535
 2720TIP3    H229652   5.968   1.773  16.613  0.6161  0.1664  1.1168
 2721TIP3   OH229653   6.015   4.709   0.140  0.0569  0.1473 -0.0413
 2721TIP3    H129654   6.083   4.754   0.192  0.6858  1.0163 -1.5444
 2721TIP3    H229655   6.006   4.763   0.062 -3.1676  0.6506  0.5490
 2722TIP3   OH229656   6.238   0.473  17.175 -0.0239  0.4643 -0.2011
 2722TIP3    H129657   6.146   0.454  17.193  0.0547 -0.0834 -0.3714
 2722TIP3    H229658   6.251   0.446  17.085 -0.4843  3.4315 -1.2765
 2723TIP3   OH229659   1.851   4.187  15.571 -0.0868 -0.0366  0.1137
 2723TIP3    H129660   1.810   4.198  15.656 -1.1343  0.5625 -0.4612
 2723TIP3    H229661   1.897   4.103  15.578 -2.3020 -1.2928  0.4170
 2724TIP3   OH229662   6.138   5.782  11.350 -0.1711 -0.2618 -0.7513
 2724TIP3    H129663   6.077   5.827  11.292  1.3118  0.7981 -1.5503
 2724TIP3    H229664   6.184   5.720  11.294  1.5384  1.0283 -0.8723
 2725TIP3   OH229665   4.145   5.780  15.515  0.4397  0.2681  0.0759
 2725TIP3    H129666   4.214   5.808  15.575  1.6671 -0.7607 -0.7943
 2725TIP3    H229667   4.183   5.790  15.428 -0.1140 -1.3101 -0.3796
 2726TIP3   OH229668   3.168   0.167  13.455  0.1245 -0.0418 -0.0209
 2726TIP3    H129669   3.178   0.191  13.363 -1.1563  0.1067 -0.1296
 2726TIP3    H229670   3.258   0.151  13.485  0.7756  1.9922 -0.7130
 2727TIP3   OH229671   5.560   4.135   5.218  0.5474 -0.0280  0.1380
 2727TIP3    H129672   5.622   4.125   5.145 -0.0988  0.8346 -0.5478
 2727TIP3    H229673   5.615   4.142   5.295  1.3733  1.7171 -0.5663
 2728TIP3   OH229674   4.343   3.858  12.638 -0.4168 -0.3419 -0.3483
 2728TIP3    H129675   4.268   3.917  12.632 -1.6081 -1.7296  0.3277
 2728TIP3    H229676   4.355   3.826  12.548 -0.4865  0.0387 -0.4985
 2729TIP3   OH229677   2.816   5.332  15.312  0.0762 -0.4399  0.6321
 2729TIP3    H129678   2.730   5.312  15.275 -0.1917  0.8094  0.5244
 2729TIP3    H229679   2.845   5.250  15.351  0.8998 -2.2583 -3.2805
 2730TIP3   OH229680   3.857   2.149   2.655  0.3813 -0.4272  0.7794
 2730TIP3    H129681   3.934   2.189   2.614 -0.4745 -1.0629 -1.6109
 2730TIP3    H229682   3.791   2.218   2.655 -0.0784 -0.8399 -0.3487
 2731TIP3   OH229683   5.726   1.134  14.824  0.1864 -0.2663  0.1027
 2731TIP3    H129684   5.674   1.175  14.754 -1.6063 -0.0376  1.4824
 2731TIP3    H229685   5.715   1.192  14.899  0.6112 -1.3927  1.0691
 2732TIP3   OH229686   1.060   6.824  13.327  0.6138 -0.2982  0.0394
 2732TIP3    H129687   0.973   6.851  13.355  0.1166 -2.0930  0.3627
 2732TIP3    H229688   1.068   6.855  13.236  0.6831  2.0885  0.7822
 2733TIP3   OH229689   0.327   2.000   0.516  0.2687 -0.3722  0.2148
 2733TIP3    H129690   0.341   1.944   0.440  0.7673  0.4989 -0.3646
 2733TIP3    H229691   0.239   2.036   0.503  0.3240 -0.2824  0.0884
 2734TIP3   OH229692   1.124   4.521  15.147 -0.4352 -0.6629 -0.3686
 2734TIP3    H129693   1.198   4.464  15.168 -1.2505 -1.5911  0.0711
 2734TIP3    H229694   1.067   4.467  15.093 -1.1324 -0.2069 -0.0976
 2735TIP3   OH229695   5.644   4.784  15.399  0.1961 -0.2696  0.0184
 2735TIP3    H129696   5.624   4.808  15.309  1.8174  1.2774  0.0080
 2735TIP3    H229697   5.630   4.865  15.448  1.8727 -0.3489  0.6945
 2736TIP3   OH229698   1.743   6.061   5.831 -0.0300 -0.3099  0.4218
 2736TIP3    H129699   1.711   5.975   5.858  1.8717 -1.2591 -0.1788
 2736TIP3    H229700   1.707   6.121   5.897  0.9035 -1.9535  2.5668
 2737TIP3   OH229701   5.845   6.467   1.076  0.2457 -0.1674 -0.1391
 2737TIP3    H129702   5.939   6.485   1.074 -0.0802  1.6793 -0.6749
 2737TIP3    H229703   5.811   6.519   1.149 -0.4894 -0.0714 -0.5334
 2738TIP3   OH229704   3.081   2.243   4.541 -0.3437  0.2664 -0.4198
 2738TIP3    H129705   3.112   2.259   4.451  0.1573 -0.0328 -0.3089
 2738TIP3    H229706   3.007   2.183   4.530  0.2626 -0.4722 -0.5909
 2739TIP3   OH229707   0.572   0.826   0.642 -0.6760  0.0472 -0.5979
 2739TIP3    H129708   0.652   0.809   0.592  0.5434  1.9878  0.5694
 2739TIP3    H229709   0.547   0.740   0.676 -0.8249 -1.1277 -3.3552
 2740TIP3   OH229710   6.101   4.328   5.982  0.6337 -0.2140 -0.2482
 2740TIP3    H129711   6.179   4.382   5.983 -0.5645  1.5963  1.1887
 2740TIP3    H229712   6.068   4.334   5.892  0.7754  1.0810 -0.2252
 2741TIP3   OH229713   0.118   3.391  13.707  0.1220 -0.5471 -0.5486
 2741TIP3    H129714   0.131   3.297  13.697 -0.2714 -0.7067  0.3475
 2741TIP3    H229715   0.139   3.408  13.799  1.1919  0.4161 -0.9540
 2742TIP3   OH229716   5.757   5.863   3.743  0.0211 -0.0429  0.1545
 2742TIP3    H129717   5.748   5.946   3.697 -1.1386 -0.8143 -1.1102
 2742TIP3    H229718   5.708   5.875   3.824 -2.2038 -0.1820 -1.0803
 2743TIP3   OH229719   6.457   4.216  14.534  0.1477  0.4650 -0.1767
 2743TIP3    H129720   6.544   4.180  14.513  0.1349  1.1754 -1.5298
 2743TIP3    H229721   6.474   4.278  14.605  0.4889 -0.5937  0.6964
 2744TIP3   OH229722   4.630   4.210  14.435 -0.0251 -0.3336 -0.1646
 2744TIP3    H129723   4.617   4.266  14.358 -0.6414 -0.9626 -0.5259
 2744TIP3    H229724   4.543   4.205  14.475  0.5523  1.2494  1.4803
 2745TIP3   OH229725   4.230   1.746   6.221 -0.2378 -0.0679 -0.3273
 2745TIP3    H129726   4.198   1.833   6.199  1.1345  0.7397  0.7022
 2745TIP3    H229727   4.235   1.700   6.137 -1.0214  0.8255 -0.8745
 2746TIP3   OH229728   3.993   0.327  15.086 -0.1240 -0.2862  0.7019
 2746TIP3    H129729   3.941   0.268  15.141  2.5140 -1.0874  2.5340
 2746TIP3    H229730   4.025   0.394  15.147  0.6406  0.4041 -0.4312
 2747TIP3   OH229731   6.552   0.109   2.181  0.2210  0.0485  0.0687
 2747TIP3    H129732   6.477   0.102   2.122 -0.5010  1.5648  0.7470
 2747TIP3    H229733   6.558   0.024   2.223 -0.8145 -0.2571 -0.3787
 2748TIP3   OH229734   5.154   5.105   2.631 -0.0316  0.4447 -0.4065
 2748TIP3    H129735   5.115   5.039   2.688  3.7152  0.3135  2.4001
 2748TIP3    H229736   5.111   5.187   2.655  0.7354  0.2112  2.0750
 2749TIP3   OH229737   5.103   4.901  15.141  0.3299  0.6995  0.6324
 2749TIP3    H129738   5.044   4.925  15.212  0.2001  1.4886  0.2738
 2749TIP3    H229739   5.172   4.968  15.143  1.0166  0.0010  0.8147
 2750TIP3   OH229740   3.796   4.084  16.357  0.6388 -0.3337 -0.3081
 2750TIP3    H129741   3.816   4.023  16.428  0.6623 -0.5384 -0.4903
 2750TIP3    H229742   3.701   4.095  16.361  0.7695  0.7329  0.6363
 2751TIP3   OH229743   1.880   2.638  14.173  0.3457 -0.7334  0.0933
 2751TIP3    H129744   1.811   2.574  14.156  1.7936 -2.2301 -0.3731
 2751TIP3    H229745   1.883   2.646  14.269 -0.6865 -0.3910  0.1040
 2752TIP3   OH229746   1.281   1.105  16.568 -0.3430  0.1895 -0.4883
 2752TIP3    H129747   1.365   1.149  16.559 -0.5220  0.3511 -1.4283
 2752TIP3    H229748   1.226   1.167  16.615  0.0115  0.1471 -0.0124
 2753TIP3   OH229749   4.082   1.777   1.005 -0.5330  0.2377  0.4731
 2753TIP3    H129750   4.108   1.827   0.928 -1.0857  1.1407  0.8470
 2753TIP3    H229751   4.098   1.686   0.982 -1.0578  0.4622 -0.8425
 2754TIP3   OH229752   2.606   2.385  15.783  0.0032  0.1974  0.4297
 2754TIP3    H129753   2.680   2.387  15.845  1.4949  0.6678 -1.2753
 2754TIP3    H229754   2.543   2.447  15.820  0.6784  0.2035  1.6617
 2755TIP3   OH229755   1.260   2.554   1.538 -0.2618  0.3172 -0.0007
 2755TIP3    H129756   1.297   2.467   1.530 -1.3595 -0.0364 -1.6520
 2755TIP3    H229757   1.303   2.605   1.470  0.9042  1.3155  1.4109
 2756TIP3   OH229758   1.874   0.441  12.915 -0.0336 -0.0827 -0.2734
 2756TIP3    H129759   1.934   0.422  12.987  0.4913 -1.3283 -0.9893
 2756TIP3    H229760   1.837   0.355  12.891 -0.2039  0.2951 -1.4504
 2757TIP3   OH229761   3.062   1.836  12.826 -0.0694 -0.0127 -0.2147
 2757TIP3    H129762   3.115   1.804  12.752 -0.1817 -3.2041  0.9180
 2757TIP3    H229763   3.032   1.922  12.798  2.3036  0.1876 -2.6339
 2758TIP3   OH229764   2.071   4.959   5.272 -0.4900 -0.5542 -0.0129
 2758TIP3    H129765   2.039   4.947   5.362 -0.3147 -3.3392 -0.2376
 2758TIP3    H229766   2.039   5.046   5.247 -0.2170  0.4762  2.8519
 2759TIP3   OH229767   3.487   3.686  15.134 -0.1641 -0.7045  0.0687
 2759TIP3    H129768   3.560   3.742  15.159 -0.0579 -1.2822  1.1255
 2759TIP3    H229769   3.527   3.600  15.119 -0.2662 -0.4430 -1.8934
 2760TIP3   OH229770   1.937   3.097   1.468 -0.1170 -0.4671  0.5565
 2760TIP3    H129771   2.028   3.094   1.441  0.4079 -0.7039  2.2147
 2760TIP3    H229772   1.927   3.181   1.513 -0.9086 -0.1523 -0.1655
 2761TIP3   OH229773   6.024   1.390  15.344  0.5140  0.0882  0.0522
 2761TIP3    H129774   6.023   1.295  15.361 -2.5611 -0.0137 -0.0855
 2761TIP3    H229775   6.087   1.425  15.407 -0.1699 -1.8069  1.9047
 2762TIP3   OH229776   0.904   2.724  11.484  0.1368 -0.1791 -0.6352
 2762TIP3    H129777   0.962   2.687  11.417  0.0584 -2.9048  0.6913
 2762TIP3    H229778   0.826   2.752  11.435  1.3526  0.9139 -2.0472
 2763TIP3   OH229779   0.170   4.602   4.382 -0.0106  0.3319  0.0435
 2763TIP3    H129780   0.152   4.641   4.296 -2.2910 -0.7293 -0.0187
 2763TIP3    H229781   0.235   4.534   4.364  1.5647  1.8643 -0.3597
 2764TIP3   OH229782   1.431   6.425  15.154  0.5620  0.3105  0.1678
 2764TIP3    H129783   1.398   6.379  15.231 -0.2104  1.0571  0.2928
 2764TIP3    H229784   1.424   6.362  15.083  1.1068 -0.3242  0.6672
 2765TIP3   OH229785   0.164   2.351   1.373  0.1403  0.3842  0.3181
 2765TIP3    H129786   0.213   2.426   1.340  2.0369 -0.2864  1.4764
 2765TIP3    H229787   0.216   2.275   1.347 -1.7581 -0.5964 -0.8670
 2766TIP3   OH229788   5.858   0.619  11.778  0.4462 -0.3105 -0.0865
 2766TIP3    H129789   5.877   0.702  11.821  1.4670 -0.3054 -0.5158
 2766TIP3    H229790   5.905   0.554  11.831  1.3197 -0.3575 -0.8922
 2767TIP3   OH229791   3.412   2.530   5.083 -0.3836 -0.0732 -0.1209
 2767TIP3    H129792   3.454   2.500   5.164 -0.5984 -0.8471 -0.2877
 2767TIP3    H229793   3.473   2.506   5.014 -0.1744  0.6421 -0.1919
 2768TIP3   OH229794   0.296   5.784  11.478  0.0445 -0.0492 -0.0120
 2768TIP3    H129795   0.333   5.849  11.419  0.6676 -0.6493 -0.3007
 2768TIP3    H229796   0.367   5.762  11.538  0.5345 -1.9386 -1.1952
 2769TIP3   OH229797   4.521   4.019   5.889  0.1154  0.3656  0.5358
 2769TIP3    H129798   4.466   3.968   5.948  1.0947 -0.5708  0.6791
 2769TIP3    H229799   4.487   4.108   5.894 -1.1184 -0.1137  0.9137
 2770TIP3   OH229800   0.479   1.504  14.478  0.3235 -0.2522  0.2624
 2770TIP3    H129801   0.565   1.535  14.451  0.6928 -1.0158  0.5150
 2770TIP3    H229802   0.474   1.415  14.444 -0.0197 -0.5082  0.9677
 2771TIP3   OH229803   0.950   3.343  13.429  0.2522 -0.1788 -0.8782
 2771TIP3    H129804   0.875   3.373  13.378 -1.6307 -1.4681  0.9653
 2771TIP3    H229805   0.946   3.393  13.511 -0.4099 -2.2458  0.4470
 2772TIP3   OH229806   0.029   1.156   3.593 -0.0033  0.0282  0.3785
 2772TIP3    H129807   0.106   1.200   3.630  0.0557 -0.8580  1.3628
 2772TIP3    H229808   0.065   1.078   3.551  0.1361  1.7403 -3.0225
 2773TIP3   OH229809   3.859   0.918  11.018  0.0265 -0.3062 -0.6846
 2773TIP3    H129810   3.869   0.939  10.925  1.2314  0.6314 -0.3745
 2773TIP3    H229811   3.789   0.976  11.049 -1.3118 -1.5499 -1.2566
 2774TIP3   OH229812   6.008   0.469   1.316 -0.2483  0.0648  0.6357
 2774TIP3    H129813   6.003   0.438   1.407  0.1880 -1.1333  0.2730
 2774TIP3    H229814   6.082   0.530   1.315  2.3334 -2.8437  0.3333
 2775TIP3   OH229815   0.199   2.370   0.135  0.9184 -0.1720 -0.3384
 2775TIP3    H129816   0.124   2.390   0.079  2.0124  1.4175 -1.3078
 2775TIP3    H229817   0.273   2.411   0.091  2.2248 -0.9528  1.0553
 2776TIP3   OH229818   1.895   5.529   4.241 -0.1231 -0.2250  0.2286
 2776TIP3    H129819   1.941   5.487   4.314  2.7771  0.9299 -0.8097
 2776TIP3    H229820   1.816   5.476   4.230  0.3649 -1.6862  2.8283
 2777TIP3   OH229821   6.485   1.435  15.267 -0.6442  0.0235  0.0269
 2777TIP3    H129822   6.390   1.430  15.276 -0.6077  0.3178  0.6171
 2777TIP3    H229823   6.501   1.425  15.173 -1.3058  0.6519 -0.1652
 2778TIP3   OH229824   3.869   3.538   0.837 -0.0092 -0.2847 -0.2420
 2778TIP3    H129825   3.833   3.524   0.749  0.3249  0.4757 -0.5123
 2778TIP3    H229826   3.793   3.552   0.892 -0.1572  2.1817 -0.9610
 2779TIP3   OH229827   0.612   0.746  11.590  0.0044  0.1572 -0.1501
 2779TIP3    H129828   0.518   0.755  11.604  0.0389  1.4262 -0.5602
 2779TIP3    H229829   0.628   0.652  11.585 -0.5474 -0.4890  4.6830
 2780TIP3   OH229830   6.671   4.566   0.385  0.0404 -0.6281  0.5042
 2780TIP3    H129831   6.589   4.594   0.426 -0.6602 -0.0622 -1.1693
 2780TIP3    H229832   6.733   4.636   0.404  0.8839 -2.0354  3.6429
 2781TIP3   OH229833   4.505   2.802   1.945 -0.2082  0.2407 -0.0400
 2781TIP3    H129834   4.583   2.748   1.941  0.8035  1.5783  0.8106
 2781TIP3    H229835   4.435   2.743   1.973  0.7024 -0.7748  0.1163
 2782TIP3   OH229836   4.033   1.869   2.798  0.1786 -0.2882 -0.6329
 2782TIP3    H129837   3.950   1.839   2.836 -0.2495  0.2908 -1.0892
 2782TIP3    H229838   4.023   1.853   2.704  0.1611  0.7617 -0.8188
 2783TIP3   OH229839   6.704   6.160   0.584 -0.2022 -0.2186  0.0130
 2783TIP3    H129840   6.763   6.228   0.553 -1.3244  1.4298  1.2877
 2783TIP3    H229841   6.632   6.160   0.520 -0.5143  0.2704  0.3568
 2784TIP3   OH229842   0.860   3.086  11.857 -0.1987  0.1963  0.1476
 2784TIP3    H129843   0.836   3.085  11.949 -1.6858 -0.9205 -0.2159
 2784TIP3    H229844   0.876   3.178  11.837 -4.0302  1.1191  0.5513
 2785TIP3   OH229845   3.706   2.705  11.509 -0.1274  0.9386 -0.3782
 2785TIP3    H129846   3.646   2.776  11.530 -0.9237 -0.0172  0.7405
 2785TIP3    H229847   3.790   2.747  11.493 -0.4816  2.0878  0.6712
 2786TIP3   OH229848   4.837   4.461  15.111 -0.9825 -0.5239  0.2411
 2786TIP3    H129849   4.890   4.384  15.092 -1.0656 -0.7925  1.0372
 2786TIP3    H229850   4.900   4.534  15.112 -1.1696 -0.2420 -2.3885
 2787TIP3   OH229851   0.574   1.399  13.984 -0.6124  0.5374  0.5718
 2787TIP3    H129852   0.652   1.347  14.002 -0.5710  0.3219 -0.2405
 2787TIP3    H229853   0.552   1.438  14.069 -0.9552 -1.2027  1.3217
 2788TIP3   OH229854   4.363   1.207   4.792 -0.4449  0.0346  0.1849
 2788TIP3    H129855   4.445   1.256   4.804  0.2646 -0.8655 -0.8038
 2788TIP3    H229856   4.355   1.198   4.697 -1.3365 -0.4895  0.3055
 2789TIP3   OH229857   0.604   2.389  12.213 -0.8364  0.1687 -0.1131
 2789TIP3    H129858   0.680   2.331  12.204  0.4127  1.5632  0.9036
 2789TIP3    H229859   0.535   2.347  12.162  0.8915 -0.6494 -1.9072
 2790TIP3   OH229860   5.348   1.875   5.388  0.1124  0.2371 -0.6154
 2790TIP3    H129861   5.267   1.926   5.392  0.4961  1.1765 -2.9747
 2790TIP3    H229862   5.320   1.787   5.364 -0.3304  0.0423  0.5439
 2791TIP3   OH229863   1.527   5.995  12.494  0.3543 -0.1223  0.1427
 2791TIP3    H129864   1.540   6.015  12.587  0.6698 -0.9444  0.2817
 2791TIP3    H229865   1.472   5.916  12.494  1.8147 -1.1731 -0.3180
 2792TIP3   OH229866   0.114   1.043   4.511 -0.3763 -0.1407 -0.0421
 2792TIP3    H129867   0.049   1.111   4.531  0.2279 -0.3708  3.3756
 2792TIP3    H229868   0.062   0.963   4.499 -0.9360  0.4425 -1.7689
 2793TIP3   OH229869   4.290   3.638  13.886 -0.0643 -0.2761  0.0385
 2793TIP3    H129870   4.335   3.556  13.867  1.9533  0.3341  1.7236
 2793TIP3    H229871   4.212   3.612  13.935 -0.2475 -1.2541 -0.7551
 2794TIP3   OH229872   2.827   0.232  17.060 -0.6816 -0.1716 -0.1298
 2794TIP3    H129873   2.790   0.233  16.972 -0.2050  1.3515 -0.3306
 2794TIP3    H229874   2.771   0.171  17.109 -1.1483 -0.7778 -1.3856
 2795TIP3   OH229875   0.779   5.360  12.337 -0.1143 -0.2167  0.8540
 2795TIP3    H129876   0.789   5.377  12.430 -0.5581 -0.5359  0.9634
 2795TIP3    H229877   0.849   5.411  12.295  0.8927 -1.0658  1.4462
 2796TIP3   OH229878   4.249   6.126   5.186  0.1065 -0.3116 -0.2740
 2796TIP3    H129879   4.236   6.105   5.279 -0.7487  0.5981 -0.1642
 2796TIP3    H229880   4.268   6.042   5.145  0.9127 -0.6714  0.7887
 2797TIP3   OH229881   4.765   5.291  17.227  0.3801  0.1769 -0.0992
 2797TIP3    H129882   4.784   5.318  17.317  0.7626 -0.0527 -0.1077
 2797TIP3    H229883   4.818   5.213  17.214 -0.0520 -0.0809 -0.3619
 2798TIP3   OH229884   3.740   3.810  16.144  0.3665  0.8369  0.1730
 2798TIP3    H129885   3.677   3.739  16.134  1.5061 -0.2465  0.4305
 2798TIP3    H229886   3.687   3.889  16.146 -1.1547 -0.1446  2.2550
 2799TIP3   OH229887   3.158   5.861   2.738  0.3158 -0.4621  0.0329
 2799TIP3    H129888   3.228   5.862   2.673 -1.1315 -1.5543 -1.6362
 2799TIP3    H229889   3.188   5.802   2.806  0.2684 -2.4963 -1.6192
 2800TIP3   OH229890   1.760   4.870   2.601 -0.1239 -0.4522  0.3972
 2800TIP3    H129891   1.782   4.785   2.563  0.6102 -0.0999  0.0301
 2800TIP3    H229892   1.737   4.851   2.691 -1.2302 -1.2114 -0.0199
 2801TIP3   OH229893   5.992   4.586  10.535 -0.3339 -0.1838  0.1670
 2801TIP3    H129894   5.981   4.625  10.448 -0.6742  0.5442  0.5234
 2801TIP3    H229895   5.918   4.526  10.544  0.2120 -0.9621 -0.4006
 2802TIP3   OH229896   4.718   2.266   3.222  0.2104 -0.1530 -0.3024
 2802TIP3    H129897   4.746   2.187   3.269  0.6281  1.6868  2.8683
 2802TIP3    H229898   4.800   2.311   3.200  0.0081 -0.9057 -2.8499
 2803TIP3   OH229899   6.057   0.737   1.623 -0.6242  0.7103  0.0576
 2803TIP3    H129900   6.106   0.740   1.705  0.3244 -0.4125 -0.4559
 2803TIP3    H229901   6.027   0.647   1.615 -0.5051  0.7479 -0.9568
 2804TIP3   OH229902   5.296   5.476  13.278 -0.3161  0.0028  0.2406
 2804TIP3    H129903   5.295   5.556  13.225  1.3648  0.6061  1.0729
 2804TIP3    H229904   5.335   5.410  13.222  0.0862  0.2639  0.2115
 2805TIP3   OH229905   0.253   1.198  17.090  0.7950 -0.6444  0.3556
 2805TIP3    H129906   0.244   1.254  17.012  0.4508  0.7249  1.3457
 2805TIP3    H229907   0.176   1.142  17.088  0.3164  0.0045  0.1821
 2806TIP3   OH229908   0.582   6.789   5.541  0.4888 -0.2414 -0.2699
 2806TIP3    H129909   0.580   6.868   5.595  2.1655 -0.6576  0.4761
 2806TIP3    H229910   0.493   6.756   5.544  0.4989 -0.3089  2.4400
 2807TIP3   OH229911   5.826   4.290   2.825 -0.2287  0.5855 -0.3660
 2807TIP3    H129912   5.736   4.321   2.835 -0.4766 -0.5725  1.4944
 2807TIP3    H229913   5.818   4.195   2.815  0.7852  0.4460  0.0040
 2808TIP3   OH229914   1.076   0.549  14.299 -0.0511 -0.1433 -0.0851
 2808TIP3    H129915   1.060   0.522  14.208  1.1188 -0.9089 -0.0950
 2808TIP3    H229916   1.122   0.633  14.292 -1.2727  0.5438 -0.1368
 2809TIP3   OH229917   6.663   0.815   3.095  0.1807 -0.2089  0.0969
 2809TIP3    H129918   6.582   0.773   3.064 -0.5184  0.6933  0.6512
 2809TIP3    H229919   6.733   0.767   3.051 -0.6430 -1.1640 -0.2197
 2810TIP3   OH229920   5.028   6.409  14.193 -1.1653 -0.3434 -0.3546
 2810TIP3    H129921   5.052   6.393  14.284  0.2612  1.3562 -0.3752
 2810TIP3    H229922   4.992   6.497  14.192  0.9012  0.5833 -1.6893
 2811TIP3   OH229923   2.305   5.581  14.374 -0.9089 -0.0862  0.2388
 2811TIP3    H129924   2.365   5.643  14.332 -0.9428  0.4318  0.9234
 2811TIP3    H229925   2.264   5.533  14.302  0.3056 -0.4295 -0.2483
 2812TIP3   OH229926   1.936   4.543   3.323  0.5540  0.4265 -0.1881
 2812TIP3    H129927   1.895   4.627   3.344 -3.2938 -0.2675 -3.7324
 2812TIP3    H229928   1.897   4.482   3.386 -0.7155  0.5056 -0.8634
 2813TIP3   OH229929   6.223   4.098  14.474  0.0791 -0.1319  0.2784
 2813TIP3    H129930   6.300   4.144  14.506 -0.0687  0.7698 -0.6321
 2813TIP3    H229931   6.152   4.124  14.533  0.1489  0.2231  0.2020
 2814TIP3   OH229932   6.126   3.378   2.866 -0.0298 -0.6064 -0.5168
 2814TIP3    H129933   6.155   3.432   2.939  2.1659 -0.3259 -1.5366
 2814TIP3    H229934   6.119   3.290   2.903 -1.8587 -0.0062  0.7047
 2815TIP3   OH229935   2.240   1.671   0.071  0.2343  0.1990 -0.6734
 2815TIP3    H129936   2.251   1.579   0.048 -1.0382  0.0679 -0.8152
 2815TIP3    H229937   2.281   1.680   0.157  0.9890 -0.3352 -0.9755
 2816TIP3   OH229938   3.809   1.499   3.334  0.5412 -0.1094 -0.5190
 2816TIP3    H129939   3.869   1.440   3.381 -1.2539 -0.8251  0.9972
 2816TIP3    H229940   3.745   1.525   3.400 -0.6849  0.8329 -2.0272
 2817TIP3   OH229941   1.419   3.738  14.043  0.1763 -0.4359  0.1380
 2817TIP3    H129942   1.402   3.801  13.974  0.6103 -1.1489 -0.6377
 2817TIP3    H229943   1.511   3.753  14.067  0.0160 -0.1599  0.6110
 2818TIP3   OH229944   5.070   5.896   1.399 -0.0499  0.0412  0.1206
 2818TIP3    H129945   5.116   5.977   1.378  0.3963  0.0147  0.9441
 2818TIP3    H229946   5.055   5.901   1.493 -0.5571 -0.5624  0.0787
 2819TIP3   OH229947   6.151   6.393  17.126  0.3666  0.1736  1.1488
 2819TIP3    H129948   6.066   6.374  17.086  0.1108  0.1850  1.6700
 2819TIP3    H229949   6.203   6.314  17.111  0.7795  0.7279 -0.4760
 2820TIP3   OH229950   6.002   4.168  16.691  0.4344 -0.0748  0.1241
 2820TIP3    H129951   5.953   4.182  16.610  2.8825 -0.0362 -1.4302
 2820TIP3    H229952   6.013   4.073  16.696  1.6111  0.0191 -0.4499
 2821TIP3   OH229953   1.066   2.870  14.775  0.2198 -0.5084 -0.2172
 2821TIP3    H129954   1.045   2.864  14.868  0.5618 -0.1898 -0.1181
 2821TIP3    H229955   1.161   2.886  14.772  0.0321  0.6834 -0.5772
 2822TIP3   OH229956   2.450   3.088   0.762  0.2342  0.3003 -0.4052
 2822TIP3    H129957   2.478   3.121   0.847  1.5846 -0.1181 -0.6589
 2822TIP3    H229958   2.399   3.009   0.782 -1.2090  1.3304  0.0956
 2823TIP3   OH229959   4.551   2.655  13.413  0.6570 -0.1328  0.1366
 2823TIP3    H129960   4.621   2.685  13.355  1.3380 -1.3662  0.2838
 2823TIP3    H229961   4.586   2.668  13.501  0.2305  0.3348  0.2378
 2824TIP3   OH229962   3.901   5.776  12.531  0.1535  0.6020  0.5395
 2824TIP3    H129963   3.880   5.863  12.566 -0.7306  0.5421  0.1881
 2824TIP3    H229964   3.965   5.740  12.593 -1.4507  0.4335  2.1731
 2825TIP3   OH229965   0.421   2.788  10.961 -0.8308  0.1202 -0.1948
 2825TIP3    H129966   0.513   2.787  10.988 -1.2667  1.1175  1.4477
 2825TIP3    H229967   0.402   2.697  10.937  1.3022  0.3621 -3.3366
 2826TIP3   OH229968   4.622   5.450  12.125  0.1337  0.8243 -0.8039
 2826TIP3    H129969   4.542   5.455  12.073  0.0997 -0.9366 -1.0016
 2826TIP3    H229970   4.687   5.499  12.074 -0.1418 -0.0526 -2.0539
 2827TIP3   OH229971   3.486   6.779  15.294 -0.4781 -0.4204 -0.5704
 2827TIP3    H129972   3.532   6.728  15.360 -0.4153 -0.4043 -0.6019
 2827TIP3    H229973   3.457   6.714  15.229  0.7991 -0.2568 -1.3291
 2828TIP3   OH229974   5.587   2.387  12.926 -0.1055 -0.3665 -0.5575
 2828TIP3    H129975   5.652   2.419  12.989 -0.6408  0.3899 -0.3764
 2828TIP3    H229976   5.628   2.310  12.886  0.7656 -0.0948 -0.2092
 2829TIP3   OH229977   0.400   5.727   3.558 -0.3715  0.0424  0.1188
 2829TIP3    H129978   0.407   5.758   3.648 -1.8351 -0.8318  0.5600
 2829TIP3    H229979   0.465   5.657   3.552 -0.1469  0.2213  0.4274
 2830TIP3   OH229980   1.571   6.138   2.857  0.4139  0.9428 -0.2872
 2830TIP3    H129981   1.502   6.166   2.917 -0.1100  2.6729 -1.6057
 2830TIP3    H229982   1.526   6.127   2.773  1.4541  0.3793 -0.7883
 2831TIP3   OH229983   1.361   6.793   2.468 -0.3595 -0.0021 -0.1085
 2831TIP3    H129984   1.424   6.821   2.402 -2.5610  1.9674 -1.5219
 2831TIP3    H229985   1.336   6.705   2.441  0.4803 -0.1178 -0.5396
 2832TIP3   OH229986   6.385   5.327  13.857  0.3394 -0.5838 -0.5620
 2832TIP3    H129987   6.296   5.334  13.892  1.5311 -0.2676  2.7583
 2832TIP3    H229988   6.393   5.400  13.796 -1.0678  0.5618  0.5529
 2833TIP3   OH229989   6.132   3.218   1.910 -0.0947 -0.5863 -0.1112
 2833TIP3    H129990   6.100   3.139   1.954  0.9808 -1.8160 -1.4601
 2833TIP3    H229991   6.058   3.248   1.858 -0.3536 -1.0104  0.0014
 2834TIP3   OH229992   3.819   5.366   0.656 -0.4314 -0.0384  0.0906
 2834TIP3    H129993   3.823   5.405   0.743  0.0802  2.7106 -1.0531
 2834TIP3    H229994   3.909   5.364   0.626 -0.5017 -1.7794 -0.1038
 2835TIP3   OH229995   1.071   2.753  12.318 -0.5822 -0.3448  0.1471
 2835TIP3    H129996   1.118   2.794  12.245 -0.0162  0.0512  0.7238
 2835TIP3    H229997   1.112   2.666  12.327  1.6639  0.7893  2.0714
 2836TIP3   OH229998   0.229   3.293  11.447 -0.1477 -0.4048 -0.5410
 2836TIP3    H129999   0.224   3.297  11.542  0.8737 -1.5282 -0.4226
 2836TIP3    H230000   0.156   3.348  11.417 -1.1849 -0.9483  0.8859
 2837TIP3   OH230001   1.604   3.540   2.205  0.1487  0.1570 -0.1043
 2837TIP3    H130002   1.575   3.476   2.139 -0.1585  1.2506 -1.0800
 2837TIP3    H230003   1.547   3.524   2.280 -1.4885  0.7252 -1.1517
 2838TIP3   OH230004   4.949   6.224  16.737 -0.6966  0.0744 -0.0245
 2838TIP3    H130005   4.951   6.318  16.721 -1.7973  0.3405  1.2782
 2838TIP3    H230006   4.999   6.186  16.664 -5.1161  1.1658 -4.1434
 2839TIP3   OH230007   5.383   4.529  13.639  0.1369  0.2733  0.2503
 2839TIP3    H130008   5.477   4.514  13.632  0.4639  1.2834  1.8762
 2839TIP3    H230009   5.369   4.615  13.601 -0.3757 -0.4139 -1.1997
 2840TIP3   OH230010   4.565   2.193   4.159  0.4361 -0.3232  0.2490
 2840TIP3    H130011   4.563   2.143   4.078 -0.1077 -0.4655  0.3513
 2840TIP3    H230012   4.478   2.182   4.197  1.0149 -1.1635  1.4047
 2841TIP3   OH230013   6.491   6.335   1.176 -0.3693  0.7813 -0.1882
 2841TIP3    H130014   6.456   6.264   1.229  1.5057  0.1032  0.2362
 2841TIP3    H230015   6.556   6.292   1.120  1.5580  2.2442  0.7935
 2842TIP3   OH230016   0.166   5.056  13.279 -0.2112 -0.3452 -0.2649
 2842TIP3    H130017   0.127   5.007  13.352 -0.9639  0.2433 -0.2642
 2842TIP3    H230018   0.217   5.125  13.321 -0.9785  0.2485 -0.2859
 2843TIP3   OH230019   0.072   4.536   0.683  0.4307  0.0261  0.4237
 2843TIP3    H130020   0.040   4.469   0.622 -2.0291  0.5618  1.0241
 2843TIP3    H230021   0.167   4.531   0.676  0.2804 -2.1510 -1.0230
 2844TIP3   OH230022   0.518   6.039  15.518  0.4620  0.0190  0.0576
 2844TIP3    H130023   0.440   6.036  15.462  0.1502 -0.0536  0.4900
 2844TIP3    H230024   0.483   6.039  15.608  0.9622 -0.2065  0.2573
 2845TIP3   OH230025   3.652   5.908   0.271  0.1113 -0.3166  0.2593
 2845TIP3    H130026   3.745   5.898   0.291  0.9243 -0.1242 -2.8673
 2845TIP3    H230027   3.642   6.001   0.250 -0.9164 -0.2374  1.0241
 2846TIP3   OH230028   2.857   4.962   0.832 -0.8323  0.5738  0.3382
 2846TIP3    H130029   2.778   4.922   0.868 -2.0231  0.3575 -2.2639
 2846TIP3    H230030   2.903   4.890   0.789 -0.8628  1.2216 -0.8337
 2847TIP3   OH230031   3.603   5.334   4.395  0.0833  0.0199  0.1311
 2847TIP3    H130032   3.664   5.261   4.394  0.6190  0.4450 -1.2912
 2847TIP3    H230033   3.653   5.407   4.431 -0.5471 -0.3490  1.8544
 2848TIP3   OH230034   5.127   1.492  15.756  0.4471  0.5470  0.1610
 2848TIP3    H130035   5.158   1.491  15.666  0.1869  0.6055  0.0686
 2848TIP3    H230036   5.070   1.569  15.760 -1.3161 -0.6772 -0.2312
 2849TIP3   OH230037   0.708   2.891  12.603  0.0170  0.3871 -0.3525
 2849TIP3    H130038   0.794   2.851  12.610 -0.0181  0.4839  0.7979
 2849TIP3    H230039   0.717   2.955  12.532  1.0148  0.6868  0.0269
 2850TIP3   OH230040   1.691   4.337   5.842 -0.0961 -0.0924 -0.3824
 2850TIP3    H130041   1.786   4.337   5.830 -0.0534  0.3820 -0.0600
 2850TIP3    H230042   1.679   4.335   5.937 -0.3815  2.1453 -0.3211
 2851TIP3   OH230043   2.558   2.364  12.789 -0.2246  0.3869 -0.1506
 2851TIP3    H130044   2.583   2.421  12.862 -3.1405  2.0107 -0.2532
 2851TIP3    H230045   2.462   2.372  12.784 -0.5355 -2.7145 -1.7436
 2852TIP3   OH230046   3.968   2.518  14.263 -0.1196 -0.4399  0.2272
 2852TIP3    H130047   3.878   2.548  14.252 -0.1265 -1.0060 -1.7363
 2852TIP3    H230048   3.960   2.426  14.289 -0.1402 -0.6620 -0.5274
 2853TIP3   OH230049   1.552   6.726   4.786  0.0711  0.3845 -0.1201
 2853TIP3    H130050   1.546   6.707   4.880 -1.4416  1.6915  0.0912
 2853TIP3    H230051   1.629   6.782   4.778 -1.1057  2.2196  0.7452
 2854TIP3   OH230052   5.656   4.502  13.620 -0.1028 -0.4023 -0.3128
 2854TIP3    H130053   5.745   4.512  13.656  0.3508  1.6520 -1.8094
 2854TIP3    H230054   5.658   4.418  13.575  0.9774 -0.5771  0.0368
 2855TIP3   OH230055   3.395   5.742   5.034  0.2422 -0.1087 -0.0318
 2855TIP3    H130056   3.478   5.695   5.039  0.5047  0.1871 -1.3655
 2855TIP3    H230057   3.331   5.675   5.012  0.1038 -0.3386  1.0038
 2856TIP3   OH230058   5.051   5.921  11.699 -0.8407  0.4398  0.3500
 2856TIP3    H130059   5.140   5.907  11.732 -1.5952  1.4146  3.0720
 2856TIP3    H230060   5.052   6.011  11.665 -0.7204  0.3552  0.1281
 2857TIP3   OH230061   3.181   2.140  16.740 -0.1615 -0.0638 -0.1841
 2857TIP3    H130062   3.215   2.194  16.811  0.8085  2.6149 -2.4839
 2857TIP3    H230063   3.238   2.064  16.738  1.3536  1.0143  0.4089
 2858TIP3   OH230064   0.287   5.326   4.193  0.1995  0.3581 -0.2782
 2858TIP3    H130065   0.367   5.368   4.161 -0.0510  1.9077  1.0130
 2858TIP3    H230066   0.218   5.360   4.136  0.2066  0.4426 -0.2356
 2859TIP3   OH230067   5.100   1.438   5.250  0.3044  0.5181 -0.4566
 2859TIP3    H130068   5.087   1.524   5.290  0.7391  0.8523 -1.0147
 2859TIP3    H230069   5.092   1.454   5.156 -0.0455 -0.1350 -0.5433
 2860TIP3   OH230070   3.824   5.588  16.526 -0.5584  0.2510 -0.5907
 2860TIP3    H130071   3.883   5.640  16.581  0.8253  0.6205 -2.3412
 2860TIP3    H230072   3.858   5.599  16.437 -1.4751 -2.0083 -1.2874
 2861TIP3   OH230073   1.552   4.750   1.229 -0.4156  0.2715  0.3328
 2861TIP3    H130074   1.470   4.798   1.243 -0.1742  0.3525  1.5242
 2861TIP3    H230075   1.525   4.658   1.226 -0.6266  0.3391  0.0616
 2862TIP3   OH230076   4.988   2.711   4.497 -0.0094  0.5675 -0.3204
 2862TIP3    H130077   4.916   2.704   4.560  0.2284  1.1296  0.0187
 2862TIP3    H230078   4.956   2.666   4.419 -0.6428  0.6261 -0.0978
 2863TIP3   OH230079   0.219   3.781   5.054 -0.1336  0.2899  0.0262
 2863TIP3    H130080   0.266   3.729   4.989  0.3394  0.5558  0.1433
 2863TIP3    H230081   0.231   3.734   5.137 -1.3113 -0.4107 -0.1784
 2864TIP3   OH230082   5.853   6.138   5.122  0.0881  0.6600  0.1769
 2864TIP3    H130083   5.819   6.126   5.211  1.3036  0.3218  0.6034
 2864TIP3    H230084   5.945   6.162   5.134  0.9972 -1.8973 -1.0376
 2865TIP3   OH230085   6.022   1.438   4.374  0.7615 -0.7659 -0.3192
 2865TIP3    H130086   5.979   1.466   4.293  0.9518  1.2819  0.2226
 2865TIP3    H230087   6.111   1.472   4.366  0.5745  0.1095  1.0352
 2866TIP3   OH230088   1.391   0.368  11.420  0.2792 -0.3457 -0.0790
 2866TIP3    H130089   1.365   0.276  11.420  0.8190 -0.5091  0.4876
 2866TIP3    H230090   1.313   0.415  11.449  0.1352 -0.6694  0.0631
 2867TIP3   OH230091   2.565   3.696   2.305 -0.0354  0.6035 -0.2766
 2867TIP3    H130092   2.560   3.790   2.321  0.6497  0.8636 -1.4614
 2867TIP3    H230093   2.512   3.682   2.226  2.3218  0.5278 -1.9646
 2868TIP3   OH230094   4.708   3.191   2.390 -0.5348  0.1055 -0.0572
 2868TIP3    H130095   4.779   3.255   2.382  0.8250 -1.4440 -1.2279
 2868TIP3    H230096   4.665   3.193   2.304  0.8400 -1.8971 -0.8976
 2869TIP3   OH230097   4.929   1.759  16.950 -0.5988  0.1167 -0.3954
 2869TIP3    H130098   4.915   1.853  16.942 -1.3567  0.0839  0.4269
 2869TIP3    H230099   4.968   1.748  17.036 -0.7099 -0.3395 -0.4028
 2870TIP3   OH230100   2.439   5.040  12.751 -0.3061 -0.0862 -0.4922
 2870TIP3    H130101   2.525   5.067  12.720 -1.7292  3.0124 -2.1881
 2870TIP3    H230102   2.407   4.980  12.683 -0.6065  1.0926 -1.4197
 2871TIP3   OH230103   3.487   4.852  14.006 -0.4412 -0.4294 -0.1472
 2871TIP3    H130104   3.541   4.793  14.058  1.1438  0.6779 -0.4560
 2871TIP3    H230105   3.400   4.812  14.007  0.3458 -2.2323  0.4392
 2872TIP3   OH230106   1.911   6.235  11.909  0.1977 -0.4004 -0.2239
 2872TIP3    H130107   1.940   6.218  11.819 -1.3015  0.3904 -0.8975
 2872TIP3    H230108   1.919   6.330  11.919  1.4888 -0.6022  0.9196
 2873TIP3   OH230109   3.822   4.556  14.041  0.5955  0.3509 -0.1135
 2873TIP3    H130110   3.766   4.478  14.035 -2.1146  2.1529  0.1014
 2873TIP3    H230111   3.857   4.553  14.130 -0.0942 -0.2404  0.1509
 2874TIP3   OH230112   4.429   1.288  15.422  0.1032 -0.0915  0.3630
 2874TIP3    H130113   4.453   1.206  15.464  0.7171  0.3416  0.8744
 2874TIP3    H230114   4.450   1.356  15.486 -0.5287  0.4636  0.0079
 2875TIP3   OH230115   2.750   6.553  13.871  0.5663  0.1486 -0.3089
 2875TIP3    H130116   2.791   6.466  13.868  0.8133  0.2727 -0.5101
 2875TIP3    H230117   2.675   6.546  13.813 -0.3770 -0.4273  0.9266
 2876TIP3   OH230118   4.851   6.470   4.665 -0.4089 -0.1509 -0.4692
 2876TIP3    H130119   4.848   6.427   4.750  0.2778 -2.4097 -1.4858
 2876TIP3    H230120   4.943   6.493   4.653 -0.5067  0.1876 -0.5849
 2877TIP3   OH230121   5.706   3.696   3.818  0.1385  0.4308 -0.0659
 2877TIP3    H130122   5.785   3.703   3.764  0.0214 -2.0707 -0.6645
 2877TIP3    H230123   5.738   3.676   3.905  0.1908  0.2882 -0.1183
 2878TIP3   OH230124   1.202   5.680   6.051 -0.0950 -0.1619  0.5045
 2878TIP3    H130125   1.257   5.745   6.007 -0.4179 -1.0654 -1.3027
 2878TIP3    H230126   1.264   5.629   6.104  0.9199 -1.3181 -1.6809
 2879TIP3   OH230127   2.325   3.650   6.295  0.0985 -0.1997 -0.6730
 2879TIP3    H130128   2.406   3.698   6.309 -0.0348  0.6241 -2.5196
 2879TIP3    H230129   2.336   3.570   6.346  2.2031 -0.2505 -1.1120
 2880TIP3   OH230130   6.082   2.705  14.522 -0.0532  0.2458 -0.0056
 2880TIP3    H130131   6.123   2.661  14.597 -3.5655 -0.3526  1.7752
 2880TIP3    H230132   6.106   2.651  14.446  1.2952 -0.7671  1.0891
 2881TIP3   OH230133   0.154   0.626  12.524  0.6778  0.4116 -0.0157
 2881TIP3    H130134   0.118   0.694  12.581  0.3327  1.3710 -1.3353
 2881TIP3    H230135   0.102   0.633  12.444  2.3450  0.3270 -1.1303
 2882TIP3   OH230136   3.051   3.601   5.178  0.2503  0.2622 -0.7316
 2882TIP3    H130137   2.981   3.619   5.115 -1.1613 -0.4178  0.5569
 2882TIP3    H230138   3.007   3.555   5.250  1.9630  0.1780  0.3258
 2883TIP3   OH230139   0.197   3.102   2.907  0.0483  0.0062  0.3955
 2883TIP3    H130140   0.210   3.020   2.860 -0.6388 -0.3275  0.7722
 2883TIP3    H230141   0.165   3.075   2.993 -2.2285  0.7176 -0.1628
 2884TIP3   OH230142   0.899   2.213   3.307  0.3449  0.6926  0.1144
 2884TIP3    H130143   0.940   2.184   3.388  0.7436 -0.6384 -0.5355
 2884TIP3    H230144   0.865   2.133   3.267  0.7269  1.2206 -1.3420
 2885TIP3   OH230145   5.782   0.739   2.492  0.3687 -0.2725 -0.2766
 2885TIP3    H130146   5.768   0.644   2.492  1.9681 -0.5440  0.6556
 2885TIP3    H230147   5.718   0.773   2.555  0.2770 -0.8194 -0.0696
 2886TIP3   OH230148   0.083   4.520  10.909  0.0990  0.1197  0.2577
 2886TIP3    H130149   0.068   4.432  10.944  0.0866 -0.5407 -1.3388
 2886TIP3    H230150   0.177   4.523  10.891  0.0402  0.3085 -0.0231
 2887TIP3   OH230151   2.443   2.206   2.473 -0.3690  0.9218  0.1056
 2887TIP3    H130152   2.419   2.180   2.562 -0.1350 -1.1513 -0.3985
 2887TIP3    H230153   2.531   2.243   2.482  0.2510 -0.5880  0.5752
 2888TIP3   OH230154   1.879   4.998   1.595 -0.0894  0.4540  0.2765
 2888TIP3    H130155   1.851   4.912   1.626  2.1815 -0.1164  0.9669
 2888TIP3    H230156   1.814   5.059   1.630 -0.9354 -0.8263  1.0185
 2889TIP3   OH230157   1.363   0.228   3.731  0.2945  0.1443 -0.1489
 2889TIP3    H130158   1.319   0.219   3.816 -0.2082 -1.3317 -0.5526
 2889TIP3    H230159   1.405   0.144   3.716  0.4254  0.4072 -1.3540
 2890TIP3   OH230160   5.400   0.020  10.951 -0.2408  0.3082  0.3516
 2890TIP3    H130161   5.442   0.103  10.928  3.4800 -1.0837  1.4200
 2890TIP3    H230162   5.393   0.023  11.047 -1.8862  0.1224  0.2592
 2891TIP3   OH230163   2.219   5.459  11.944 -0.2595  0.2184 -0.0790
 2891TIP3    H130164   2.225   5.541  11.992  0.0684  0.3855 -0.3993
 2891TIP3    H230165   2.216   5.392  12.012 -0.7054  0.5020  0.1846
 2892TIP3   OH230166   6.417   6.599  15.247 -0.7155 -0.2679 -0.2962
 2892TIP3    H130167   6.407   6.666  15.180 -1.1312  0.8915  0.8783
 2892TIP3    H230168   6.430   6.518  15.199  1.1017  0.8216 -1.7911
 2893TIP3   OH230169   3.992   0.659   1.620  0.1266  0.2894 -0.0631
 2893TIP3    H130170   4.028   0.718   1.553 -0.3432  1.3321  0.5778
 2893TIP3    H230171   4.069   0.614   1.656  0.6716  1.5517  0.4097
 2894TIP3   OH230172   4.151   4.517  12.121  0.1449 -0.0241 -0.1418
 2894TIP3    H130173   4.173   4.608  12.136 -0.1557  0.1276 -0.5938
 2894TIP3    H230174   4.094   4.518  12.044  1.6874 -0.7872 -1.3286
 2895TIP3   OH230175   1.074   0.855  14.032 -0.7931 -0.1290  0.2504
 2895TIP3    H130176   1.049   0.937  14.073  1.7575  1.3107 -0.8254
 2895TIP3    H230177   1.127   0.810  14.097  0.3039  0.5075 -0.1832
 2896TIP3   OH230178   5.460   5.096   3.032 -0.8976 -0.1460 -0.1451
 2896TIP3    H130179   5.411   5.121   3.110 -0.3519  1.0032 -0.1497
 2896TIP3    H230180   5.519   5.170   3.016  1.4582 -1.8209  0.3462
 2897TIP3   OH230181   4.652   4.705  13.746 -0.2872 -0.4650 -0.0860
 2897TIP3    H130182   4.741   4.679  13.723  0.3706  0.2947  1.4559
 2897TIP3    H230183   4.662   4.762  13.823 -1.9241  1.6632 -1.3410
 2898TIP3   OH230184   5.225   1.302   1.045 -0.4336  0.0822  0.2989
 2898TIP3    H130185   5.258   1.248   1.117 -3.5941  0.8221  2.4994
 2898TIP3    H230186   5.256   1.390   1.065 -0.5181  0.1351  0.1939
 2899TIP3   OH230187   1.521   4.494   5.007 -0.4505  0.5000 -0.3936
 2899TIP3    H130188   1.468   4.547   5.067  0.0754  2.1786 -1.3349
 2899TIP3    H230189   1.556   4.423   5.061 -2.3716  0.2466  0.5893
 2900TIP3   OH230190   6.284   2.409  16.972  0.2378 -0.4188 -0.1551
 2900TIP3    H130191   6.296   2.501  16.995 -1.2921 -0.6628  1.9488
 2900TIP3    H230192   6.244   2.410  16.885 -0.1433  0.9209  0.0259
 2901TIP3   OH230193   4.048   5.492  14.103 -0.7250 -0.1583 -0.4042
 2901TIP3    H130194   4.038   5.507  14.009  1.1754  1.5923 -0.3923
 2901TIP3    H230195   4.135   5.454  14.112 -0.7296  0.0674  0.6982
 2902TIP3   OH230196   5.880   3.253   1.190  0.0468  0.1034  0.0206
 2902TIP3    H130197   5.831   3.219   1.115  0.0014 -1.8284  0.8812
 2902TIP3    H230198   5.890   3.178   1.249  1.7463  1.1065  1.0866
 2903TIP3   OH230199   5.266   6.822  11.498  0.4175 -0.5893  0.4485
 2903TIP3    H130200   5.313   6.903  11.517  0.1083 -0.0068 -1.1580
 2903TIP3    H230201   5.189   6.850  11.449 -0.7597 -1.6899  1.6037
 2904TIP3   OH230202   2.268   2.478   5.036  0.3196 -0.6585  0.0782
 2904TIP3    H130203   2.191   2.520   5.073 -0.4646 -1.9209 -0.0632
 2904TIP3    H230204   2.277   2.396   5.084  0.2056 -1.5941 -1.4276
 2905TIP3   OH230205   1.394   0.517   5.639 -0.2735 -0.1907 -0.4749
 2905TIP3    H130206   1.425   0.447   5.695 -0.2058  0.4570  0.3127
 2905TIP3    H230207   1.422   0.597   5.683 -2.6369  0.4201  0.0345
 2906TIP3   OH230208   1.964   4.039   5.603 -0.0408  0.0070  0.2130
 2906TIP3    H130209   2.036   4.102   5.612  1.4250 -1.7679  1.4475
 2906TIP3    H230210   1.905   4.061   5.675 -0.3856  0.9885 -0.3490
 2907TIP3   OH230211   6.241   2.841  11.491  0.3325  0.2719  0.5763
 2907TIP3    H130212   6.252   2.747  11.505 -1.1982  0.2062  1.6475
 2907TIP3    H230213   6.329   2.873  11.470  0.7707 -1.4836 -0.4597
 2908TIP3   OH230214   4.056   5.321   5.873  0.1973 -0.3593  0.1865
 2908TIP3    H130215   4.123   5.299   5.809  0.9884  0.9216  0.5404
 2908TIP3    H230216   4.055   5.417   5.875 -1.1304 -0.3563  0.7348
 2909TIP3   OH230217   3.732   0.828  11.487  0.2177  0.5333  0.4179
 2909TIP3    H130218   3.795   0.780  11.540  0.4149  0.0530 -0.2325
 2909TIP3    H230219   3.786   0.879  11.426  0.0732 -1.9693 -2.0213
 2910TIP3   OH230220   3.064   5.150   1.029  0.0375  0.0726  0.0865
 2910TIP3    H130221   3.026   5.072   1.071  1.2231 -0.5688  0.0086
 2910TIP3    H230222   2.995   5.216   1.034 -0.5415 -0.5927  1.2856
 2911TIP3   OH230223   1.096   3.733  16.316  0.6104  0.1365 -0.1277
 2911TIP3    H130224   1.152   3.655  16.325  0.1648 -0.2410 -0.5883
 2911TIP3    H230225   1.007   3.698  16.316  0.4379  0.5575 -1.3446
 2912TIP3   OH230226   1.089   2.888  10.471  0.0728  0.0413  0.0179
 2912TIP3    H130227   1.055   2.961  10.420  2.8384  0.3073 -1.5832
 2912TIP3    H230228   1.103   2.818  10.408  2.2137 -0.1279  0.6238
 2913TIP3   OH230229   0.311   5.387   2.084 -0.3392 -0.1157  0.8041
 2913TIP3    H130230   0.296   5.425   2.171 -0.9499  0.7085  0.3509
 2913TIP3    H230231   0.251   5.311   2.082 -1.0995  0.4764  0.7192
 2914TIP3   OH230232   5.081   0.589   1.536 -0.3481 -0.3506 -0.1238
 2914TIP3    H130233   5.062   0.637   1.616 -0.4626  2.1439 -1.5408
 2914TIP3    H230234   5.018   0.517   1.536 -1.9830  0.9935  0.9079
 2915TIP3   OH230235   6.675   0.296   0.579  0.3147  0.5537 -0.0569
 2915TIP3    H130236   6.754   0.255   0.612  0.0371  0.0766  0.0156
 2915TIP3    H230237   6.603   0.254   0.626 -0.1339 -0.5583 -1.6517
 2916TIP3   OH230238   6.234   2.463  11.784  0.4392 -0.0976 -0.1310
 2916TIP3    H130239   6.193   2.540  11.744  0.6258  0.5632  0.9097
 2916TIP3    H230240   6.227   2.478  11.878 -0.8873 -2.0912  0.1609
 2917TIP3   OH230241   5.214   1.816  14.467  0.3495 -0.4336  0.2551
 2917TIP3    H130242   5.275   1.888  14.483  1.5358 -1.3238 -0.1110
 2917TIP3    H230243   5.234   1.788  14.377 -0.6831 -0.6689  0.0899
 2918TIP3   OH230244   4.413   1.824   0.131 -0.0185 -0.3404 -0.6263
 2918TIP3    H130245   4.426   1.896   0.069  0.4043 -2.1890 -2.8248
 2918TIP3    H230246   4.320   1.827   0.153  0.1168  1.2242 -0.1712
 2919TIP3   OH230247   4.671   5.640  11.683  0.2406 -0.6118 -0.2398
 2919TIP3    H130248   4.681   5.735  11.683 -0.3396 -0.5129  1.4820
 2919TIP3    H230249   4.727   5.610  11.612 -0.8224  1.1171 -1.9067
 2920TIP3   OH230250   6.711   1.473   4.066 -0.4959  0.5835  0.1547
 2920TIP3    H130251   6.720   1.436   3.978 -1.7988 -1.7605  0.9206
 2920TIP3    H230252   6.630   1.524   4.062 -1.7277 -1.2603  0.4792
 2921TIP3   OH230253   1.801   3.558  10.804 -0.1657 -0.4481 -0.0694
 2921TIP3    H130254   1.873   3.610  10.769 -0.6521  0.0918 -0.2718
 2921TIP3    H230255   1.843   3.478  10.836  0.5910  0.0670  0.2524
 2922TIP3   OH230256   4.932   2.630   0.499  0.1060  0.0673  0.5033
 2922TIP3    H130257   4.953   2.700   0.562 -0.0654 -1.1751  2.0132
 2922TIP3    H230258   4.894   2.561   0.553 -1.0733 -0.6376 -1.1616
 2923TIP3   OH230259   5.899   2.116   0.507  0.1578 -0.0332  0.1962
 2923TIP3    H130260   5.817   2.145   0.547 -0.2690 -0.0128 -0.6524
 2923TIP3    H230261   5.909   2.025   0.535  0.1910  0.1655  0.8361
 2924TIP3   OH230262   4.735   5.902   5.612 -0.4530  0.5880 -0.1074
 2924TIP3    H130263   4.682   5.981   5.623  0.2789  0.8892  1.5189
 2924TIP3    H230264   4.825   5.933   5.620 -0.1749 -0.4756  1.1919
 2925TIP3   OH230265   3.957   0.767   5.687  0.1046 -0.3194 -0.1188
 2925TIP3    H130266   3.992   0.683   5.659  0.4566 -0.1568 -0.1644
 2925TIP3    H230267   3.989   0.830   5.623  0.9871  0.0659  0.6749
 2926TIP3   OH230268   2.208   0.782  16.316 -0.1834  0.2684 -0.7346
 2926TIP3    H130269   2.270   0.710  16.329  0.6974  0.8260 -1.6300
 2926TIP3    H230270   2.191   0.782  16.221 -1.7985 -0.0388 -0.4741
 2927TIP3   OH230271   4.419   3.281   0.655 -0.3260  0.2289 -0.3417
 2927TIP3    H130272   4.414   3.260   0.561  0.4405  1.4173 -0.6888
 2927TIP3    H230273   4.349   3.344   0.669 -1.0804 -0.7011  0.1281
 2928TIP3   OH230274   1.280   2.978  16.149  0.0156  0.6806 -0.3540
 2928TIP3    H130275   1.204   2.921  16.161 -0.6191  1.6219  0.1472
 2928TIP3    H230276   1.295   2.977  16.054 -0.3085  0.1070 -0.4047
 2929TIP3   OH230277   0.596   0.009  12.281 -0.0489  0.0458  0.3647
 2929TIP3    H130278   0.635  -0.056  12.222 -2.1542  0.0159 -1.1128
 2929TIP3    H230279   0.669   0.066  12.306  1.3415 -1.2973 -0.4344
 2930TIP3   OH230280   1.364   2.101  15.970  0.0519  0.0695  1.0973
 2930TIP3    H130281   1.346   2.114  16.064 -2.2008 -1.3777  0.9253
 2930TIP3    H230282   1.446   2.051  15.968 -0.0920 -0.2528  2.3171
 2931TIP3   OH230283   5.750   3.093   3.587 -0.0831  0.2336 -0.5385
 2931TIP3    H130284   5.776   3.073   3.497 -0.0220 -0.4884 -0.3619
 2931TIP3    H230285   5.825   3.066   3.641  0.1805  1.3232 -0.3167
 2932TIP3   OH230286   5.223   4.523  15.907  0.1262  0.2787  0.4266
 2932TIP3    H130287   5.270   4.532  15.989 -0.8919  0.7194  0.9783
 2932TIP3    H230288   5.182   4.437  15.911 -0.1167  0.3960  0.4872
 2933TIP3   OH230289   4.550   1.884  13.953  0.4345  0.2300  0.2986
 2933TIP3    H130290   4.632   1.910  13.911  1.4662 -0.3264  1.8558
 2933TIP3    H230291   4.482   1.925  13.900  1.7026  0.6127 -1.1151
 2934TIP3   OH230292   6.051   3.183  14.239  0.1793 -0.3733 -0.1478
 2934TIP3    H130293   6.133   3.145  14.272 -0.1148 -3.0277 -2.1985
 2934TIP3    H230294   5.982   3.128  14.275 -1.1990  3.1976  3.5648
 2935TIP3   OH230295   0.402   5.270  15.017  0.7015  0.0511 -0.4284
 2935TIP3    H130296   0.437   5.261  14.928 -1.7068  0.1118 -1.4704
 2935TIP3    H230297   0.369   5.359  15.021 -0.4796 -0.3910  0.0124
 2936TIP3   OH230298   3.737   3.144   2.427 -0.5823  0.0649  0.2416
 2936TIP3    H130299   3.689   3.198   2.365  0.7019 -0.3201 -1.1402
 2936TIP3    H230300   3.783   3.207   2.483 -1.1377  0.4018  0.3296
 2937TIP3   OH230301   1.514   2.745  14.504  0.4877  0.0027  0.3510
 2937TIP3    H130302   1.432   2.710  14.539  0.5904  1.2513  1.9780
 2937TIP3    H230303   1.559   2.668  14.469 -0.9822 -0.8424  0.2118
 2938TIP3   OH230304   1.695   2.013   4.507  0.0665 -0.3995 -0.3111
 2938TIP3    H130305   1.741   2.074   4.450 -0.8126  0.7548  0.1623
 2938TIP3    H230306   1.745   2.014   4.589  1.4407 -2.2062 -1.0796
 2939TIP3   OH230307   6.565   5.431  16.121 -0.4294  1.1721 -0.3058
 2939TIP3    H130308   6.596   5.341  16.110  0.3717  1.3215  0.5963
 2939TIP3    H230309   6.515   5.449  16.042 -1.7421 -0.5386  0.0547
 2940TIP3   OH230310   5.600   1.280  12.964  0.4857 -0.4255  0.4858
 2940TIP3    H130311   5.527   1.337  12.986  0.6549 -0.5167  1.3110
 2940TIP3    H230312   5.606   1.285  12.868 -1.7144 -1.7601  0.2014
 2941TIP3   OH230313   6.114   4.034  13.986  0.1126  0.2749 -0.3366
 2941TIP3    H130314   6.034   3.981  13.979  1.2090 -1.6700  0.7865
 2941TIP3    H230315   6.139   4.052  13.895 -1.6810  1.1183 -0.7040
 2942TIP3   OH230316   3.522   5.604  15.159  0.1322  0.2827  0.0747
 2942TIP3    H130317   3.504   5.647  15.076  0.9996 -0.2313 -0.3972
 2942TIP3    H230318   3.449   5.629  15.216 -0.4850  0.6196 -0.8456
 2943TIP3   OH230319   0.810   2.348  14.082  0.9379  0.1043 -0.2002
 2943TIP3    H130320   0.877   2.346  14.015  2.5154  0.4396  1.3042
 2943TIP3    H230321   0.823   2.432  14.127 -0.4916  0.1783  0.1354
 2944TIP3   OH230322   0.012   5.065  12.252  0.1329 -0.3010 -0.0589
 2944TIP3    H130323   0.099   5.043  12.217 -0.5649 -1.8882 -0.9081
 2944TIP3    H230324   0.029   5.133  12.317  1.8781  0.2611 -1.0304
 2945TIP3   OH230325   6.158   5.335   4.712 -0.1730 -0.1617 -0.3466
 2945TIP3    H130326   6.079   5.387   4.724  0.1876  0.8070 -1.8758
 2945TIP3    H230327   6.225   5.380   4.764 -0.0777  0.3908 -0.9414
 2946TIP3   OH230328   6.561   1.578  13.791 -0.3564  0.0130 -0.4760
 2946TIP3    H130329   6.651   1.609  13.793 -0.4772  0.4106 -1.3023
 2946TIP3    H230330   6.508   1.657  13.784 -0.8301 -0.1526  0.8297
 2947TIP3   OH230331   2.912   1.194   1.561 -0.0214  0.6784 -0.0814
 2947TIP3    H130332   2.855   1.249   1.508 -0.1574  0.7943  0.1862
 2947TIP3    H230333   2.946   1.252   1.629 -0.0677  0.4621  0.1290
 2948TIP3   OH230334   0.088   5.183   1.672  0.2140 -0.5819 -0.4362
 2948TIP3    H130335   0.021   5.207   1.736 -0.4283  0.7035 -1.5506
 2948TIP3    H230336   0.063   5.096   1.641 -0.1534 -0.6863  0.1400
 2949TIP3   OH230337   2.515   1.927  17.223 -0.1259 -0.1983  0.0377
 2949TIP3    H130338   2.567   1.946  17.145 -0.0034 -1.6642 -0.2785
 2949TIP3    H230339   2.491   2.013  17.258  0.8230  0.4902 -0.9351
 2950TIP3   OH230340   4.662   0.776   3.294  0.5517  0.5575  1.2361
 2950TIP3    H130341   4.646   0.848   3.233  0.8747  0.2145  0.7388
 2950TIP3    H230342   4.663   0.697   3.239 -1.4176 -0.0429  1.9811
 2951TIP3   OH230343   1.610   0.630  14.954  0.1408  0.5184 -0.2993
 2951TIP3    H130344   1.584   0.624  15.046 -1.7251 -2.3453 -0.8697
 2951TIP3    H230345   1.665   0.708  14.949  0.3673  0.7339  3.2305
 2952TIP3   OH230346   5.503   3.849  13.912  0.0233 -0.1551  0.2985
 2952TIP3    H130347   5.468   3.889  13.832 -1.9180 -1.2068  0.5659
 2952TIP3    H230348   5.514   3.922  13.973  1.2952  0.6269 -0.7951
 2953TIP3   OH230349   2.787   2.993  13.489 -0.8919  0.5925  0.0007
 2953TIP3    H130350   2.806   2.924  13.427  0.3189  1.1591 -0.2868
 2953TIP3    H230351   2.691   2.996  13.494 -0.9636 -0.6975 -0.4125
 2954TIP3   OH230352   3.112   5.513   3.408 -0.3942  0.1759  0.1488
 2954TIP3    H130353   3.193   5.463   3.414 -0.9808 -1.0076 -1.2045
 2954TIP3    H230354   3.082   5.521   3.499  1.7164  1.5362  0.7959
 2955TIP3   OH230355   3.750   1.174   4.900 -0.3412 -0.1059 -0.2978
 2955TIP3    H130356   3.732   1.085   4.931  2.2982  0.3764  3.2990
 2955TIP3    H230357   3.834   1.167   4.854 -1.0251  0.2806 -1.6405
 2956TIP3   OH230358   2.354   2.586  12.763 -0.1976 -0.5767 -0.3142
 2956TIP3    H130359   2.421   2.642  12.723 -0.6160 -0.6932 -1.1941
 2956TIP3    H230360   2.276   2.642  12.768 -0.0721 -0.4727  0.6166
 2957TIP3   OH230361   6.407   4.916   4.382  0.0568 -0.1693 -0.1716
 2957TIP3    H130362   6.344   4.863   4.430 -0.1070 -0.5910 -0.8375
 2957TIP3    H230363   6.468   4.853   4.345  0.7256  0.2158  0.2394
 2958TIP3   OH230364   6.486   4.590   3.801 -0.0828 -0.1993 -0.0463
 2958TIP3    H130365   6.455   4.668   3.754 -1.0193 -0.6549 -0.2197
 2958TIP3    H230366   6.452   4.517   3.750 -0.1380 -0.7112  0.7098
 2959TIP3   OH230367   5.965   2.808  13.113  0.2325  0.2912 -0.9407
 2959TIP3    H130368   5.998   2.897  13.107 -0.3542  0.8823  2.3774
 2959TIP3    H230369   6.042   2.753  13.101  0.7191  1.2320 -2.3466
 2960TIP3   OH230370   1.769   0.684   3.580 -0.4792 -0.2048  0.2644
 2960TIP3    H130371   1.724   0.636   3.511 -0.1921 -0.4295  0.2304
 2960TIP3    H230372   1.846   0.631   3.600 -0.6447 -0.2211  0.8720
 2961TIP3   OH230373   2.226   0.914   2.885  0.2392  0.4250 -0.4313
 2961TIP3    H130374   2.209   0.949   2.972 -0.2180  0.0343 -0.3562
 2961TIP3    H230375   2.163   0.958   2.828  0.5007  0.6397 -0.5511
 2962TIP3   OH230376   2.245   2.524  16.803 -0.4214 -0.2298  0.3450
 2962TIP3    H130377   2.295   2.597  16.767  1.2219 -1.5810 -0.2578
 2962TIP3    H230378   2.303   2.449  16.794 -1.3820 -1.3187  2.4944
 2963TIP3   OH230379   0.885   3.624  14.769  0.7288 -0.2089  0.2630
 2963TIP3    H130380   0.929   3.540  14.767  0.2876 -0.4382  0.0739
 2963TIP3    H230381   0.947   3.685  14.727  1.0390 -0.4370  0.3860
 2964TIP3   OH230382   3.174   4.108   6.153  0.3909  0.6381 -0.0846
 2964TIP3    H130383   3.170   4.084   6.245 -1.9217 -1.8194 -0.7002
 2964TIP3    H230384   3.233   4.043   6.114  0.7540  1.1885 -0.4566
 2965TIP3   OH230385   3.309   1.576   0.521 -0.3774 -0.4073  0.5457
 2965TIP3    H130386   3.245   1.643   0.547 -0.5524  0.1693 -1.2679
 2965TIP3    H230387   3.263   1.493   0.531 -0.5870 -0.1827  1.5625
 2966TIP3   OH230388   3.982   1.267  15.702  0.0033  0.0888  0.3306
 2966TIP3    H130389   3.910   1.304  15.754  1.9883 -0.0295  3.4855
 2966TIP3    H230390   4.024   1.344  15.662 -0.1587  0.4879  0.9048
 2967TIP3   OH230391   1.320   5.662  11.276 -0.1316  0.5140  0.1924
 2967TIP3    H130392   1.231   5.685  11.301 -0.6217  0.2168 -1.1832
 2967TIP3    H230393   1.353   5.740  11.230  0.2199  0.5150  0.4374
 2968TIP3   OH230394   4.705   5.038  14.290 -0.4719 -0.6443  0.1801
 2968TIP3    H130395   4.793   5.000  14.288  0.4700  1.3458 -2.7095
 2968TIP3    H230396   4.647   4.965  14.269  0.4979 -1.8728  1.5723
 2969TIP3   OH230397   6.039   5.961  11.820 -0.4805  0.0339  0.3035
 2969TIP3    H130398   6.066   5.964  11.728 -0.0678  3.5686  0.4004
 2969TIP3    H230399   5.945   5.980  11.817 -0.2794  1.1024  0.6423
 2970TIP3   OH230400   5.676   2.937   0.543  0.1606  0.0578 -0.4344
 2970TIP3    H130401   5.638   3.025   0.544  0.0064  0.0294  1.8846
 2970TIP3    H230402   5.769   2.951   0.560  0.3468 -0.1742 -1.2336
 2971TIP3   OH230403   0.147   2.622  11.018 -0.4348 -0.5806  0.0260
 2971TIP3    H130404   0.146   2.570  11.098  0.7931  0.9854  1.1231
 2971TIP3    H230405   0.213   2.581  10.963  0.3241 -0.3643  0.7642
 2972TIP3   OH230406   1.169   3.483  11.285  0.5216 -0.1528 -0.4697
 2972TIP3    H130407   1.264   3.470  11.276  0.4450 -0.2717 -1.1565
 2972TIP3    H230408   1.161   3.563  11.336  0.9924 -0.5245  0.2062
 2973TIP3   OH230409   3.269   5.306  12.201  0.7149  0.2895 -0.4016
 2973TIP3    H130410   3.201   5.261  12.152  0.0549  0.1885  0.5728
 2973TIP3    H230411   3.297   5.242  12.267  2.3448  0.0314 -1.2976
 2974TIP3   OH230412   2.736   5.059   1.218 -0.7416 -0.0091  0.0442
 2974TIP3    H130413   2.792   4.994   1.174 -2.3047 -1.2316 -0.2192
 2974TIP3    H230414   2.663   5.072   1.158 -1.1608  0.9596  0.7448
 2975TIP3   OH230415   0.063   4.853   6.416  0.0530  0.5956  0.0515
 2975TIP3    H130416  -0.015   4.880   6.464  0.7152  0.7640  1.0729
 2975TIP3    H230417   0.042   4.766   6.382 -0.9682  1.0860 -0.6302
 2976TIP3   OH230418   5.845   1.852   1.883  0.2117  0.5428 -0.4678
 2976TIP3    H130419   5.854   1.788   1.953  2.4649  0.7209 -0.5289
 2976TIP3    H230420   5.853   1.937   1.926 -0.8751  0.7528 -0.6423
 2977TIP3   OH230421   5.257   4.161   0.407 -0.0864 -0.9291 -0.3743
 2977TIP3    H130422   5.279   4.068   0.417 -0.4450 -1.3820 -3.0119
 2977TIP3    H230423   5.213   4.166   0.322 -0.3486  1.6258 -0.1613
 2978TIP3   OH230424   0.138   4.732  16.137  0.0952  0.1223  0.1667
 2978TIP3    H130425   0.110   4.640  16.144 -0.0308  0.0893 -0.6562
 2978TIP3    H230426   0.066   4.775  16.091  0.2002  0.6202  0.4571
 2979TIP3   OH230427   5.836   1.401   2.007 -0.0523 -0.0258 -0.0409
 2979TIP3    H130428   5.927   1.396   1.979 -0.2347 -1.1273 -0.5152
 2979TIP3    H230429   5.823   1.492   2.033  0.9812  0.3110 -0.6590
 2980TIP3   OH230430   2.318   1.922  16.387 -0.1504  0.1106 -0.0111
 2980TIP3    H130431   2.371   1.967  16.321  0.4497  0.1299  0.4748
 2980TIP3    H230432   2.237   1.972  16.391  0.0256  0.4309 -0.3423
 2981TIP3   OH230433   5.401   3.409  11.702 -0.5248  0.2125 -0.1855
 2981TIP3    H130434   5.424   3.317  11.718 -0.0692  0.1441 -1.1661
 2981TIP3    H230435   5.328   3.426  11.761 -0.2243 -0.6092  0.4371
 2982TIP3   OH230436   6.621   1.239   2.865  0.0555  0.4527  0.0269
 2982TIP3    H130437   6.705   1.211   2.901  0.4954 -2.3543 -2.7434
 2982TIP3    H230438   6.556   1.187   2.912  0.2857 -0.3966 -0.5689
 2983TIP3   OH230439   3.759   1.948  14.192 -0.3489 -0.2393  0.4249
 2983TIP3    H130440   3.760   2.024  14.133 -2.4767  0.7004  1.4826
 2983TIP3    H230441   3.831   1.893  14.162  0.0435  1.2747 -1.6093
 2984TIP3   OH230442   1.556   4.867   3.874 -0.6293  0.1332  0.1414
 2984TIP3    H130443   1.540   4.808   3.800 -0.4606 -2.0288  1.7431
 2984TIP3    H230444   1.651   4.879   3.873 -0.0662 -2.9844  2.0909
 2985TIP3   OH230445   3.191   1.452  15.484 -0.1498  0.0796  0.5411
 2985TIP3    H130446   3.274   1.495  15.503 -0.8708  1.0858  1.5130
 2985TIP3    H230447   3.135   1.475  15.557 -1.9603  1.1866 -1.0943
 2986TIP3   OH230448   4.801   1.085  15.131  0.6268 -0.2202 -0.2101
 2986TIP3    H130449   4.850   1.008  15.159  0.9824  0.5226  1.3112
 2986TIP3    H230450   4.728   1.092  15.192 -0.4251 -0.3158 -1.3990
 2987TIP3   OH230451   3.405   2.765  11.266 -0.7054 -0.5504 -0.0907
 2987TIP3    H130452   3.443   2.684  11.301  1.3966  0.5203  0.2810
 2987TIP3    H230453   3.419   2.759  11.171  0.0257 -0.3665 -0.0005
 2988TIP3   OH230454   0.651   3.600  13.047 -0.2886 -0.4358  0.2235
 2988TIP3    H130455   0.741   3.621  13.073  0.0069 -0.3226 -0.8382
 2988TIP3    H230456   0.597   3.640  13.115  0.4572 -0.5426  0.9011
 2989TIP3   OH230457   0.735   3.999   6.749 -0.1696  0.2413  0.5374
 2989TIP3    H130458   0.757   4.087   6.781  2.6409 -0.0610 -0.2838
 2989TIP3    H230459   0.819   3.953   6.746 -1.2892 -1.8948 -0.8563
 2990TIP3   OH230460   4.781   0.635   4.858 -0.0513  0.0987  0.0141
 2990TIP3    H130461   4.821   0.639   4.945  1.1578  1.1466 -0.5591
 2990TIP3    H230462   4.844   0.678   4.800 -0.8996 -0.4439 -1.3671
 2991TIP3   OH230463   6.390   1.921  12.799 -0.5243 -0.2557  0.2140
 2991TIP3    H130464   6.333   1.913  12.723 -2.1109 -2.9172  1.5437
 2991TIP3    H230465   6.348   1.868  12.866  1.8916  0.3074  2.3190
 2992TIP3   OH230466   6.570   2.481  10.524  0.2976 -0.0404  0.5588
 2992TIP3    H130467   6.571   2.454  10.616  1.2092  0.5630  0.7387
 2992TIP3    H230468   6.603   2.571  10.525 -0.3041  0.2006 -0.2924
 2993TIP3   OH230469   3.218   6.466   6.047  0.2950 -0.3213 -0.3310
 2993TIP3    H130470   3.161   6.470   6.124 -0.0117 -1.2816 -0.4955
 2993TIP3    H230471   3.201   6.380   6.009  2.8035 -1.2127  0.3611
 2994TIP3   OH230472   0.885   2.203   5.235 -0.4025  0.3361  0.3151
 2994TIP3    H130473   0.932   2.222   5.316 -1.6068 -1.0607  1.3976
 2994TIP3    H230474   0.885   2.108   5.228 -0.8913  0.4070 -0.9804
 2995TIP3   OH230475   5.017   1.903   5.909  0.0941 -0.0023 -0.1370
 2995TIP3    H130476   5.027   1.845   5.984  0.5043 -1.5524 -1.3400
 2995TIP3    H230477   4.935   1.950   5.926  0.6336  0.3577  1.6861
 2996TIP3   OH230478   2.507   3.017   1.354 -0.1825 -0.5781 -0.4509
 2996TIP3    H130479   2.526   2.985   1.266  2.9487 -0.7348  0.1569
 2996TIP3    H230480   2.494   2.937   1.406 -2.0416 -0.4857 -0.7070
 2997TIP3   OH230481   6.139   0.518   1.014 -0.1296 -0.4766 -0.1701
 2997TIP3    H130482   6.147   0.605   1.055 -0.8646 -0.6796  0.4312
 2997TIP3    H230483   6.223   0.505   0.969 -0.1381  0.6800 -0.5382
 2998TIP3   OH230484   2.941   0.949  13.393 -0.3534  0.1682 -0.1209
 2998TIP3    H130485   2.913   1.040  13.385  0.4119  0.3086 -1.4999
 2998TIP3    H230486   2.990   0.931  13.313 -1.7589 -1.9243 -0.6239
 2999TIP3   OH230487   4.481   5.761   5.910 -0.4761 -0.0851 -0.3304
 2999TIP3    H130488   4.427   5.704   5.963  1.0674 -2.3837 -1.0869
 2999TIP3    H230489   4.551   5.789   5.969 -0.1222 -0.6451 -0.4746
 3000TIP3   OH230490   6.484   3.466   3.803  0.1515 -0.2275 -0.0085
 3000TIP3    H130491   6.415   3.433   3.745  0.8463 -0.9956 -0.4077
 3000TIP3    H230492   6.511   3.549   3.763 -1.8413  1.0961  1.1881
 3001TIP3   OH230493   2.435   4.725   1.583  0.2725  0.2383  0.2061
 3001TIP3    H130494   2.503   4.757   1.523 -0.3173 -0.6427 -0.9572
 3001TIP3    H230495   2.456   4.633   1.596  0.2606  0.3643  1.1994
 3002TIP3   OH230496   2.742   0.038  15.673 -0.2446 -0.1665 -0.5394
 3002TIP3    H130497   2.836   0.023  15.669  0.2258  2.2862 -0.5688
 3002TIP3    H230498   2.712   0.033  15.583 -0.2425 -1.3360 -0.4891
 3003TIP3   OH230499   2.161   2.727   1.397 -0.1490 -0.5222 -0.6586
 3003TIP3    H130500   2.111   2.808   1.398 -0.2551 -0.5751  1.4826
 3003TIP3    H230501   2.233   2.742   1.458  1.5425 -1.0551 -2.4024
 3004TIP3   OH230502   3.946   3.266   2.575 -0.4437  0.0095 -0.7824
 3004TIP3    H130503   4.027   3.308   2.545  0.5452 -1.1856  0.1018
 3004TIP3    H230504   3.919   3.317   2.651  1.3720 -1.4868  0.9873
 3005TIP3   OH230505   0.226   3.942  16.558  0.2455 -0.0738 -0.3187
 3005TIP3    H130506   0.157   3.912  16.618  1.8695 -1.8120  0.8210
 3005TIP3    H230507   0.261   3.861  16.520  1.5716  0.7579 -0.9490
 3006TIP3   OH230508   5.613   0.758   3.157 -0.1696  0.0976 -0.2111
 3006TIP3    H130509   5.698   0.723   3.182  0.4232  1.2823 -0.4737
 3006TIP3    H230510   5.574   0.788   3.239 -0.4441 -0.6414 -0.0612
 3007TIP3   OH230511   6.593   0.597  12.430  0.0563 -0.3594  0.0344
 3007TIP3    H130512   6.626   0.621  12.516 -0.6553  0.1832  0.1671
 3007TIP3    H230513   6.667   0.611  12.371 -0.1757  1.8081  0.1759
 3008TIP3   OH230514   4.944   4.620   0.631 -0.5143  0.2151 -0.0898
 3008TIP3    H130515   4.893   4.541   0.647  1.0279 -0.9605 -0.6705
 3008TIP3    H230516   4.902   4.688   0.684 -1.5089 -1.1304  0.8996
 3009TIP3   OH230517   6.171   5.163  13.598 -0.2047 -0.2413 -0.2052
 3009TIP3    H130518   6.104   5.125  13.541 -3.3176  1.6836  1.8364
 3009TIP3    H230519   6.230   5.209  13.539 -0.3208 -2.4228 -2.1631
 3010TIP3   OH230520   0.544   4.364   3.641  0.0024 -0.3140  0.4998
 3010TIP3    H130521   0.544   4.459   3.624  0.7225 -0.2396  0.8883
 3010TIP3    H230522   0.476   4.351   3.707  1.0895  0.1939  1.7720
 3011TIP3   OH230523   0.151   5.653   4.780  0.4548 -0.3114 -0.2678
 3011TIP3    H130524   0.204   5.708   4.723  0.0532  0.3580 -0.0114
 3011TIP3    H230525   0.211   5.627   4.850  0.4701  0.3876 -0.0126
 3012TIP3   OH230526   0.414   1.238   5.970 -0.5311 -0.4451  0.0242
 3012TIP3    H130527   0.346   1.249   6.037 -0.2610 -0.2778  0.2740
 3012TIP3    H230528   0.433   1.326   5.940 -1.1554 -0.5798 -0.7915
 3013TIP3   OH230529   1.995   0.047  13.450  0.3248 -0.3096 -0.0575
 3013TIP3    H130530   1.928  -0.001  13.401 -0.4489  1.4698 -0.8302
 3013TIP3    H230531   1.956   0.065  13.535 -0.4905  1.3048 -0.7399
 3014TIP3   OH230532   2.349   5.304   4.154 -0.2316  0.1278  0.2367
 3014TIP3    H130533   2.399   5.364   4.209  1.4688 -1.7632  0.8584
 3014TIP3    H230534   2.260   5.340   4.154  0.3794  1.7754  1.8145
 3015TIP3   OH230535   5.444   6.282   2.785 -0.5397  0.2377 -0.8778
 3015TIP3    H130536   5.355   6.250   2.782 -0.7585  0.5529  0.8100
 3015TIP3    H230537   5.445   6.342   2.861  1.4253 -0.8684  0.0495
 3016TIP3   OH230538   4.431   6.125   0.669 -0.1765 -0.1592  0.2608
 3016TIP3    H130539   4.412   6.165   0.584  0.8703 -2.2007 -1.0573
 3016TIP3    H230540   4.393   6.037   0.662 -1.3692  0.1113  2.5365
 3017TIP3   OH230541   3.402   5.027  15.317  0.1804  0.5405 -0.0078
 3017TIP3    H130542   3.463   5.024  15.391  1.3032 -0.9378 -0.9440
 3017TIP3    H230543   3.353   4.945  15.322 -0.5151  0.9305 -0.2793
 3018TIP3   OH230544   5.284   4.212   1.347 -0.5691  0.5226  0.3064
 3018TIP3    H130545   5.237   4.276   1.293 -0.2896 -0.0438 -0.6309
 3018TIP3    H230546   5.371   4.251   1.360 -0.0092 -0.1278 -1.2133
 3019TIP3   OH230547   2.203   4.158   4.182  0.0654 -0.4922  0.5132
 3019TIP3    H130548   2.224   4.069   4.153 -0.3797 -0.4224 -0.0425
 3019TIP3    H230549   2.134   4.147   4.247 -0.4552 -0.5131 -0.0395
 3020TIP3   OH230550   1.240   5.070  16.860 -0.1975 -0.5502  0.2417
 3020TIP3    H130551   1.280   5.027  16.935 -0.4391  1.0573  1.3358
 3020TIP3    H230552   1.311   5.078  16.796  0.4755 -0.3896  0.9902
 3021TIP3   OH230553   1.372   1.364   3.246 -0.7471 -0.1391  0.0106
 3021TIP3    H130554   1.443   1.301   3.260 -1.1267 -0.7388 -0.6904
 3021TIP3    H230555   1.416   1.445   3.221 -0.2490 -0.0982  0.9726
 3022TIP3   OH230556   1.659   6.452  12.199 -0.6843 -0.2892  0.0349
 3022TIP3    H130557   1.679   6.541  12.168 -0.5773 -0.3585 -0.0958
 3022TIP3    H230558   1.568   6.457  12.228  0.5410  1.0782  4.3469
 3023TIP3   OH230559   2.618   3.061  13.964 -0.3451  0.3397 -0.5711
 3023TIP3    H130560   2.686   2.999  13.992  0.5339  0.2736 -2.6861
 3023TIP3    H230561   2.593   3.107  14.044  1.0332 -0.7578  0.5380
 3024TIP3   OH230562   4.322   6.771  11.817 -0.5359 -0.4738  0.1802
 3024TIP3    H130563   4.408   6.810  11.833 -0.1379 -0.5163 -1.7139
 3024TIP3    H230564   4.330   6.681  11.849 -0.0440 -0.3281  0.4686
 3025TIP3   OH230565   0.089   5.889   3.749  0.1505  0.4079  0.7187
 3025TIP3    H130566   0.127   5.976   3.754  0.5290  0.2622  0.3995
 3025TIP3    H230567   0.125   5.843   3.826 -0.0934  0.5489  0.9178
 3026TIP3   OH230568   4.095   3.594  12.577  0.1650  0.1651  0.3948
 3026TIP3    H130569   4.066   3.677  12.616  1.4340 -0.2883  2.3871
 3026TIP3    H230570   4.091   3.531  12.648 -2.3049 -1.9621 -1.4442
 3027TIP3   OH230571   5.895   2.436  16.973 -0.0287 -0.4002  0.0810
 3027TIP3    H130572   5.970   2.422  17.032  0.2808 -1.5138 -0.5573
 3027TIP3    H230573   5.908   2.373  16.902 -0.3595  0.9504 -1.2281
 3028TIP3   OH230574   0.086   4.296   0.451 -0.0126 -0.0762  0.1034
 3028TIP3    H130575   0.108   4.205   0.469  0.8666  0.1884  0.4119
 3028TIP3    H230576   0.164   4.345   0.477 -0.0643  0.6600 -1.0457
 3029TIP3   OH230577   1.719   2.755   3.921  0.1793 -0.8101  0.2315
 3029TIP3    H130578   1.735   2.849   3.923 -0.8709 -0.6219  0.6869
 3029TIP3    H230579   1.801   2.715   3.948  0.8579 -0.0536 -0.6714
 3030TIP3   OH230580   2.196   4.644  15.712  0.5349 -0.5428 -0.1007
 3030TIP3    H130581   2.146   4.686  15.783 -0.1936 -1.1087 -0.2710
 3030TIP3    H230582   2.217   4.716  15.652 -0.7802 -0.4173 -0.4333
 3031TIP3   OH230583   1.172   2.460  13.500 -0.5408 -0.3883  0.1360
 3031TIP3    H130584   1.149   2.404  13.574 -1.4746 -0.8051 -0.4498
 3031TIP3    H230585   1.199   2.542  13.540  0.4505 -1.0974  0.9952
 3032TIP3   OH230586   1.269   5.385   2.800 -0.2881  0.4959  0.0304
 3032TIP3    H130587   1.268   5.448   2.728 -0.7368  2.4874  1.6909
 3032TIP3    H230588   1.300   5.304   2.760  1.4480  2.0299 -1.9862
 3033TIP3   OH230589   5.002   2.829   0.688 -0.0183  0.0903 -0.2977
 3033TIP3    H130590   5.088   2.865   0.666  0.3019 -0.2180  0.4008
 3033TIP3    H230591   4.944   2.905   0.693  0.2658  0.3244 -0.5432
 3034TIP3   OH230592   4.174   1.117   5.837  0.1882  0.1997 -0.2893
 3034TIP3    H130593   4.254   1.080   5.873 -0.8261 -2.7287 -0.7046
 3034TIP3    H230594   4.190   1.124   5.743 -0.4286 -1.8045 -0.5990
 3035TIP3   OH230595   6.237   1.301  11.843 -0.0958  0.4777 -0.5944
 3035TIP3    H130596   6.266   1.283  11.933 -3.0523 -1.3749  0.1231
 3035TIP3    H230597   6.187   1.382  11.849 -0.6473  0.1304 -0.4740
 3036TIP3   OH230598   3.339   6.567  16.186  0.3515  0.0172 -0.3900
 3036TIP3    H130599   3.346   6.662  16.197  0.5275 -0.1077  0.8082
 3036TIP3    H230600   3.409   6.544  16.126  1.7141  0.4038  0.9906
 3037TIP3   OH230601   6.378   5.535   1.801 -0.2476 -0.0994  0.4309
 3037TIP3    H130602   6.426   5.518   1.719  0.7778 -1.2815  1.2278
 3037TIP3    H230603   6.302   5.478   1.796 -1.7047  1.8430 -0.8764
 3038TIP3   OH230604   4.512   0.888   1.419  0.3205 -0.2582  0.7061
 3038TIP3    H130605   4.423   0.861   1.442  0.1323 -0.7286 -0.5249
 3038TIP3    H230606   4.506   0.983   1.409 -0.3552 -0.4143 -0.6073
 3039TIP3   OH230607   3.880   5.917  15.244 -0.4238 -0.3336  0.4222
 3039TIP3    H130608   3.947   5.854  15.271 -0.0159  0.2590  0.8133
 3039TIP3    H230609   3.798   5.877  15.274 -0.2190 -0.8911  0.2621
 3040TIP3   OH230610   3.181   3.727  12.860 -0.1755  0.1401  0.3270
 3040TIP3    H130611   3.089   3.734  12.888 -0.8123 -2.7312 -0.7058
 3040TIP3    H230612   3.193   3.799  12.798 -2.8246 -1.2158 -2.0068
 3041TIP3   OH230613   5.820   6.688  14.908 -0.2269  0.9336 -0.0917
 3041TIP3    H130614   5.770   6.609  14.888  0.5794  0.5839 -0.7987
 3041TIP3    H230615   5.891   6.658  14.965  0.8053  0.8968 -1.3493
 3042TIP3   OH230616   2.916   3.814   5.438 -0.6669 -0.1356  0.6844
 3042TIP3    H130617   2.829   3.793   5.403 -1.1245  2.8182 -0.3060
 3042TIP3    H230618   2.906   3.902   5.473  1.8396  0.1242  0.9248
 3043TIP3   OH230619   1.161   4.755  10.476  0.2568 -0.3332  0.0623
 3043TIP3    H130620   1.148   4.670  10.519  0.7481  0.0158  0.9242
 3043TIP3    H230621   1.079   4.802  10.491  0.8856  0.2853  1.8238
 3044TIP3   OH230622   4.146   0.786  14.340  0.7938 -0.6991  0.2732
 3044TIP3    H130623   4.177   0.793  14.250  0.9871 -1.2048  0.3015
 3044TIP3    H230624   4.087   0.860  14.350 -0.0134 -1.2107 -0.5848
 3045TIP3   OH230625   1.646   6.681   4.110  0.5292 -0.0098  0.1536
 3045TIP3    H130626   1.647   6.656   4.017  1.0810  1.5747 -0.2982
 3045TIP3    H230627   1.557   6.662   4.138 -0.0983  0.8508 -1.1235
 3046TIP3   OH230628   3.468   5.177  11.751  0.0639  0.2338 -0.0720
 3046TIP3    H130629   3.384   5.210  11.718  0.9985  2.7766 -0.1095
 3046TIP3    H230630   3.513   5.145  11.673 -0.3832 -0.0655 -0.2153
 3047TIP3   OH230631   2.673   2.266  17.100 -0.3200  0.5162  0.3666
 3047TIP3    H130632   2.607   2.325  17.064 -0.3648  1.1196  1.3899
 3047TIP3    H230633   2.757   2.308  17.079 -0.0353 -1.3206 -2.8825
 3048TIP3   OH230634   4.695   1.684  16.385 -0.8746 -0.5382 -0.0196
 3048TIP3    H130635   4.752   1.609  16.370  0.4529  0.0725  1.6931
 3048TIP3    H230636   4.676   1.683  16.479 -1.0628  1.1000 -0.0002
 3049TIP3   OH230637   0.120   1.258  12.784 -0.0577  0.7550  0.6510
 3049TIP3    H130638   0.132   1.320  12.856  0.5135 -0.4034  1.5946
 3049TIP3    H230639   0.208   1.221  12.771 -0.3633  0.2481  0.0121
 3050TIP3   OH230640   4.022   0.251   6.131 -0.4420  0.2587 -0.2343
 3050TIP3    H130641   3.954   0.297   6.082  1.3320  1.0746 -2.0620
 3050TIP3    H230642   4.094   0.242   6.069  0.6483 -1.7505  1.2274
 3051TIP3   OH230643   3.489   1.600  14.274 -0.4468  0.3094  0.3762
 3051TIP3    H130644   3.417   1.618  14.335 -0.6503  0.9402 -0.0344
 3051TIP3    H230645   3.464   1.645  14.193  0.1480  0.0700  0.0506
 3052TIP3   OH230646   3.753   2.077  13.715 -0.2597  0.1557  0.1718
 3052TIP3    H130647   3.836   2.078  13.667 -0.9506 -0.7983 -1.1010
 3052TIP3    H230648   3.695   2.132  13.664 -0.5097  0.5814  0.9026
 3053TIP3   OH230649   4.195   3.908   3.016  0.5508 -1.2258  0.2144
 3053TIP3    H130650   4.181   3.815   3.035  2.1832 -1.5899 -0.2311
 3053TIP3    H230651   4.290   3.919   3.017  0.4900  0.0042 -1.7250
 3054TIP3   OH230652   2.974   2.054   1.518  0.3849 -0.5709 -0.0879
 3054TIP3    H130653   3.022   1.974   1.538 -0.3270 -1.0529 -0.2989
 3054TIP3    H230654   2.920   2.033   1.442  0.6757  0.3058 -0.5576
 3055TIP3   OH230655   6.013   5.938  13.797  0.3391  0.5435 -0.1184
 3055TIP3    H130656   6.053   5.860  13.758  4.8639  2.5754 -0.0942
 3055TIP3    H230657   5.940   5.903  13.849 -0.2948 -3.1694 -3.0713
 3056TIP3   OH230658   5.708   4.088  12.860 -0.3678 -0.4711 -0.0864
 3056TIP3    H130659   5.616   4.062  12.865 -0.6577  0.4466 -0.4645
 3056TIP3    H230660   5.756   4.005  12.855 -1.2975 -0.9323 -2.1902
 3057TIP3   OH230661   3.541   6.593   3.137 -0.0462 -0.4810 -0.3724
 3057TIP3    H130662   3.534   6.505   3.173 -0.2480 -0.2516  0.1694
 3057TIP3    H230663   3.451   6.615   3.111 -0.5226  0.5524  1.9278
 3058TIP3   OH230664   6.664   5.037   3.358  0.0558 -0.0437  0.7234
 3058TIP3    H130665   6.696   5.125   3.374 -0.3970  0.6146 -1.6200
 3058TIP3    H230666   6.578   5.050   3.317  0.8032 -1.4395 -1.5011
 3059TIP3   OH230667   1.448   4.417  16.129 -0.6158  0.2756  0.8754
 3059TIP3    H130668   1.428   4.409  16.035 -0.9556  0.2374  0.9514
 3059TIP3    H230669   1.502   4.496  16.135 -1.4982  0.9070  0.7846
 3060TIP3   OH230670   5.940   0.690   0.412 -0.3051 -0.1136  0.1506
 3060TIP3    H130671   5.874   0.758   0.427 -1.4197 -1.1143  0.0031
 3060TIP3    H230672   5.889   0.609   0.408  0.8686 -0.8352 -0.7235
 3061TIP3   OH230673   4.776   1.519   0.583 -0.3540 -0.0018 -0.1754
 3061TIP3    H130674   4.834   1.461   0.534 -0.1170  0.0229  0.0690
 3061TIP3    H230675   4.725   1.460   0.639 -1.7899 -0.1808 -1.6066
 3062TIP3   OH230676   6.597   0.340  12.866 -0.0319  0.0631  0.5254
 3062TIP3    H130677   6.681   0.298  12.846  1.0426  1.8162  1.1590
 3062TIP3    H230678   6.584   0.323  12.959  1.1869  2.3227  1.1728
 3063TIP3   OH230679   5.242   1.076  15.708  0.2877  0.2354 -0.4798
 3063TIP3    H130680   5.177   1.101  15.773  0.6335 -3.5380  1.5909
 3063TIP3    H230681   5.194   1.021  15.646  0.3020  2.5568 -2.7099
 3064TIP3   OH230682   2.523   5.525   5.686 -0.5767  0.6062 -0.4128
 3064TIP3    H130683   2.576   5.523   5.606 -0.7999  0.8603 -0.5640
 3064TIP3    H230684   2.582   5.489   5.753 -0.2167  0.8679 -0.5838
 3065TIP3   OH230685   1.325   6.285  13.184 -0.1421 -0.1410 -0.0857
 3065TIP3    H130686   1.339   6.190  13.185  0.9039 -0.0054 -0.7835
 3065TIP3    H230687   1.409   6.322  13.210  0.3648  0.6555 -2.5686
 3066TIP3   OH230688   2.771   6.473   3.124 -0.0570  0.2769 -0.1083
 3066TIP3    H130689   2.830   6.409   3.083 -1.0322 -0.3345 -0.5784
 3066TIP3    H230690   2.824   6.512   3.194  0.6156 -0.9080  0.0763
 3067TIP3   OH230691   4.467   6.555   5.932  0.0027 -0.4806  0.0992
 3067TIP3    H130692   4.492   6.572   6.023 -2.8328 -1.2502  1.1250
 3067TIP3    H230693   4.502   6.630   5.883 -0.4337  1.1929  2.2042
 3068TIP3   OH230694   4.054   1.384  11.796 -0.2237 -0.5540 -0.4805
 3068TIP3    H130695   4.054   1.377  11.891  1.5988 -1.7298 -0.5209
 3068TIP3    H230696   3.972   1.428  11.775  0.1519  1.4143  1.7587
 3069TIP3   OH230697   6.746   6.024   0.218  0.1130  0.1818  0.1288
 3069TIP3    H130698   6.709   6.104   0.180 -1.0302 -0.9911 -1.3499
 3069TIP3    H230699   6.713   6.024   0.308  0.8459  1.7769  0.4452
 3070TIP3   OH230700   0.024   3.852  11.811 -0.2027  0.1210 -0.0298
 3070TIP3    H130701   0.011   3.942  11.784 -1.3984 -0.0848 -0.1674
 3070TIP3    H230702   0.014   3.854  11.906 -2.2920 -0.1850 -0.2119
 3071TIP3   OH230703   5.885   4.956   5.096  0.2482  0.6037 -0.1723
 3071TIP3    H130704   5.946   4.890   5.063 -1.7835  0.1215 -3.4495
 3071TIP3    H230705   5.806   4.908   5.118 -0.3971  1.6519 -0.1232
 3072TIP3   OH230706   3.592   6.576  15.960 -0.6519 -0.0774 -0.0233
 3072TIP3    H130707   3.605   6.536  15.874 -1.5378  1.3482 -0.8671
 3072TIP3    H230708   3.665   6.637  15.969 -1.6884  1.3315 -0.7531
 3073TIP3   OH230709   6.045   2.251   0.281 -0.0747  0.1349  0.0099
 3073TIP3    H130710   6.024   2.208   0.364 -0.5146  1.8682  0.8377
 3073TIP3    H230711   6.062   2.342   0.304  1.3010  0.3487 -1.6220
 3074TIP3   OH230712   5.123   4.950   3.289  0.0214  0.3381  0.1934
 3074TIP3    H130713   5.178   5.014   3.334  0.7060  0.5625 -0.9154
 3074TIP3    H230714   5.129   4.974   3.196  1.7836 -2.3769 -0.5180
 3075TIP3   OH230715   2.078   3.887  12.636 -0.0030  0.4903 -0.1998
 3075TIP3    H130716   2.150   3.946  12.616  1.3347 -1.1014 -0.3121
 3075TIP3    H230717   2.088   3.868  12.729 -1.3477  1.6002  0.1934
 3076TIP3   OH230718   2.337   3.917   2.420  0.2338  0.3925 -0.2112
 3076TIP3    H130719   2.328   3.974   2.343  0.2394  0.2945 -0.2837
 3076TIP3    H230720   2.262   3.859   2.416  1.0836 -0.6877 -1.0327
 3077TIP3   OH230721   1.058   3.872   0.880  0.0572 -0.5218  0.2162
 3077TIP3    H130722   1.018   3.957   0.897  2.5789  0.5439  1.3398
 3077TIP3    H230723   0.999   3.808   0.920 -0.5644  0.9233  1.6878
 3078TIP3   OH230724   2.333   0.844   1.319  0.0807 -0.6628 -0.4877
 3078TIP3    H130725   2.266   0.908   1.345 -0.1160 -1.1344  0.2009
 3078TIP3    H230726   2.389   0.892   1.257  0.0703  0.2454  0.1774
 3079TIP3   OH230727   0.187   0.766   5.262 -0.5654 -0.0610  0.4582
 3079TIP3    H130728   0.156   0.835   5.320  1.2815  0.5291  0.8047
 3079TIP3    H230729   0.121   0.696   5.271 -1.0708  0.5761  2.1599
 3080TIP3   OH230730   1.712   3.694  11.446  0.6377 -0.0563  0.2560
 3080TIP3    H130731   1.805   3.703  11.466  0.5031 -1.3107  1.6839
 3080TIP3    H230732   1.673   3.777  11.473  1.4813  0.9357 -1.4705
 3081TIP3   OH230733   2.630   4.734  17.161  0.4334  0.2069  0.0899
 3081TIP3    H130734   2.659   4.818  17.195  0.5531  0.6221 -1.0011
 3081TIP3    H230735   2.668   4.729  17.073  1.4948 -1.5472  0.5853
 3082TIP3   OH230736   4.586   4.142   3.694  0.1653 -0.5033  0.4945
 3082TIP3    H130737   4.532   4.146   3.615  0.0015 -0.5445  0.6037
 3082TIP3    H230738   4.614   4.233   3.708 -1.2468 -0.1848  1.3806
 3083TIP3   OH230739   6.334   4.841   2.374 -0.2521  0.3790  0.1399
 3083TIP3    H130740   6.326   4.871   2.283  0.4003 -0.4291 -0.1996
 3083TIP3    H230741   6.326   4.746   2.368  0.1727  0.2921  0.8904
 3084TIP3   OH230742   1.928   6.571   5.678  0.0949  0.4334 -0.2188
 3084TIP3    H130743   1.981   6.590   5.755  1.6994  1.1378 -1.4363
 3084TIP3    H230744   1.892   6.484   5.694 -1.6507  1.5083  2.3894
 3085TIP3   OH230745   4.597   4.659   2.895  0.1847 -0.1089  0.6869
 3085TIP3    H130746   4.614   4.584   2.952  0.6590  0.3015  1.0979
 3085TIP3    H230747   4.502   4.661   2.885  0.2375 -1.7042 -0.6292
 3086TIP3   OH230748   0.449   0.142  15.911  0.1065  0.4397  0.2746
 3086TIP3    H130749   0.449   0.088  15.990 -0.7003  0.1228  0.0711
 3086TIP3    H230750   0.484   0.084  15.843  1.2671  0.8630  0.4725
 3087TIP3   OH230751   1.123   1.713   3.052  0.4549  0.1042  0.5609
 3087TIP3    H130752   1.120   1.791   2.997 -2.5421 -0.3547 -0.1504
 3087TIP3    H230753   1.035   1.710   3.092  0.1466 -3.3057 -0.1106
 3088TIP3   OH230754   2.138   1.085  15.227  0.2694 -0.0479  0.1778
 3088TIP3    H130755   2.063   1.032  15.253 -0.0160  0.0243 -0.4755
 3088TIP3    H230756   2.100   1.169  15.201  0.7010  0.4308  1.0515
 3089TIP3   OH230757   4.844   4.688   2.769  0.6581 -0.0457 -0.1607
 3089TIP3    H130758   4.773   4.698   2.833 -0.2195 -0.0382 -1.1068
 3089TIP3    H230759   4.807   4.723   2.687  0.9515 -2.0747 -1.2219
 3090TIP3   OH230760   1.178   6.064  17.192  0.6811  0.1863 -0.3328
 3090TIP3    H130761   1.169   6.118  17.114 -0.1705  0.2344 -0.2120
 3090TIP3    H230762   1.117   6.102  17.255  0.5306 -0.5209 -0.0358
 3091TIP3   OH230763   5.294   1.749   4.513  0.4571 -0.1008 -0.7938
 3091TIP3    H130764   5.245   1.829   4.496  1.8279  1.1288  0.7353
 3091TIP3    H230765   5.236   1.679   4.483 -2.2708  1.2299  0.9407
 3092TIP3   OH230766   4.027   2.519   3.096 -0.3045  0.7462  0.5291
 3092TIP3    H130767   4.109   2.492   3.053  0.6964  2.3083  1.3482
 3092TIP3    H230768   4.011   2.451   3.162  2.5959  2.2955  3.1264
 3093TIP3   OH230769   3.247   2.093   6.730 -0.1346 -0.0409 -0.1130
 3093TIP3    H130770   3.329   2.094   6.779  0.0722 -0.0816 -0.4548
 3093TIP3    H230771   3.248   2.175   6.681  1.0690 -1.3009 -2.3424
 3094TIP3   OH230772   3.723   3.077   4.047 -0.3859 -0.2342 -0.6949
 3094TIP3    H130773   3.772   3.092   4.127 -2.9624 -0.1798  1.0032
 3094TIP3    H230774   3.771   3.007   4.002 -0.6012 -2.8011  2.6091
 3095TIP3   OH230775   0.292   0.372  12.013 -0.1309  0.1407 -0.3177
 3095TIP3    H130776   0.371   0.340  12.057 -0.6590  0.4391  0.8784
 3095TIP3    H230777   0.233   0.395  12.084 -0.7891  1.2166 -1.1881
 3096TIP3   OH230778   2.822   6.693  15.469 -0.6785  0.8116 -0.6287
 3096TIP3    H130779   2.862   6.606  15.471  0.3403  1.2698 -0.3468
 3096TIP3    H230780   2.729   6.676  15.485 -0.7221 -0.3312 -1.9056
 3097TIP3   OH230781   0.722   4.194   1.083  0.3688 -0.4175  0.3056
 3097TIP3    H130782   0.699   4.139   1.158  2.0326 -1.5450  0.0325
 3097TIP3    H230783   0.638   4.228   1.052 -0.5893 -1.8377  1.2310
 3098TIP3   OH230784   6.352   0.248  16.692  0.0558 -0.2215 -0.0290
 3098TIP3    H130785   6.289   0.265  16.762 -0.8403 -0.5146 -0.7463
 3098TIP3    H230786   6.325   0.306  16.621 -0.2413 -1.3173 -0.8281
 3099TIP3   OH230787   3.100   5.373   3.871  0.0128 -0.8825  0.1279
 3099TIP3    H130788   3.064   5.416   3.794  0.0369 -0.2000  0.4940
 3099TIP3    H230789   3.024   5.347   3.922  0.0090  0.9141  1.0963
 3100TIP3   OH230790   4.765   3.132   3.916 -0.0414 -0.3596  0.1607
 3100TIP3    H130791   4.777   3.185   3.837 -0.1722 -0.1190  0.3007
 3100TIP3    H230792   4.811   3.050   3.898 -1.0659 -0.7868 -0.6320
 3101TIP3   OH230793   0.709   2.270   2.390 -0.2072 -0.1599  0.7857
 3101TIP3    H130794   0.687   2.314   2.307  0.4069  0.5623  0.9888
 3101TIP3    H230795   0.799   2.240   2.377 -0.1460 -0.1375  1.1557
 3102TIP3   OH230796   3.031   3.311  14.486  0.6767 -0.6518  0.4499
 3102TIP3    H130797   3.040   3.329  14.392 -0.4856  0.7390  0.5800
 3102TIP3    H230798   3.116   3.275  14.511  2.0127  1.5336 -0.5997
 3103TIP3   OH230799   0.403   0.308   0.768 -0.5166  0.5974  0.5533
 3103TIP3    H130800   0.438   0.219   0.776 -2.1145 -0.0577  0.6897
 3103TIP3    H230801   0.398   0.339   0.859 -3.2803 -0.5903  0.9189
 3104TIP3   OH230802   4.067   3.376  14.547  0.5271  0.2334 -0.5720
 3104TIP3    H130803   4.037   3.380  14.638 -0.0014 -0.4766 -0.7076
 3104TIP3    H230804   3.987   3.368  14.495  0.7644  1.4838 -1.1818
 3105TIP3   OH230805   6.267   0.945   0.487  0.5180 -0.0992 -0.4290
 3105TIP3    H130806   6.342   0.885   0.480  1.0699  0.7056 -1.8653
 3105TIP3    H230807   6.306   1.028   0.513  0.0711  0.2142 -0.7550
 3106TIP3   OH230808   3.737   2.646  12.124 -0.1375  0.3700  0.2280
 3106TIP3    H130809   3.658   2.688  12.160 -0.1801  0.4214  0.0732
 3106TIP3    H230810   3.797   2.718  12.106 -0.2542  0.3740 -0.1448
 3107TIP3   OH230811   0.331   2.655  16.546  0.3668  0.2301 -0.2209
 3107TIP3    H130812   0.319   2.569  16.588  0.3511  0.4359  0.1979
 3107TIP3    H230813   0.325   2.636  16.452  1.5101 -0.4192 -0.1958
 3108TIP3   OH230814   3.970   2.551  15.181 -0.2464  0.0080  0.1416
 3108TIP3    H130815   3.995   2.489  15.113  1.7534  0.6712  0.1990
 3108TIP3    H230816   3.889   2.591  15.149  1.4025  1.4222 -2.6852
 3109TIP3   OH230817   4.656   1.244  16.123  0.0613 -0.0810  0.0566
 3109TIP3    H130818   4.724   1.290  16.074  1.1287  0.0989  1.6328
 3109TIP3    H230819   4.581   1.305  16.122  0.5255  0.5022 -0.1781
 3110TIP3   OH230820   1.387   6.372  14.192  0.2556 -0.1519 -0.2078
 3110TIP3    H130821   1.468   6.324  14.208 -0.0906 -0.6397  0.1073
 3110TIP3    H230822   1.318   6.308  14.207 -0.2610  0.6975  1.2434
 3111TIP3   OH230823   1.432   0.820   0.727  0.1245  0.4818  0.2618
 3111TIP3    H130824   1.521   0.840   0.698  1.3917  0.1238  3.3893
 3111TIP3    H230825   1.403   0.751   0.668  1.9536  0.5660 -0.8305
 3112TIP3   OH230826   4.094   0.371   0.427  0.0277  0.4361  0.5017
 3112TIP3    H130827   4.180   0.362   0.385 -0.8131 -1.4132 -0.9397
 3112TIP3    H230828   4.098   0.315   0.504 -0.2408 -0.5790 -0.2062
 3113TIP3   OH230829   2.620   5.603  15.458 -0.0059  0.0490 -0.2491
 3113TIP3    H130830   2.677   5.641  15.392  0.4694  2.2903  1.3410
 3113TIP3    H230831   2.556   5.672  15.477  1.1531  0.3587  3.0879
 3114TIP3   OH230832   3.711   6.006  13.712  0.4510  0.0948  0.8382
 3114TIP3    H130833   3.655   6.071  13.754 -2.8792 -1.1808 -1.2227
 3114TIP3    H230834   3.700   5.927  13.766 -1.4807 -0.6999 -0.5734
 3115TIP3   OH230835   2.385   1.919  13.908 -0.1086 -0.3239  0.4257
 3115TIP3    H130836   2.473   1.882  13.917  0.7472  1.5031 -0.0850
 3115TIP3    H230837   2.365   1.913  13.815 -1.2118 -2.1013  0.7116
 3116TIP3   OH230838   3.043   2.655   3.004 -0.3040  0.5057  0.0282
 3116TIP3    H130839   3.055   2.706   2.923  0.1720  1.3119  0.5900
 3116TIP3    H230840   3.014   2.569   2.974  0.0050  0.7469 -1.0120
 3117TIP3   OH230841   6.504   1.022  17.138 -0.1105  0.0465  0.4098
 3117TIP3    H130842   6.538   0.934  17.156  2.6350  0.3671 -2.3648
 3117TIP3    H230843   6.410   1.008  17.122  0.0101 -2.1470  1.2326
 3118TIP3   OH230844   3.442   4.958  13.659 -0.3800 -0.0226 -0.0049
 3118TIP3    H130845   3.362   4.965  13.711 -2.1022  0.4107 -2.5395
 3118TIP3    H230846   3.465   4.865  13.664 -0.7070 -0.0547  1.1945
 3119TIP3   OH230847   1.716   6.500   3.702 -0.1458 -0.2759  0.8599
 3119TIP3    H130848   1.714   6.549   3.620 -0.8632 -1.0024  0.4368
 3119TIP3    H230849   1.790   6.538   3.751  0.0318  0.4308  0.0580
 3120TIP3   OH230850   2.506   5.345   0.892  0.4957 -0.2019  0.2660
 3120TIP3    H130851   2.430   5.397   0.919  0.8164 -0.5084  1.9164
 3120TIP3    H230852   2.479   5.302   0.811  0.0680  2.1670 -0.9402
 3121TIP3   OH230853   0.947   2.745  13.718  0.0239 -0.1705  0.9752
 3121TIP3    H130854   0.883   2.799  13.764 -0.1689  0.4882 -0.0271
 3121TIP3    H230855   0.901   2.663  13.700 -0.2399 -0.0353  1.0394
 3122TIP3   OH230856   3.118   3.273  16.548  0.3336  0.1516  0.4487
 3122TIP3    H130857   3.145   3.206  16.484  3.6612  0.3957  1.4159
 3122TIP3    H230858   3.097   3.223  16.627 -0.8840  0.0468  0.0735
 3123TIP3   OH230859   6.527   3.547  11.680 -0.1354  0.1945  0.1117
 3123TIP3    H130860   6.578   3.599  11.741  0.2576 -1.0265  0.8598
 3123TIP3    H230861   6.491   3.611  11.618  3.7770  0.9864 -1.6390
 3124TIP3   OH230862   3.193   3.332   2.878 -0.0387 -0.3512  0.5363
 3124TIP3    H130863   3.117   3.333   2.935  0.4709 -1.3342  1.2548
 3124TIP3    H230864   3.195   3.244   2.840 -0.6556  0.4164 -1.4358
 3125TIP3   OH230865   1.295   0.843  12.455  0.9429 -0.2726  0.4508
 3125TIP3    H130866   1.265   0.804  12.537  0.0514 -1.8163 -0.5640
 3125TIP3    H230867   1.314   0.769  12.398  0.2299  0.7368 -1.1984
 3126TIP3   OH230868   5.325   4.748   3.997 -0.3278  0.0197  0.8370
 3126TIP3    H130869   5.251   4.761   4.056 -0.7948  0.1568  0.2346
 3126TIP3    H230870   5.353   4.836   3.974  1.2310  0.0089  2.5097
 3127TIP3   OH230871   4.327   1.706   0.845  0.0602  0.2158  0.3535
 3127TIP3    H130872   4.362   1.660   0.769 -1.2012 -0.2446  0.0155
 3127TIP3    H230873   4.303   1.636   0.906 -0.4564  0.4996  0.4791
 3128TIP3   OH230874   2.053   3.722   3.855 -0.0273 -0.3633 -0.3257
 3128TIP3    H130875   1.989   3.665   3.815 -0.4355 -0.8756  1.0084
 3128TIP3    H230876   2.137   3.678   3.842 -0.4598 -1.9620  1.7347
 3129TIP3   OH230877   0.605   6.428  16.625 -0.1335 -0.0139 -0.3767
 3129TIP3    H130878   0.661   6.491  16.580  0.7997  0.0149  0.7754
 3129TIP3    H230879   0.648   6.414  16.710 -2.1620  0.4330  0.7928
 3130TIP3   OH230880   1.874   5.979   4.630 -0.4265  0.0729 -0.1776
 3130TIP3    H130881   1.862   5.934   4.714  2.1345 -0.2693  0.0890
 3130TIP3    H230882   1.863   6.072   4.651 -0.8603 -0.0809  0.3039
 3131TIP3   OH230883   6.183   3.794  13.635 -0.0381 -0.0367 -0.4909
 3131TIP3    H130884   6.199   3.755  13.721  1.2823  0.0179 -0.6813
 3131TIP3    H230885   6.193   3.721  13.574  0.1530  0.1424 -0.6751
 3132TIP3   OH230886   1.232   6.244   5.243 -0.2619  0.1996 -0.0376
 3132TIP3    H130887   1.175   6.303   5.291 -0.5642  0.1267 -0.3061
 3132TIP3    H230888   1.175   6.199   5.181 -0.1540 -0.8260  0.5731
 3133TIP3   OH230889   3.873   3.967  11.681 -0.2659  0.2321 -0.0736
 3133TIP3    H130890   3.778   3.970  11.690 -0.3246 -1.5424  0.2972
 3133TIP3    H230891   3.888   3.963  11.586 -0.6952 -1.4903 -0.1010
 3134TIP3   OH230892   2.874   6.557  11.184  0.1394  0.2370 -0.0628
 3134TIP3    H130893   2.905   6.587  11.098 -0.5444 -1.6134 -1.0305
 3134TIP3    H230894   2.804   6.618  11.207  0.5422  0.9456 -0.6714
 3135TIP3   OH230895   6.414   5.791  12.075 -0.1408  0.1334  0.5437
 3135TIP3    H130896   6.385   5.782  12.166 -0.0114  0.0543  0.5773
 3135TIP3    H230897   6.420   5.700  12.044  1.1430  0.0938  0.8694
 3136TIP3   OH230898   2.739   4.787  16.906  0.8631  0.0037 -0.3751
 3136TIP3    H130899   2.658   4.793  16.856  1.4211 -0.1294 -1.3146
 3136TIP3    H230900   2.803   4.752  16.844  1.6952  0.3242  0.2839
 3137TIP3   OH230901   0.671   1.344  12.552  0.0574  0.4395 -0.3448
 3137TIP3    H130902   0.648   1.435  12.571 -2.7802 -0.5160  1.3480
 3137TIP3    H230903   0.600   1.313  12.496  0.3947 -1.0417  0.0103
 3138TIP3   OH230904   5.529   2.124  16.328  0.3737 -0.2610  0.0476
 3138TIP3    H130905   5.600   2.183  16.302 -1.7104  1.4908 -2.1209
 3138TIP3    H230906   5.457   2.182  16.351 -1.3162 -1.9479 -0.7707
 3139TIP3   OH230907   6.623   3.103  16.998 -0.2500  0.1443 -0.8744
 3139TIP3    H130908   6.621   3.017  16.955  0.0616 -0.8581  0.9959
 3139TIP3    H230909   6.585   3.087  17.084 -0.9245  2.0900 -0.7782
 3140TIP3   OH230910   3.467   1.502  12.650  0.5506 -0.5650 -0.6741
 3140TIP3    H130911   3.383   1.507  12.604  0.6554  3.0880 -0.7036
 3140TIP3    H230912   3.530   1.538  12.587  1.0661  2.4417  1.3793
 3141TIP3   OH230913   2.603   5.907   3.478  0.3138 -0.1863 -0.2018
 3141TIP3    H130914   2.629   5.947   3.561  0.2417 -0.3262 -0.1115
 3141TIP3    H230915   2.511   5.883   3.491 -0.0988  0.9774 -0.7681
 3142TIP3   OH230916   1.312   0.847   2.843 -0.5722 -0.2170  0.2551
 3142TIP3    H130917   1.245   0.912   2.823 -0.5202  0.5896  2.4503
 3142TIP3    H230918   1.268   0.763   2.829 -1.2477  0.2738 -0.6991
 3143TIP3   OH230919   5.204   0.035  11.811 -0.1612 -0.4698 -0.3739
 3143TIP3    H130920   5.152   0.069  11.738 -0.4916 -0.9621 -0.3733
 3143TIP3    H230921   5.261   0.108  11.836 -1.0373  0.1624 -0.2010
 3144TIP3   OH230922   6.757   6.127   4.622 -0.1956 -0.2975  0.1523
 3144TIP3    H130923   6.789   6.038   4.607 -2.9285 -1.1033 -1.5901
 3144TIP3    H230924   6.669   6.128   4.584 -1.2469  2.4555  2.2977
 3145TIP3   OH230925   2.701   6.531  16.507 -0.2500 -0.2225 -0.0196
 3145TIP3    H130926   2.770   6.498  16.449  0.4781 -0.9324  1.1881
 3145TIP3    H230927   2.652   6.453  16.533 -0.1463 -0.0206  0.8235
 3146TIP3   OH230928   2.036   3.608  13.487  0.1526  0.0660 -0.3421
 3146TIP3    H130929   2.041   3.515  13.512  0.0321  0.2668  0.4541
 3146TIP3    H230930   1.952   3.637  13.523 -0.2154  0.2683 -1.3409
 3147TIP3   OH230931   1.872   2.268  11.141 -0.2079 -0.1946 -0.1578
 3147TIP3    H130932   1.839   2.197  11.085  0.6552 -2.1989  1.7362
 3147TIP3    H230933   1.856   2.237  11.230  1.7916  1.2135  0.7567
 3148TIP3   OH230934   5.590   0.426   5.505 -0.1419  0.4221  0.3052
 3148TIP3    H130935   5.524   0.366   5.471 -1.0067  0.8672  1.1618
 3148TIP3    H230936   5.639   0.374   5.569 -0.3331  0.3848  0.4218
 3149TIP3   OH230937   6.535   3.375  16.973  0.7232 -0.6295  0.2028
 3149TIP3    H130938   6.583   3.310  17.024 -0.8722 -1.6113  0.5364
 3149TIP3    H230939   6.444   3.346  16.977  0.4523 -0.5605 -2.9246
 3150TIP3   OH230940   6.382   4.282  11.819 -0.1414  0.1664  0.5378
 3150TIP3    H130941   6.359   4.333  11.896 -0.9780  1.5541 -0.5796
 3150TIP3    H230942   6.300   4.239  11.794 -0.5252  1.6220 -0.9069
 3151TIP3   OH230943   4.772   1.072  15.895  0.1222  0.3220 -0.1842
 3151TIP3    H130944   4.695   1.125  15.875 -0.2997  0.3060  1.3315
 3151TIP3    H230945   4.747   1.019  15.971  2.1745  1.5587  1.4696
 3152TIP3   OH230946   5.970   4.230   1.810 -0.3949  0.2197 -0.4335
 3152TIP3    H130947   5.964   4.175   1.732 -0.0181  1.5780 -1.4598
 3152TIP3    H230948   5.910   4.189   1.873 -4.8214  1.8600 -3.1377
 3153TIP3   OH230949   5.530   2.585   3.844  1.0683  0.4308 -0.0642
 3153TIP3    H130950   5.494   2.615   3.927 -1.7359  0.8738 -1.3332
 3153TIP3    H230951   5.527   2.489   3.850 -0.0778  0.4603 -0.0180
 3154TIP3   OH230952   3.902   1.936   6.474 -0.0531  0.1678  0.1619
 3154TIP3    H130953   3.933   1.857   6.520 -1.6415 -0.2611  0.5628
 3154TIP3    H230954   3.855   1.902   6.397 -1.2714  0.6759  0.6588
 3155TIP3   OH230955   2.580   5.078   2.979  0.2064  0.4419 -0.2343
 3155TIP3    H130956   2.491   5.067   2.944 -0.5543 -0.4198  1.7767
 3155TIP3    H230957   2.586   5.170   3.002  0.1728  0.6895 -1.1664
 3156TIP3   OH230958   2.052   1.776  14.618  0.1324  0.6179  0.2116
 3156TIP3    H130959   1.965   1.816  14.624 -0.1981 -0.2017  1.1918
 3156TIP3    H230960   2.113   1.849  14.625 -0.4739  1.2405 -0.8450
 3157TIP3   OH230961   2.732   3.115   3.784  0.4058  0.1358 -0.1823
 3157TIP3    H130962   2.669   3.174   3.743 -0.5984 -1.0675 -0.3996
 3157TIP3    H230963   2.770   3.066   3.712  0.0471 -0.6321  0.1451
 3158TIP3   OH230964   1.952   0.438  15.498 -0.1465  0.2354  0.4962
 3158TIP3    H130965   1.881   0.463  15.556  1.0779  1.3902  1.5498
 3158TIP3    H230966   1.917   0.450  15.410 -1.4065  0.2906  0.9940
 3159TIP3   OH230967   5.637   4.237   4.091 -0.3079  0.0230  0.2510
 3159TIP3    H130968   5.564   4.198   4.140 -1.7616 -1.0781 -2.5110
 3159TIP3    H230969   5.673   4.164   4.041  0.1249  1.2820 -1.3573
 3160TIP3   OH230970   5.145   4.567   3.803 -0.1470  0.1863 -0.1805
 3160TIP3    H130971   5.108   4.629   3.741 -1.7705 -0.2357  0.3231
 3160TIP3    H230972   5.157   4.618   3.883  0.2547  0.2912 -0.3057
 3161TIP3   OH230973   1.504   6.457   2.983 -0.4321  0.5401  0.1313
 3161TIP3    H130974   1.595   6.432   3.001 -0.7177 -0.3336  0.4198
 3161TIP3    H230975   1.488   6.533   3.039  0.5412  1.5745 -0.9533
 3162TIP3   OH230976   2.486   0.413   0.630 -0.3670  0.0704 -0.4089
 3162TIP3    H130977   2.556   0.356   0.661 -1.2256 -1.0802 -0.5268
 3162TIP3    H230978   2.516   0.445   0.545 -1.5918 -3.6646 -2.4908
 3163TIP3   OH230979   2.976   3.398   0.445 -0.1453 -0.0126 -0.2251
 3163TIP3    H130980   3.027   3.447   0.510  0.4329  0.8449 -1.2890
 3163TIP3    H230981   2.940   3.465   0.387 -3.3876 -0.4966  1.0445
 3164TIP3   OH230982   3.876   5.292   3.287 -0.7326  0.0562 -0.0008
 3164TIP3    H130983   3.811   5.362   3.275  1.4244  1.9997 -1.2222
 3164TIP3    H230984   3.898   5.296   3.380 -0.3480  1.3329 -0.1281
 3165TIP3   OH230985   1.446   1.523   0.137  0.1095  0.1238 -0.2440
 3165TIP3    H130986   1.484   1.440   0.163  1.0297  0.6890  0.2687
 3165TIP3    H230987   1.505   1.557   0.070 -0.2983  0.3346 -0.5004
 3166TIP3   OH230988   0.621   4.940   4.843 -0.0887 -0.6125 -0.1277
 3166TIP3    H130989   0.704   4.953   4.799  0.7813 -0.0719  1.5791
 3166TIP3    H230990   0.614   5.014   4.904 -1.1421 -1.3760  0.7303
 3167TIP3   OH230991   2.054   1.068   2.741  0.1205  0.7582 -0.0927
 3167TIP3    H130992   2.000   1.057   2.663 -1.6720 -0.5436  1.2337
 3167TIP3    H230993   2.023   1.149   2.781  0.2716  0.8499 -0.1603
 3168TIP3   OH230994   2.054   4.121   1.969 -0.6216 -0.7703 -0.7704
 3168TIP3    H130995   2.014   4.089   1.888 -1.5476  2.8760 -1.9473
 3168TIP3    H230996   1.980   4.150   2.022  0.0690 -1.8525  0.8650
 3169TIP3   OH230997   1.110   5.251   6.378 -0.1891  0.4128  0.4009
 3169TIP3    H130998   1.166   5.185   6.336  0.0241  0.7219  0.1985
 3169TIP3    H230999   1.120   5.235   6.471  1.1427  1.1940  0.4127
 3170TIP3   OH231000   1.603   1.545  16.216 -0.0565 -0.0403 -0.2327
 3170TIP3    H131001   1.546   1.558  16.141  1.0917 -1.9731 -1.5362
 3170TIP3    H231002   1.675   1.491  16.183  0.9930 -0.1659  2.0353
 3171TIP3   OH231003   2.436   3.555   3.517 -0.5011  0.3024  0.5100
 3171TIP3    H131004   2.521   3.521   3.545  0.0489 -0.5969 -1.9837
 3171TIP3    H231005   2.372   3.504   3.568  0.4263 -1.2197  0.2302
 3172TIP3   OH231006   6.780   0.384  11.799 -0.5077 -0.0939 -0.0082
 3172TIP3    H131007   6.732   0.306  11.824 -1.5253  0.4217 -0.2711
 3172TIP3    H231008   6.713   0.452  11.790  0.4129  0.9933  0.8953
 3173TIP3   OH231009   0.832   3.786  11.509  0.5364 -0.4228 -0.3902
 3173TIP3    H131010   0.868   3.810  11.424 -1.5205  1.7245 -0.7710
 3173TIP3    H231011   0.774   3.712  11.491  1.1706 -0.8703 -0.5974
 3174TIP3   OH231012   5.592   0.873   0.162 -0.0403  0.0279 -0.5118
 3174TIP3    H131013   5.652   0.857   0.089  0.6027  1.0953 -0.2411
 3174TIP3    H231014   5.649   0.873   0.239 -0.6301 -0.5098 -0.0644
 3175TIP3   OH231015   0.777   6.259  10.336 -0.2109  0.3248  0.2327
 3175TIP3    H131016   0.764   6.327  10.401 -1.4874  1.1449 -0.8222
 3175TIP3    H231017   0.860   6.218  10.359  0.0388  1.5113  1.5297
 3176TIP3   OH231018   3.765   1.984  15.965  0.0497  0.7673  0.0799
 3176TIP3    H131019   3.799   2.038  15.893 -1.2991  1.2714 -0.2171
 3176TIP3    H231020   3.670   1.997  15.961 -0.1867 -0.5967  0.8555
 3177TIP3   OH231021   2.800   0.884   1.660  0.4719 -0.2647 -0.3010
 3177TIP3    H131022   2.819   0.865   1.751 -1.5404  0.8318  0.4250
 3177TIP3    H231023   2.853   0.961   1.640  2.1396 -1.4564 -0.5949
 3178TIP3   OH231024   2.407   5.315   2.303  0.2688 -1.0294 -0.3867
 3178TIP3    H131025   2.353   5.241   2.332  1.5432 -2.0228 -0.4646
 3178TIP3    H231026   2.420   5.299   2.210  0.8372 -0.8839 -0.3308
 3179TIP3   OH231027   3.357   4.380   0.617  0.0289 -0.0666  0.6077
 3179TIP3    H131028   3.372   4.410   0.527 -0.5843 -1.3601  0.0482
 3179TIP3    H231029   3.441   4.393   0.660  1.2349 -2.0525 -0.9514
 3180TIP3   OH231030   3.215   2.511   2.192  0.3391  0.9704  0.4110
 3180TIP3    H131031   3.247   2.579   2.134  1.0427 -0.0914 -0.4786
 3180TIP3    H231032   3.217   2.431   2.140  0.1702  0.1333  1.6265
 3181TIP3   OH231033   0.517   5.325   3.305  0.6608  0.2018 -0.7749
 3181TIP3    H131034   0.525   5.415   3.272  0.0158 -0.2360 -2.2218
 3181TIP3    H231035   0.472   5.278   3.235  0.0433 -1.0217  0.4011
 3182TIP3   OH231036   3.459   6.138  11.098  0.4564 -0.4032 -0.0617
 3182TIP3    H131037   3.495   6.060  11.140  0.9568  1.1364  2.6076
 3182TIP3    H231038   3.536   6.191  11.079 -0.0348  1.0772  1.7853
 3183TIP3   OH231039   4.941   6.669  14.113 -0.0574  0.5503 -0.4161
 3183TIP3    H131040   4.971   6.758  14.130  2.2163 -0.6811  3.2871
 3183TIP3    H231041   4.846   6.672  14.129  0.2076  2.0444  1.2586
 3184TIP3   OH231042   3.187   6.062   4.163  0.5173 -0.0672  0.0160
 3184TIP3    H131043   3.144   6.134   4.209  1.7869  0.6214  0.1757
 3184TIP3    H231044   3.274   6.057   4.202  1.1580 -0.3530 -1.3718
 3185TIP3   OH231045   1.123   1.303   0.553 -0.1239 -0.3645  0.0267
 3185TIP3    H131046   1.035   1.314   0.516  0.0687  0.8863 -0.1129
 3185TIP3    H231047   1.121   1.356   0.633  0.2767 -0.9474  0.4279
 3186TIP3   OH231048   5.966   5.883  15.782 -0.5456  0.3389  0.1429
 3186TIP3    H131049   5.887   5.832  15.799 -0.3441  0.1238  0.4552
 3186TIP3    H231050   6.013   5.883  15.866 -0.2923  0.5927  0.0012
 3187TIP3   OH231051   3.474   3.707  10.880 -0.0089 -0.1484  0.2219
 3187TIP3    H131052   3.563   3.741  10.875  0.0544 -0.3357  0.0317
 3187TIP3    H231053   3.473   3.633  10.818 -0.1670 -0.4300  0.5548
 3188TIP3   OH231054   4.730   4.509   4.064  0.1387 -0.0820  0.4614
 3188TIP3    H131055   4.747   4.590   4.112 -2.6440  0.7936  0.1647
 3188TIP3    H231056   4.699   4.448   4.131  1.0609 -0.5194  0.4987
 3189TIP3   OH231057   5.962   3.637   3.735  0.3811  0.1879 -0.0138
 3189TIP3    H131058   5.985   3.567   3.796 -0.4652  0.9447  1.2147
 3189TIP3    H231059   5.996   3.607   3.651 -2.6343 -3.2250 -0.2611
 3190TIP3   OH231060   6.151   2.240  14.361  0.4431  0.1682  0.0203
 3190TIP3    H131061   6.167   2.159  14.312  3.9726  0.6397  0.1032
 3190TIP3    H231062   6.153   2.213  14.453 -0.3225  0.0925  0.0172
 3191TIP3   OH231063   0.547   2.566   3.766  0.0125 -0.0541  0.0952
 3191TIP3    H131064   0.579   2.643   3.718  0.0915  0.4819  0.9933
 3191TIP3    H231065   0.610   2.553   3.836 -0.6805 -0.1682  0.7093
 3192TIP3   OH231066   5.279   0.148   2.355  0.0773  0.0027 -0.0948
 3192TIP3    H131067   5.317   0.232   2.380  0.5963 -0.2658  0.0248
 3192TIP3    H231068   5.198   0.171   2.309  0.1218  0.5595  0.0999
 3193TIP3   OH231069   2.130   3.669  10.915 -0.5403 -0.3117  0.5600
 3193TIP3    H131070   2.216   3.669  10.958 -1.2183 -0.4408  1.9736
 3193TIP3    H231071   2.078   3.731  10.966 -0.4880  2.0301 -2.0438
 3194TIP3   OH231072   4.819   4.385  15.499 -0.1957  0.4749 -0.2287
 3194TIP3    H131073   4.877   4.461  15.509 -2.5385  2.3389  0.2192
 3194TIP3    H231074   4.755   4.412  15.433 -2.3394 -0.2299  1.4245
 3195TIP3   OH231075   6.623   0.341  16.330 -0.0831  0.5687 -0.0199
 3195TIP3    H131076   6.638   0.294  16.412  0.3763  0.8922  0.0870
 3195TIP3    H231077   6.536   0.379  16.339 -0.1272  0.4070  0.2236
 3196TIP3   OH231078   3.370   2.361  15.468 -0.3624 -0.1200 -0.2192
 3196TIP3    H131079   3.357   2.356  15.563  0.6939  0.7084 -0.0057
 3196TIP3    H231080   3.293   2.318  15.431 -1.8752  1.3947  0.9810
 3197TIP3   OH231081   1.767   5.831  16.008 -0.0376  0.1103 -0.2534
 3197TIP3    H131082   1.803   5.853  16.094 -0.3790  0.7786 -0.2765
 3197TIP3    H231083   1.687   5.782  16.028  0.1212 -0.1216 -0.1907
 3198TIP3   OH231084   0.021   2.233  14.448 -1.1593  0.0493  0.1966
 3198TIP3    H131085  -0.006   2.167  14.384 -0.8761  1.7696 -1.8272
 3198TIP3    H231086   0.094   2.194  14.494 -1.4444 -1.3043 -0.4483
 3199TIP3   OH231087   5.676   1.498  11.181 -0.3571 -0.0779 -0.7052
 3199TIP3    H131088   5.723   1.444  11.118  0.7825  1.3011 -1.0847
 3199TIP3    H231089   5.698   1.588  11.157 -0.9138  0.5203  0.8758
 3200TIP3   OH231090   0.018   1.687   5.292 -0.3251 -0.2420  0.0877
 3200TIP3    H131091   0.008   1.598   5.325 -0.3787 -0.2872 -0.0500
 3200TIP3    H231092  -0.001   1.743   5.368  1.4002 -0.3509  0.6448
 3201TIP3   OH231093   6.814   5.369  12.863  0.2035 -0.4827 -0.1252
 3201TIP3    H131094   6.725   5.339  12.883  0.2321 -0.6855 -0.2961
 3201TIP3    H231095   6.853   5.388  12.948  0.0561 -0.5679 -0.0382
 3202TIP3   OH231096   3.341   2.613  17.266 -0.6064  0.1904  0.4426
 3202TIP3    H131097   3.282   2.544  17.296  0.7964 -2.2037 -1.8253
 3202TIP3    H231098   3.396   2.632  17.342 -0.1399 -2.2802  0.8208
 3203TIP3   OH231099   6.705   5.727   3.590 -0.3508  0.3199  0.4113
 3203TIP3    H131100   6.797   5.708   3.576 -0.7995 -2.7145  0.9324
 3203TIP3    H231101   6.705   5.793   3.660  1.4078  0.3959  0.3846
 3204TIP3   OH231102   3.317   4.088  16.668 -0.5946  0.1915 -0.0288
 3204TIP3    H131103   3.223   4.107  16.671 -0.5660  0.2579  0.4505
 3204TIP3    H231104   3.333   4.032  16.744 -0.1940  0.4114  0.0532
 3205TIP3   OH231105   1.783   2.065   2.165  0.2204  0.1661  0.7197
 3205TIP3    H131106   1.723   1.991   2.173  0.9499 -0.5954 -0.4778
 3205TIP3    H231107   1.819   2.077   2.252 -2.2145  1.1578  1.6836
 3206TIP3   OH231108   4.734   6.822   1.312 -0.1762  0.3348  0.6571
 3206TIP3    H131109   4.795   6.761   1.270 -0.7556  1.0277 -1.3084
 3206TIP3    H231110   4.747   6.809   1.406  2.1506 -0.3410  0.2861
 3207TIP3   OH231111   2.303   4.906  16.502  0.3452 -0.5172  0.0328
 3207TIP3    H131112   2.239   4.835  16.499  0.6489 -0.8030  0.1781
 3207TIP3    H231113   2.385   4.863  16.529  0.0825  0.1995  2.2196
 3208TIP3   OH231114   6.024   3.707  11.652  0.1702  0.3179 -0.1232
 3208TIP3    H131115   6.089   3.650  11.611 -0.8618  0.1558 -1.5851
 3208TIP3    H231116   5.940   3.663  11.639 -0.3179  0.7283  1.3633
 3209TIP3   OH231117   0.757   4.386   2.912  0.4890 -0.4580  0.0829
 3209TIP3    H131118   0.787   4.419   2.827 -0.0214  1.0274  0.4492
 3209TIP3    H231119   0.820   4.317   2.934  1.0752 -0.3492 -1.1437
 3210TIP3   OH231120   5.350   3.467   2.618  0.0173 -0.0821 -0.6970
 3210TIP3    H131121   5.298   3.547   2.629  0.1065 -0.0747 -0.3064
 3210TIP3    H231122   5.417   3.491   2.553 -0.4676 -0.0965 -1.2114
 3211TIP3   OH231123   3.489   0.157   6.323 -0.4194 -0.3662 -0.2462
 3211TIP3    H131124   3.513   0.206   6.402 -0.1952 -0.3156 -0.3427
 3211TIP3    H231125   3.413   0.105   6.348 -0.1699 -0.5767  0.0926
 3212TIP3   OH231126   1.264   0.609   1.194  0.2342  0.0968 -0.6917
 3212TIP3    H131127   1.257   0.586   1.101  0.3239  0.1922 -0.7230
 3212TIP3    H231128   1.240   0.702   1.198  1.4867  0.4550 -0.8184
 3213TIP3   OH231129   4.977   1.781  16.621 -0.7188 -0.5791 -0.5177
 3213TIP3    H131130   4.984   1.735  16.705  0.1267 -0.3522 -0.4580
 3213TIP3    H231131   5.058   1.831  16.614 -0.5475 -0.9894 -1.7112
 3214TIP3   OH231132   0.848   4.398   4.483  0.1482  0.0855  0.2444
 3214TIP3    H131133   0.803   4.415   4.565  1.8649  2.5182  0.7996
 3214TIP3    H231134   0.902   4.476   4.468  3.0249 -1.9607 -1.1047
 3215TIP3   OH231135   4.078   3.423  15.586 -0.1704  0.7638 -0.3805
 3215TIP3    H131136   4.090   3.516  15.570 -0.4028  0.8414 -0.1059
 3215TIP3    H231137   4.118   3.407  15.671 -4.1485  1.5607  1.8789
 3216TIP3   OH231138   3.321   2.106  14.379  0.2231 -0.2679 -0.7746
 3216TIP3    H131139   3.411   2.094  14.350  0.1968  0.1066 -1.0148
 3216TIP3    H231140   3.273   2.035  14.337  0.9931 -2.7995  2.2275
 3217TIP3   OH231141   0.687   3.037   0.493 -0.0062  0.1707 -0.6514
 3217TIP3    H131142   0.632   3.081   0.429 -1.9869 -0.1993  0.7060
 3217TIP3    H231143   0.669   3.082   0.576  0.1929 -1.2450  0.2043
 3218TIP3   OH231144   3.634   1.702  15.844  0.0270  0.0722  0.3959
 3218TIP3    H131145   3.626   1.679  15.752  0.6838 -0.9593  0.5807
 3218TIP3    H231146   3.729   1.712  15.858 -0.1123  0.9186  0.7993
 3219TIP3   OH231147   2.126   0.618   1.341 -0.3512 -0.3364 -0.2645
 3219TIP3    H131148   2.115   0.702   1.296  2.1292 -1.2865 -2.9245
 3219TIP3    H231149   2.183   0.637   1.415 -2.0569  0.7178  0.8635
 3220TIP3   OH231150   0.930   5.899   1.207 -0.3979  0.8000  0.2759
 3220TIP3    H131151   0.948   5.974   1.263  0.8703  0.3018  0.5647
 3220TIP3    H231152   0.943   5.823   1.263 -2.4480  0.3419  0.2049
 3221TIP3   OH231153   1.677   5.429   4.774  0.7126  0.2340  0.3603
 3221TIP3    H131154   1.727   5.363   4.727  0.3033  0.4691 -0.4458
 3221TIP3    H231155   1.610   5.457   4.711  0.7517  1.2631  0.7493
 3222TIP3   OH231156   6.122   1.018   3.585 -0.0794  0.2580 -0.0204
 3222TIP3    H131157   6.097   0.952   3.520 -1.6675  0.4732  0.3360
 3222TIP3    H231158   6.164   0.968   3.655  0.2927 -0.1525 -0.5266
 3223TIP3   OH231159   4.158   5.811  13.255 -0.1588  0.5986  0.2780
 3223TIP3    H131160   4.197   5.807  13.168 -1.4082  0.0118 -0.2824
 3223TIP3    H231161   4.208   5.747  13.306 -0.7788 -0.6435 -0.6062
 3224TIP3   OH231162   1.305   2.423   0.889 -0.5902 -0.0642  0.3913
 3224TIP3    H131163   1.211   2.415   0.876 -0.6036  0.1893  0.3308
 3224TIP3    H231164   1.340   2.337   0.865 -0.9186 -0.5224  1.5116
 3225TIP3   OH231165   1.118   2.082   3.495  0.1262 -0.1942 -0.4356
 3225TIP3    H131166   1.039   2.072   3.547  0.3173  1.1283  0.1454
 3225TIP3    H231167   1.108   2.020   3.423 -1.6737  0.3330 -0.6653
 3226TIP3   OH231168   4.770   4.767   4.179 -0.1948  0.0817 -0.1361
 3226TIP3    H131169   4.779   4.858   4.152  2.4322 -0.1662 -0.3578
 3226TIP3    H231170   4.795   4.767   4.272 -0.1447 -0.4002 -0.1472
 3227TIP3   OH231171   2.365   6.033   0.283  0.4518  0.0020  0.6194
 3227TIP3    H131172   2.399   5.991   0.204  1.4952  0.3673  0.8662
 3227TIP3    H231173   2.340   5.960   0.340  0.3493 -0.2621  0.2439
 3228TIP3   OH231174   4.677   0.021  16.777  0.2164  0.2352  0.4123
 3228TIP3    H131175   4.609  -0.010  16.717 -0.0409  1.8335 -0.1642
 3228TIP3    H231176   4.744  -0.047  16.775  0.2528  0.2705 -1.7418
 3229TIP3   OH231177   5.937   2.338  14.205  0.4435 -0.3408  0.4205
 3229TIP3    H131178   5.997   2.314  14.276 -0.2250 -0.7493  0.8618
 3229TIP3    H231179   5.879   2.262  14.196 -2.8649  1.5724  3.0241
 3230TIP3   OH231180   6.331   5.281   0.336 -0.5750 -0.1688 -0.0455
 3230TIP3    H131181   6.395   5.269   0.265 -1.3610 -1.9920 -0.5196
 3230TIP3    H231182   6.384   5.290   0.415  0.2862 -0.4685 -0.5696
 3231TIP3   OH231183   2.463   5.041  11.700 -0.3719  0.3723  0.3172
 3231TIP3    H131184   2.546   5.072  11.665 -0.6483 -0.7388 -1.4779
 3231TIP3    H231185   2.400   5.058  11.631 -1.1801 -0.8993  0.7060
 3232TIP3   OH231186   0.323   3.813  15.491  0.3723 -0.1231  0.2073
 3232TIP3    H131187   0.312   3.899  15.450 -1.1397  0.1036  1.0464
 3232TIP3    H231188   0.311   3.829  15.584  1.1003 -1.0941  0.4812
 3233TIP3   OH231189   2.921   2.202   0.331 -0.4669  0.0421  0.0056
 3233TIP3    H131190   2.884   2.198   0.243  0.1314  2.1502 -0.3858
 3233TIP3    H231191   3.002   2.150   0.326  0.0067  0.8551 -0.9390
 3234TIP3   OH231192   2.971   0.978  12.189  0.0863 -0.2831 -0.3851
 3234TIP3    H131193   3.058   0.976  12.230 -0.0776 -2.0575 -0.0388
 3234TIP3    H231194   2.915   1.019  12.255  0.5078  0.1635 -0.2988
 3235TIP3   OH231195   2.113   2.606   2.037  0.8293  0.1117 -0.5207
 3235TIP3    H131196   2.119   2.700   2.020  1.8740  0.0774 -0.4045
 3235TIP3    H231197   2.060   2.572   1.965  0.3980  0.7998 -0.5336
 3236TIP3   OH231198   3.317   6.796   6.392 -0.4606  0.1194  0.1415
 3236TIP3    H131199   3.369   6.716   6.397 -2.2165 -1.2123 -1.4846
 3236TIP3    H231200   3.250   6.786   6.460 -1.0319 -0.0952 -0.4400
 3237TIP3   OH231201   1.731   0.788   3.202 -0.0627  0.2525 -0.2126
 3237TIP3    H131202   1.707   0.830   3.285  1.9510  2.4815 -0.6492
 3237TIP3    H231203   1.649   0.784   3.153 -0.9844  0.3355  1.2389
 3238TIP3   OH231204   6.182   2.878   0.480  0.0788  0.8039 -0.0578
 3238TIP3    H131205   6.240   2.859   0.554 -0.4886  0.4719  0.3109
 3238TIP3    H231206   6.233   2.853   0.402 -0.1493 -1.0506  0.3337
 3239TIP3   OH231207   5.811   5.653   3.287 -0.4929  0.3020  0.0809
 3239TIP3    H131208   5.893   5.612   3.314 -0.9387 -0.4892  0.2553
 3239TIP3    H231209   5.808   5.642   3.192 -2.4526 -3.7374  0.3990
 3240TIP3   OH231210   3.479   0.031   3.753  0.1926 -0.4762  0.0521
 3240TIP3    H131211   3.482  -0.065   3.757 -1.2424 -0.6919 -2.3710
 3240TIP3    H231212   3.467   0.058   3.844 -3.4970 -2.8403  0.4865
 3241TIP3   OH231213   4.471   3.949   3.030  0.1614 -0.5799 -0.0410
 3241TIP3    H131214   4.514   4.019   2.981  1.0290 -0.0203  1.4831
 3241TIP3    H231215   4.536   3.879   3.035  0.7796  0.0760  1.8440
 3242TIP3   OH231216   2.960   5.037   5.491  0.3974  0.1853  0.0965
 3242TIP3    H131217   2.925   4.990   5.567  1.2348  0.1330  0.4609
 3242TIP3    H231218   3.032   5.089   5.526  3.0777 -2.4144 -1.1527
 3243TIP3   OH231219   0.796   5.466   3.710 -0.0821 -0.1936  0.1121
 3243TIP3    H131220   0.716   5.495   3.753 -0.4222  0.8407 -1.1540
 3243TIP3    H231221   0.816   5.535   3.646  1.1551 -1.0040 -0.4213
 3244TIP3   OH231222   3.465   3.763  15.632  0.4405  0.4036  0.4325
 3244TIP3    H131223   3.549   3.722  15.609 -0.0838 -0.7617  0.4989
 3244TIP3    H231224   3.466   3.766  15.728  1.2895  2.3717  0.4134
 3245TIP3   OH231225   0.803   5.836  13.112 -0.2840  0.6178 -0.7118
 3245TIP3    H131226   0.828   5.927  13.095 -1.4405  0.7706 -1.8113
 3245TIP3    H231227   0.729   5.843  13.172  0.2768  0.3354  0.0260
 3246TIP3   OH231228   5.141   5.919   2.288  0.7704  0.4940  0.2744
 3246TIP3    H131229   5.047   5.919   2.274  0.7712 -0.4214  0.2444
 3246TIP3    H231230   5.178   5.944   2.204  0.5310  1.9821  0.5802
 3247TIP3   OH231231   5.718   1.692   4.157  0.1156 -0.6417  0.0286
 3247TIP3    H131232   5.774   1.618   4.182  0.0812  0.1721  2.8736
 3247TIP3    H231233   5.644   1.686   4.218  0.8326  2.5413  1.3663
 3248TIP3   OH231234   1.638   6.153   1.258 -0.0683  0.2132 -0.2437
 3248TIP3    H131235   1.655   6.070   1.303 -0.1887  0.1969 -0.2269
 3248TIP3    H231236   1.707   6.160   1.193 -1.5894 -1.2568 -2.1515
 3249TIP3   OH231237   2.234   1.979   0.338  0.1244 -0.4200  0.4661
 3249TIP3    H131238   2.235   1.950   0.246 -1.1074  1.3056 -0.1630
 3249TIP3    H231239   2.282   2.062   0.337 -0.1347 -0.2533  1.3386
 3250TIP3   OH231240   2.846   3.091   1.453  0.4408 -0.0319 -0.2333
 3250TIP3    H131241   2.878   3.029   1.519 -0.7375  1.1862  1.5867
 3250TIP3    H231242   2.769   3.131   1.493  1.1912  2.6801 -1.2511
 3251TIP3   OH231243   1.633   1.437   3.327 -0.5751 -0.5626  0.5207
 3251TIP3    H131244   1.714   1.398   3.293  0.9306  2.2346  0.6112
 3251TIP3    H231245   1.594   1.369   3.382  1.3248 -2.2483 -0.1243
 3252TIP3   OH231246   5.407   6.505  15.433 -0.2218 -0.1915  0.0058
 3252TIP3    H131247   5.474   6.572  15.443 -0.1180 -0.2064 -0.5748
 3252TIP3    H231248   5.455   6.422  15.439 -0.1021 -0.2015 -0.9128
 3253TIP3   OH231249   2.014   2.857   2.899 -0.1677 -0.0470  0.7433
 3253TIP3    H131250   2.045   2.768   2.885 -0.0053  0.1990 -0.6312
 3253TIP3    H231251   1.929   2.861   2.853  0.3373  0.7834 -0.1753
 3254TIP3   OH231252   0.821   4.585   0.811 -0.2603 -0.6954 -0.0305
 3254TIP3    H131253   0.746   4.531   0.837 -2.6420  0.9351 -2.8624
 3254TIP3    H231254   0.807   4.669   0.856 -0.2666 -0.3158 -0.7279
 3255TIP3   OH231255   1.805   6.532  11.705  0.1810  0.2223 -0.2533
 3255TIP3    H131256   1.765   6.554  11.789 -1.1731  1.2406 -1.1127
 3255TIP3    H231257   1.897   6.555  11.715  0.3485 -0.9532  1.3647
 3256TIP3   OH231258   1.808   6.721   3.105  0.5450  0.2406  0.2329
 3256TIP3    H131259   1.875   6.785   3.126 -0.3934  1.1013  0.6945
 3256TIP3    H231260   1.742   6.770   3.055 -0.9756  0.0799  1.9506
 3257TIP3   OH231261   1.676   6.337   2.575 -0.7132  0.3961 -0.0985
 3257TIP3    H131262   1.693   6.353   2.483  1.3351 -0.1883  0.1183
 3257TIP3    H231263   1.750   6.378   2.621 -1.6026  0.5430  1.2805
 3258TIP3   OH231264   0.612   1.610  14.168  0.1269 -0.6206 -0.4554
 3258TIP3    H131265   0.667   1.607  14.246 -0.7478  1.4222  0.3114
 3258TIP3    H231266   0.664   1.660  14.104 -0.2464  0.0752 -0.2222
 3259TIP3   OH231267   2.782   0.076   0.627 -0.2849  0.5846 -0.2905
 3259TIP3    H131268   2.836   0.074   0.706 -0.7958  2.1049  0.1252
 3259TIP3    H231269   2.693   0.060   0.659 -0.1556 -2.0088 -0.9798
 3260TIP3   OH231270   2.126   5.442   0.035  0.2485  0.1169  0.4293
 3260TIP3    H131271   2.073   5.362   0.026  1.3939 -0.8773  2.1408
 3260TIP3    H231272   2.076   5.497   0.094  0.1108  0.1037  0.3272
 3261TIP3   OH231273   1.645   1.460   2.075  0.2677 -0.3374  0.3585
 3261TIP3    H131274   1.717   1.523   2.075  0.5820 -0.6982  0.3236
 3261TIP3    H231275   1.682   1.381   2.037 -0.2878 -0.3661 -0.1464
 3262TIP3   OH231276   3.123   5.945  16.826  0.2917 -0.7674 -0.3162
 3262TIP3    H131277   3.165   6.014  16.775  1.3448 -0.4455  0.9242
 3262TIP3    H231278   3.134   5.973  16.917  0.0407 -2.1838  0.1752
 3263TIP3   OH231279   3.815   1.458   5.349  0.0718  0.1896  0.0404
 3263TIP3    H131280   3.756   1.515   5.399  0.3315  1.1683 -0.7412
 3263TIP3    H231281   3.796   1.478   5.258  1.5165  0.4309 -0.2311
 3264TIP3   OH231282   3.593   4.053   2.714 -0.2667  0.0552  0.3399
 3264TIP3    H131283   3.534   4.098   2.654 -0.3968  0.5528  0.8266
 3264TIP3    H231284   3.673   4.038   2.664  0.1926  1.8454  0.4915
 3265TIP3   OH231285   1.679   5.296  13.381 -0.0451 -0.1887 -0.4022
 3265TIP3    H131286   1.759   5.339  13.410 -0.3953  0.5898 -0.5555
 3265TIP3    H231287   1.709   5.230  13.318  0.3511  1.3925 -1.9383
 3266TIP3   OH231288   5.392   3.526  10.554 -0.4012 -0.3181  0.2018
 3266TIP3    H131289   5.327   3.549  10.487  0.4884 -0.5182 -0.7448
 3266TIP3    H231290   5.408   3.608  10.600 -0.2899  0.0540 -0.4769
 3267TIP3   OH231291   4.358   3.383   3.666  0.3338  0.0883 -0.7098
 3267TIP3    H131292   4.367   3.298   3.624  1.8348 -0.7211  1.1049
 3267TIP3    H231293   4.354   3.446   3.594  2.9145 -1.2189 -2.0903
 3268TIP3   OH231294   5.531   3.250  16.677 -0.3846 -0.2093 -0.1592
 3268TIP3    H131295   5.546   3.310  16.750  3.3877  2.0005 -2.4059
 3268TIP3    H231296   5.450   3.282  16.637  0.4357  2.2051 -0.0940
 3269TIP3   OH231297   2.061   4.365   2.813  0.1488  0.3650 -0.4425
 3269TIP3    H131298   2.116   4.340   2.738 -0.9464  1.0661 -1.5055
 3269TIP3    H231299   1.975   4.381   2.775 -0.5511  0.2802  1.0550
 3270TIP3   OH231300   1.611   0.828   5.473 -0.2956 -0.4166  0.0969
 3270TIP3    H131301   1.619   0.919   5.448 -0.3417 -0.9934 -2.1896
 3270TIP3    H231302   1.537   0.827   5.534 -0.4756  1.0129 -0.0652
 3271TIP3   OH231303   1.721   2.369  14.859 -0.2309  0.1408 -0.2699
 3271TIP3    H131304   1.688   2.309  14.925  0.7801 -1.6958 -1.3553
 3271TIP3    H231305   1.726   2.317  14.779 -1.1367  2.2159 -1.7674
 3272TIP3   OH231306   3.048   5.120  12.182 -0.4497  0.3644  0.0189
 3272TIP3    H131307   3.068   5.085  12.269  0.2978  0.6492 -0.0269
 3272TIP3    H231308   2.954   5.107  12.172 -0.2569 -1.4022  0.0985
 3273TIP3   OH231309   4.481   2.426   2.192  0.0184 -0.1240 -0.2473
 3273TIP3    H131310   4.566   2.470   2.198 -0.3896  0.6778 -0.2914
 3273TIP3    H231311   4.419   2.486   2.233 -0.5245 -0.7377 -0.1416
 3274TIP3   OH231312   0.414   1.592  10.645  0.7718 -0.9140  0.2899
 3274TIP3    H131313   0.436   1.605  10.553  0.5022 -0.8062  0.2380
 3274TIP3    H231314   0.498   1.591  10.690  0.8607  0.2697  0.1938
 3275TIP3   OH231315   3.695   0.050   2.795 -0.3095  0.2000  0.0269
 3275TIP3    H131316   3.726  -0.018   2.855  0.1678  1.3859  1.1853
 3275TIP3    H231317   3.652   0.002   2.724 -1.7929 -1.2689  1.7946
 3276TIP3   OH231318   0.218   2.217   4.366 -0.2564 -0.2823  0.2020
 3276TIP3    H131319   0.150   2.150   4.372 -0.6429  0.1932  1.7803
 3276TIP3    H231320   0.248   2.228   4.456  0.5905  0.8547 -0.1959
 3277TIP3   OH231321   2.951   0.112  15.179 -0.2375 -0.1449 -0.4119
 3277TIP3    H131322   2.962   0.076  15.267 -0.4860 -1.7041 -0.9965
 3277TIP3    H231323   2.924   0.203  15.194 -1.3626 -0.6880  1.1511
 3278TIP3   OH231324   5.537   5.718  16.444  0.7857  0.1634  0.6101
 3278TIP3    H131325   5.584   5.724  16.527 -1.9002 -0.2266  2.2740
 3278TIP3    H231326   5.464   5.780  16.453 -0.4058 -0.9642 -0.8220
 3279TIP3   OH231327   3.514   5.135  14.227 -0.3062  0.6524 -0.1052
 3279TIP3    H131328   3.537   5.046  14.253  0.9516  0.5924 -1.2953
 3279TIP3    H231329   3.539   5.140  14.135 -0.3002  2.2559 -0.0474
 3280TIP3   OH231330   3.489   2.013   0.691 -0.1480 -0.5767 -0.3218
 3280TIP3    H131331   3.477   2.101   0.728 -1.5693 -0.4248 -1.0636
 3280TIP3    H231332   3.411   2.000   0.637  0.0137 -2.3327 -0.1601
 3281TIP3   OH231333   1.392   2.761   2.752  0.2953 -0.0586 -1.0150
 3281TIP3    H131334   1.393   2.666   2.750 -1.4943 -0.1953  0.7907
 3281TIP3    H231335   1.454   2.784   2.821  2.1540  0.2307 -2.7187
 3282TIP3   OH231336   0.474   2.762  11.975  0.2649  0.2227  0.3317
 3282TIP3    H131337   0.548   2.704  11.991  1.4485  1.0985 -1.5871
 3282TIP3    H231338   0.425   2.719  11.905 -0.7623 -0.0751  1.2104
 3283TIP3   OH231339   2.835   5.377  16.506 -0.4086  0.1699 -0.1675
 3283TIP3    H131340   2.831   5.460  16.457 -1.7219  0.1596 -0.1309
 3283TIP3    H231341   2.890   5.320  16.453  0.0017  0.8745 -0.5066
 3284TIP3   OH231342   6.021   1.206  13.223  0.5778 -0.1837 -0.7044
 3284TIP3    H131343   5.977   1.258  13.156  0.8263  0.0457 -0.6924
 3284TIP3    H231344   6.080   1.149  13.174  0.1328 -0.6309 -0.7340
 3285TIP3   OH231345   4.993   3.025  14.128  0.0785  0.0470 -0.4728
 3285TIP3    H131346   5.064   3.024  14.192  0.0347  2.2025 -0.3152
 3285TIP3    H231347   4.979   3.118  14.110 -3.2390 -0.2414  0.1092
 3286TIP3   OH231348   1.196   5.556  12.841 -0.0777 -0.0486 -0.3918
 3286TIP3    H131349   1.105   5.585  12.839  0.0246  0.2392 -1.9309
 3286TIP3    H231350   1.212   5.521  12.753  1.7292  1.3564 -0.6954
 3287TIP3   OH231351   3.048   6.534   6.248 -0.2698 -0.9583 -0.3251
 3287TIP3    H131352   2.989   6.460   6.235 -3.0975  1.2480 -1.0857
 3287TIP3    H231353   3.002   6.609   6.210  1.9787  1.4060  1.2373
 3288TIP3   OH231354   0.248   2.966  16.611  0.0610  0.5437 -0.2105
 3288TIP3    H131355   0.321   2.986  16.669  0.0998 -1.6349  0.5643
 3288TIP3    H231356   0.283   2.903  16.548 -0.6786  0.8886 -1.0030
 3289TIP3   OH231357   6.082   1.513   2.957 -0.1206  0.0797  0.2736
 3289TIP3    H131358   6.128   1.453   2.898  0.8836  0.2708  0.8252
 3289TIP3    H231359   5.991   1.483   2.956  0.6356 -2.6205  1.8603
 3290TIP3   OH231360   6.727   1.218   0.374  0.0484  0.5976  0.2189
 3290TIP3    H131361   6.743   1.312   0.374 -1.0524  0.7887  0.5080
 3290TIP3    H231362   6.810   1.180   0.405  0.4801  1.4665  0.1479
 3291TIP3   OH231363   2.078   5.932  16.810  0.1847  0.1363  0.0319
 3291TIP3    H131364   2.173   5.933  16.814  0.2265 -0.2353 -0.7632
 3291TIP3    H231365   2.057   5.940  16.717 -0.5650  0.3394  0.2046
 3292TIP3   OH231366   3.776   3.866   4.273  0.2441 -0.4987 -0.1358
 3292TIP3    H131367   3.847   3.917   4.235 -0.2655 -0.0025 -0.4484
 3292TIP3    H231368   3.772   3.786   4.220  0.6825 -0.6173  0.0035
 3293TIP3   OH231369   4.861   2.041   1.350 -0.1697  0.4961  0.0301
 3293TIP3    H131370   4.906   1.957   1.342 -0.0474  0.7126 -1.9477
 3293TIP3    H231371   4.872   2.083   1.265 -0.4835  2.4080  0.8707
 3294TIP3   OH231372   5.451   1.717  13.180 -0.5583  0.1350  0.6362
 3294TIP3    H131373   5.453   1.813  13.185  0.8557  0.0562  3.5267
 3294TIP3    H231374   5.537   1.693  13.146 -1.5041 -0.1562 -1.7590
 3295TIP3   OH231375   0.462   1.575   6.374 -0.3248 -0.0678 -0.4221
 3295TIP3    H131376   0.379   1.567   6.326 -0.9535 -0.5705  0.7024
 3295TIP3    H231377   0.442   1.635   6.446  0.7306  1.0380 -1.0068
 3296TIP3   OH231378   6.033   0.538  10.857 -0.0409  0.4221 -0.4435
 3296TIP3    H131379   6.016   0.446  10.841 -0.2680  0.0481  1.7108
 3296TIP3    H231380   6.109   0.539  10.914  2.1055  1.7610 -3.0943
 3297TIP3   OH231381   5.291   1.778   2.809  0.3640 -0.2368  0.4444
 3297TIP3    H131382   5.248   1.748   2.889 -0.8380 -0.3059 -0.2066
 3297TIP3    H231383   5.306   1.699   2.758 -0.5128 -0.0191 -0.1716
 3298TIP3   OH231384   0.908   3.896  14.940 -0.1386 -0.2628  0.3806
 3298TIP3    H131385   0.887   3.955  14.868 -0.7908 -0.5287  0.3428
 3298TIP3    H231386   0.915   3.809  14.900 -0.0670 -0.3448  0.5655
 3299TIP3   OH231387   1.034   1.318   2.576 -0.1229  0.0111 -0.2917
 3299TIP3    H131388   1.104   1.336   2.638 -1.0956  2.0178  0.3247
 3299TIP3    H231389   0.991   1.239   2.609  1.7870 -1.2790 -0.6986
 3300TIP3   OH231390   5.284   6.630   6.678  0.0409  0.6739  0.1303
 3300TIP3    H131391   5.374   6.658   6.660  0.3127 -0.8371 -1.0379
 3300TIP3    H231392   5.294   6.547   6.726 -0.7418  1.7314  2.2491
 3301TIP3   OH231393   5.018   3.624   0.517 -0.6906  0.3017 -0.0264
 3301TIP3    H131394   5.050   3.645   0.429 -1.1264  1.0199 -0.0216
 3301TIP3    H231395   4.950   3.559   0.504 -2.3459  2.0358 -0.4498
 3302TIP3   OH231396   6.492   1.750  14.516 -0.0006  0.3830 -0.0672
 3302TIP3    H131397   6.438   1.676  14.544 -0.9400  0.8525 -0.6029
 3302TIP3    H231398   6.542   1.717  14.442  0.5472 -0.0830  0.4957
 3303TIP3   OH231399   6.774   6.309   0.318  0.2572  0.2352 -0.4377
 3303TIP3    H131400   6.780   6.394   0.276 -1.1959  0.6077  0.0699
 3303TIP3    H231401   6.681   6.291   0.324  0.2176  0.7879  3.6459
 3304TIP3   OH231402   1.755   6.239  14.628  0.1951 -0.3454  0.0444
 3304TIP3    H131403   1.796   6.221  14.713  0.3215  0.0361  0.0668
 3304TIP3    H231404   1.829   6.243  14.567  0.1146 -0.5001 -0.0630
 3305TIP3   OH231405   2.342   3.974  13.368  0.1609  0.0178 -0.0426
 3305TIP3    H131406   2.400   3.931  13.430  0.2322 -1.5530 -1.1410
 3305TIP3    H231407   2.279   3.906  13.342 -0.6133  0.9731 -0.7765
 3306TIP3   OH231408   0.439   5.165   4.373  0.2158 -0.1075  1.1938
 3306TIP3    H131409   0.365   5.153   4.432 -0.8468  0.1708 -0.0145
 3306TIP3    H231410   0.404   5.221   4.303  1.6425  0.2162  0.7106
 3307TIP3   OH231411   5.524   5.939   0.140  0.0188 -0.3306 -0.4383
 3307TIP3    H131412   5.572   6.019   0.117  1.0077 -1.7965 -4.2114
 3307TIP3    H231413   5.432   5.963   0.132  0.3075  0.4556 -1.6625
 3308TIP3   OH231414   2.198   1.973   3.759 -0.1212 -0.4796  0.1768
 3308TIP3    H131415   2.210   1.896   3.815  0.2092 -0.0896  0.6475
 3308TIP3    H231416   2.271   2.031   3.782  1.4461 -1.2920 -2.3247
 3309TIP3   OH231417   3.005   6.378  10.897 -0.2004 -0.1178  0.2396
 3309TIP3    H131418   2.983   6.459  10.852  1.8930  0.6428  0.4801
 3309TIP3    H231419   3.023   6.315  10.827  3.1690  1.0941 -0.1495
 3310TIP3   OH231420   4.141   1.843   0.196 -0.6132  0.7612 -0.1599
 3310TIP3    H131421   4.095   1.923   0.170 -1.3855  0.5552  0.5359
 3310TIP3    H231422   4.136   1.842   0.292 -1.1277 -0.4112 -0.1802
 3311TIP3   OH231423   2.124   5.808   6.037  0.3553  0.1302  0.7393
 3311TIP3    H131424   2.046   5.823   6.090  0.2652  2.2550  0.0835
 3311TIP3    H231425   2.092   5.809   5.947  0.9460 -0.4249  0.5160
 3312TIP3   OH231426   1.041   6.361  12.727  0.3976 -0.0346 -0.1795
 3312TIP3    H131427   0.963   6.359  12.672  0.7900 -1.2881 -0.7494
 3312TIP3    H231428   1.027   6.433  12.788 -0.6754  0.4940 -1.0288
 3313TIP3   OH231429   3.868   5.223   3.020 -0.4880  0.6919  0.0796
 3313TIP3    H131430   3.872   5.312   2.985 -0.8111  0.3812 -0.7727
 3313TIP3    H231431   3.849   5.235   3.113 -0.3981  1.5127  0.0033
 3314TIP3   OH231432   5.189   5.228  14.348  0.2306 -0.0763  0.2219
 3314TIP3    H131433   5.196   5.151  14.405  0.4801 -0.4610 -0.3306
 3314TIP3    H231434   5.156   5.297  14.407  0.0206 -0.5907  0.7261
 3315TIP3   OH231435   4.168   6.651   1.216  0.0341 -0.0523  0.1140
 3315TIP3    H131436   4.143   6.727   1.163  1.4732 -0.0078 -0.5556
 3315TIP3    H231437   4.257   6.671   1.245  0.3501 -1.3788  0.1265
 3316TIP3   OH231438   1.461   5.289  11.137 -0.3780 -0.4604 -0.1740
 3316TIP3    H131439   1.388   5.228  11.128 -0.7213 -0.0779 -0.0133
 3316TIP3    H231440   1.465   5.309  11.231 -0.3765 -0.1121 -0.2443
 3317TIP3   OH231441   5.977   6.769   1.380  0.3678  0.2671  0.0970
 3317TIP3    H131442   6.016   6.818   1.307  0.2518  2.4836  1.4409
 3317TIP3    H231443   5.950   6.836   1.443 -3.9553 -1.1699  0.1430
 3318TIP3   OH231444   3.709   3.498   4.520 -0.9905 -0.2340 -0.1103
 3318TIP3    H131445   3.776   3.567   4.526 -0.3339 -0.4777 -3.1806
 3318TIP3    H231446   3.754   3.418   4.546 -1.0574  0.0867  1.0398
 3319TIP3   OH231447   5.353   0.551  11.857  0.2180 -0.2582  0.2610
 3319TIP3    H131448   5.287   0.549  11.925  1.0994 -0.7062  1.1316
 3319TIP3    H231449   5.368   0.644  11.840  0.1091 -0.1400  0.8028
 3320TIP3   OH231450   2.095   5.193   4.887  0.5232  0.3696  0.2144
 3320TIP3    H131451   2.100   5.100   4.906 -2.3900 -0.1452 -0.9272
 3320TIP3    H231452   2.030   5.227   4.949 -0.3614  1.0572 -1.0367
 3321TIP3   OH231453   2.925   1.183   2.705 -0.2317 -0.2381 -0.4498
 3321TIP3    H131454   2.837   1.148   2.691 -1.1775  1.6931  0.1804
 3321TIP3    H231455   2.974   1.111   2.743 -1.3565 -1.5504 -1.3631
 3322TIP3   OH231456   2.649   6.667  11.279 -0.0635  0.2567 -0.0907
 3322TIP3    H131457   2.568   6.717  11.285 -0.6653 -0.4125 -1.8419
 3322TIP3    H231458   2.707   6.706  11.344 -1.9953  0.3053  1.6950
 3323TIP3   OH231459   3.443   1.720   6.574 -0.0421 -0.5939  0.4773
 3323TIP3    H131460   3.509   1.782   6.607 -0.0234 -0.0347 -0.5717
 3323TIP3    H231461   3.429   1.659   6.646  0.5725  0.1349  1.2268
 3324TIP3   OH231462   2.538   4.248   4.988  0.0971  0.2826  0.0775
 3324TIP3    H131463   2.466   4.191   4.962  1.8054 -0.9202 -2.3743
 3324TIP3    H231464   2.506   4.337   4.971 -1.0735 -0.1596 -0.1329
 3325TIP3   OH231465   2.710   1.501   4.380 -0.5010 -0.0533  0.3923
 3325TIP3    H131466   2.684   1.495   4.288 -0.1883  2.3275  0.0929
 3325TIP3    H231467   2.705   1.411   4.412 -0.6324 -0.9408 -1.9365
 3326TIP3   OH231468   1.047   3.053   2.303 -0.5247 -0.0021  0.1559
 3326TIP3    H131469   1.122   3.049   2.243 -1.1795 -0.8982 -0.6367
 3326TIP3    H231470   0.974   3.017   2.252 -0.8732 -1.9092  1.8633
 3327TIP3   OH231471   2.227   6.512  12.775  0.5362  0.0385  0.2321
 3327TIP3    H131472   2.259   6.601  12.760  0.0296  0.7466  2.7789
 3327TIP3    H231473   2.179   6.490  12.696  0.3448  2.1961 -0.3247
 3328TIP3   OH231474   2.311   3.281   1.662  0.6403 -0.2738 -0.2762
 3328TIP3    H131475   2.355   3.364   1.644  0.0811  0.3432  1.0441
 3328TIP3    H231476   2.381   3.222   1.692  0.8903  0.0090 -0.3049
 3329TIP3   OH231477   4.326   2.107   4.295 -0.2955 -0.0345  0.3570
 3329TIP3    H131478   4.268   2.031   4.300  0.6069 -0.7464  0.2061
 3329TIP3    H231479   4.293   2.167   4.362  0.3328 -1.4966  2.0500
 3330TIP3   OH231480   5.010   4.039  12.856  0.3810  0.0044 -0.7508
 3330TIP3    H131481   4.945   4.106  12.878 -1.1500 -1.3978 -0.8083
 3330TIP3    H231482   5.003   3.974  12.925  0.4504 -1.0413 -1.6903
 3331TIP3   OH231483   6.269   0.915   2.578  0.3560  0.0069  0.3088
 3331TIP3    H131484   6.197   0.942   2.520  1.5944  2.9050 -0.0426
 3331TIP3    H231485   6.245   0.950   2.663  1.2984  0.9852  0.1926
 3332TIP3   OH231486   5.697   5.206  11.192 -0.4037  0.4771 -0.3407
 3332TIP3    H131487   5.722   5.135  11.133  0.9950  0.5852  0.0803
 3332TIP3    H231488   5.700   5.284  11.138  1.5323  0.6700 -0.0377
 3333TIP3   OH231489   1.430   5.962   1.494  0.5402 -0.0091  0.3512
 3333TIP3    H131490   1.517   5.944   1.530  1.3715  3.1106  0.1880
 3333TIP3    H231491   1.422   5.901   1.421  2.5433 -0.4621  0.4362
 3334TIP3   OH231492   6.486   3.778   4.927  0.4862 -0.0257 -0.9081
 3334TIP3    H131493   6.395   3.803   4.938  0.4312 -0.4134 -0.4194
 3334TIP3    H231494   6.522   3.841   4.865 -0.1442  0.0575 -1.1882
 3335TIP3   OH231495   5.727   4.838  14.533 -0.1223 -0.1737 -0.4299
 3335TIP3    H131496   5.642   4.847  14.489 -0.0593 -0.7625 -0.6786
 3335TIP3    H231497   5.733   4.744  14.554 -1.0197  0.3238  2.5561
 3336TIP3   OH231498   2.514   2.581   5.972 -0.4434 -0.0275  0.0052
 3336TIP3    H131499   2.605   2.609   5.967 -0.0260 -1.4203 -3.7326
 3336TIP3    H231500   2.466   2.658   6.002  1.6516  1.7008 -0.7956
 3337TIP3   OH231501   1.335   0.671   6.204  0.1367 -0.2268 -0.5713
 3337TIP3    H131502   1.309   0.605   6.140  1.9114 -1.1261 -0.4325
 3337TIP3    H231503   1.253   0.709   6.235 -0.9054 -1.9666 -1.0855
 3338TIP3   OH231504   5.933   3.185   4.004 -0.7206  0.1873 -0.0133
 3338TIP3    H131505   5.976   3.100   4.014 -1.3941  0.0772  2.4143
 3338TIP3    H231506   5.841   3.168   4.023 -1.1394  1.1988 -1.0060
 3339TIP3   OH231507   4.716   4.124   2.355  0.1212  0.2046 -0.2933
 3339TIP3    H131508   4.751   4.202   2.311  0.4307  0.5959  0.6230
 3339TIP3    H231509   4.794   4.080   2.390 -0.0925 -0.2996 -0.4365
 3340TIP3   OH231510   4.053   6.264  11.864 -0.2368  0.5956  0.6574
 3340TIP3    H131511   4.011   6.209  11.930  0.6067 -0.1363  0.6131
 3340TIP3    H231512   3.992   6.265  11.791 -0.4639  0.0786  0.8337
 3341TIP3   OH231513   2.399   5.831   5.877 -0.1663  0.4001  0.6044
 3341TIP3    H131514   2.364   5.838   5.966 -0.9321  0.4799  0.3011
 3341TIP3    H231515   2.349   5.760   5.837  0.5490 -0.0000  0.4043
 3342TIP3   OH231516   2.737   4.506   1.391  0.0595 -0.2158 -0.6838
 3342TIP3    H131517   2.673   4.435   1.383 -0.8337  0.6785 -1.6491
 3342TIP3    H231518   2.689   4.585   1.369  1.3115  0.5737 -0.6795
 3343TIP3   OH231519   2.728   5.683   4.426 -0.6036  0.7200 -0.0667
 3343TIP3    H131520   2.803   5.665   4.369 -0.1134  1.2080  0.4128
 3343TIP3    H231521   2.672   5.741   4.374 -0.1750  1.1376 -0.0691
 3344TIP3   OH231522   0.760   0.260   0.992  0.1174 -0.0860 -0.0518
 3344TIP3    H131523   0.775   0.281   1.085  0.6324  2.8601 -0.7120
 3344TIP3    H231524   0.742   0.344   0.951  1.0032 -1.1588 -2.8743
 3345TIP3   OH231525   3.220   1.912   2.352  0.2226  0.0001  0.6313
 3345TIP3    H131526   3.183   1.856   2.419  1.6949 -0.1454  1.3527
 3345TIP3    H231527   3.307   1.874   2.333  0.5201  1.0054 -0.1345
 3346TIP3   OH231528   1.690   5.490  16.862 -0.4592  0.7087 -0.0605
 3346TIP3    H131529   1.696   5.518  16.771 -1.1189  0.6602 -0.1220
 3346TIP3    H231530   1.614   5.432  16.865  0.2441 -0.2227  0.2878
 3347TIP3   OH231531   5.274   1.391  12.672  0.3062 -0.3487  0.3491
 3347TIP3    H131532   5.254   1.463  12.612  0.4578 -0.2225  0.4523
 3347TIP3    H231533   5.216   1.405  12.747  0.0607 -0.5498  0.2005
 3348TIP3   OH231534   2.886   1.223  13.460 -0.3131 -0.8317  0.1609
 3348TIP3    H131535   2.880   1.297  13.521  0.7771 -0.1732 -0.4869
 3348TIP3    H231536   2.976   1.225  13.429 -0.9508 -0.8073 -1.8658
 3349TIP3   OH231537   1.141   5.915  10.990  0.2831 -0.5669 -0.1248
 3349TIP3    H131538   1.194   5.946  11.063  1.1593  1.6748 -1.5688
 3349TIP3    H231539   1.202   5.867  10.934  0.1650 -0.3399 -0.4562
 3350TIP3   OH231540   6.244   2.233   1.046 -0.4268  0.4205  0.3733
 3350TIP3    H131541   6.307   2.193   1.106  1.3698  0.1163 -1.6002
 3350TIP3    H231542   6.217   2.314   1.091 -0.2310 -0.4497  2.1634
 3351TIP3   OH231543   3.996   2.873  14.919 -0.3518 -0.1680  0.0840
 3351TIP3    H131544   4.086   2.902  14.936  0.0765  0.1045 -2.3073
 3351TIP3    H231545   3.943   2.920  14.983  1.1670 -0.2540  1.4753
 3352TIP3   OH231546   2.070   4.573  13.353 -0.4574 -0.3530  0.4148
 3352TIP3    H131547   2.014   4.559  13.276  0.0049  1.0502 -0.2172
 3352TIP3    H231548   2.121   4.493  13.360  0.4291 -0.0348 -1.5779
 3353TIP3   OH231549   3.463   6.116  12.937 -0.2699 -0.2601 -0.0436
 3353TIP3    H131550   3.549   6.126  12.895 -0.1714  0.1465  0.2491
 3353TIP3    H231551   3.442   6.023  12.926 -0.9239  0.0865 -2.2723
 3354TIP3   OH231552   0.598   1.796  13.947 -0.0363  0.6429 -0.8851
 3354TIP3    H131553   0.523   1.840  13.907 -2.2329 -1.8022  0.3028
 3354TIP3    H231554   0.631   1.738  13.878  0.1186  0.9402 -1.0658
 3355TIP3   OH231555   0.904   2.991  15.431 -0.1041 -0.1893 -0.5627
 3355TIP3    H131556   0.865   2.948  15.506 -0.9300 -1.5564 -1.7450
 3355TIP3    H231557   0.848   3.067  15.415  0.2451  0.2785  0.3521
 3356TIP3   OH231558   4.549   5.731   5.083 -0.4438 -0.0441  0.2982
 3356TIP3    H131559   4.637   5.754   5.111 -0.4992  0.7069 -0.1164
 3356TIP3    H231560   4.543   5.636   5.098 -0.2813  0.2123  2.2485
 3357TIP3   OH231561   3.533   3.308   0.809 -0.5110  0.7847 -0.0358
 3357TIP3    H131562   3.549   3.278   0.720  1.8533  2.0068 -0.1333
 3357TIP3    H231563   3.476   3.385   0.799  0.3499  1.3725 -0.6101
 3358TIP3   OH231564   2.381   2.972  15.855 -0.2386  0.0569 -0.0691
 3358TIP3    H131565   2.288   2.950  15.852 -0.1371 -0.6783  1.3873
 3358TIP3    H231566   2.418   2.928  15.778 -1.0776  0.3460 -0.6570
 3359TIP3   OH231567   0.019   6.056  11.538  0.3658  0.0718 -0.1395
 3359TIP3    H131568   0.002   6.116  11.466  0.5833 -0.7251 -0.8806
 3359TIP3    H231569  -0.008   5.970  11.505 -0.3781 -0.1760  1.0609
 3360TIP3   OH231570   0.456   5.861   4.844 -0.1181 -0.5612  0.7560
 3360TIP3    H131571   0.550   5.871   4.831  0.1511 -2.3818  1.0103
 3360TIP3    H231572   0.448   5.801   4.918 -1.5090  0.2739  1.3318
 3361TIP3   OH231573   5.738   2.103  13.550  1.0149 -0.0394  0.5141
 3361TIP3    H131574   5.713   2.016  13.580  0.4115 -0.1183 -0.1928
 3361TIP3    H231575   5.655   2.146  13.528  1.4066  0.0464 -0.9085
 3362TIP3   OH231576   2.432   3.990  11.107 -0.1576 -0.0175  0.2115
 3362TIP3    H131577   2.399   4.005  11.019  0.8690 -0.1983 -0.2224
 3362TIP3    H231578   2.428   3.896  11.120 -1.4763  0.1084  0.8490
 3363TIP3   OH231579   2.276   2.600   3.102 -0.2692  0.5355 -0.3393
 3363TIP3    H131580   2.282   2.683   3.149  0.9449 -1.3262  3.1553
 3363TIP3    H231581   2.367   2.572   3.091 -0.6448 -1.7905  1.6116
 3364TIP3   OH231582   6.692   3.399   0.767 -0.0130  0.4293 -0.2839
 3364TIP3    H131583   6.759   3.398   0.835 -0.9260  0.7887  0.6487
 3364TIP3    H231584   6.725   3.340   0.700  0.5632 -0.5369  0.8181
 3365TIP3   OH231585   4.818   1.753   3.055  0.4536 -0.0274 -0.0188
 3365TIP3    H131586   4.835   1.761   2.961 -1.4357  0.9528 -0.3468
 3365TIP3    H231587   4.865   1.827   3.094 -3.1379  3.1473 -0.9935
 3366TIP3   OH231588   5.949   2.868   2.017 -0.9723  0.0700 -0.1348
 3366TIP3    H131589   5.895   2.790   2.006  0.7672 -1.6048  2.0154
 3366TIP3    H231590   5.932   2.897   2.107  2.4825 -1.4044  1.2100
 3367TIP3   OH231591   1.586   2.488  14.328  0.1155 -0.1451  0.7288
 3367TIP3    H131592   1.611   2.417  14.388  1.7185 -0.8218 -0.6754
 3367TIP3    H231593   1.598   2.451  14.241 -0.4612  1.4018 -0.0388
 3368TIP3   OH231594   6.594   0.321  13.147 -0.6543 -0.2054  0.2355
 3368TIP3    H131595   6.576   0.366  13.230 -0.9749 -0.7210  0.4567
 3368TIP3    H231596   6.630   0.236  13.174  2.5713  0.8972 -0.1849
 3369TIP3   OH231597   4.409   2.312   5.944 -0.1591  0.1102  0.2746
 3369TIP3    H131598   4.421   2.258   5.866 -0.7220  1.6141 -0.9048
 3369TIP3    H231599   4.494   2.356   5.956 -0.3747  0.6511 -0.1231
 3370TIP3   OH231600   5.173   4.278  13.907  0.0905  0.5325 -0.2112
 3370TIP3    H131601   5.186   4.255  13.815  2.1901  0.3155  0.0873
 3370TIP3    H231602   5.158   4.194  13.951  1.3061  0.3604 -0.0718
 3371TIP3   OH231603   4.393   0.698   1.619 -0.0721  0.3068 -0.2291
 3371TIP3    H131604   4.312   0.655   1.646 -0.1093  0.0011 -0.8282
 3371TIP3    H231605   4.447   0.628   1.583 -0.1798  0.7719 -1.3226
 3372TIP3   OH231606   0.990   4.454   4.790 -0.4867 -0.0202 -0.2451
 3372TIP3    H131607   0.895   4.453   4.782 -0.5599  0.8606  0.3481
 3372TIP3    H231608   1.022   4.448   4.700 -1.1296  1.1358 -0.5744
 3373TIP3   OH231609   6.520   6.314  16.841 -0.6163  0.0514 -0.4194
 3373TIP3    H131610   6.462   6.254  16.793 -1.1706 -0.0068  0.2971
 3373TIP3    H231611   6.580   6.257  16.888  0.2998  0.1220 -1.4817
 3374TIP3   OH231612   4.533   4.005   4.569 -0.0180  0.3509  0.4157
 3374TIP3    H131613   4.447   4.038   4.597  1.1787  2.5834  1.7595
 3374TIP3    H231614   4.544   4.039   4.481 -1.0323 -1.0943 -0.3081
 3375TIP3   OH231615   5.188   6.494   4.579  0.4821  0.4695  0.2612
 3375TIP3    H131616   5.137   6.542   4.513  0.1614  0.7347  0.7011
 3375TIP3    H231617   5.222   6.418   4.531  0.2166  0.6356 -0.2039
 3376TIP3   OH231618   1.541   4.681  12.559  0.4654  0.8114  1.0635
 3376TIP3    H131619   1.632   4.687  12.585  0.0909  2.0385  2.1734
 3376TIP3    H231620   1.500   4.760  12.594 -0.7578  0.9381 -0.5196
 3377TIP3   OH231621   4.104   4.074   5.236  0.4173  0.1002 -0.1862
 3377TIP3    H131622   4.113   4.159   5.193 -0.4911  0.2479 -0.1144
 3377TIP3    H231623   4.057   4.020   5.173 -1.1977  0.4139  0.6925
 3378TIP3   OH231624   6.563   2.894  14.852  0.2408 -0.0971 -0.1934
 3378TIP3    H131625   6.633   2.831  14.864  1.4928  1.2754  0.0162
 3378TIP3    H231626   6.607   2.974  14.824 -1.3163  0.6145 -0.7534
 3379TIP3   OH231627   2.051   0.982   4.630  0.1436 -0.0024 -0.3058
 3379TIP3    H131628   1.959   1.002   4.645  0.7163  1.9674  1.1289
 3379TIP3    H231629   2.071   0.911   4.691 -0.4107 -0.4172 -0.6030
 3380TIP3   OH231630   3.642   5.171   1.468  0.0564  0.3356 -0.4965
 3380TIP3    H131631   3.687   5.226   1.532  1.9065 -1.6173  0.0103
 3380TIP3    H231632   3.711   5.118   1.428 -1.3607 -0.1573 -2.4512
 3381TIP3   OH231633   2.554   1.775   0.194  0.9523  0.0397 -0.5552
 3381TIP3    H131634   2.593   1.843   0.250 -1.5432 -0.5174  2.1186
 3381TIP3    H231635   2.469   1.811   0.169  0.3518 -1.3507 -0.5970
 3382TIP3   OH231636   0.426   2.047  12.188 -0.3110 -0.0358  0.4818
 3382TIP3    H131637   0.345   1.997  12.189 -0.4039 -0.2541 -3.2548
 3382TIP3    H231638   0.493   1.984  12.163  0.4841  0.7354  0.6018
 3383TIP3   OH231639   2.516   3.970   2.153 -0.0436 -0.9147  0.3545
 3383TIP3    H131640   2.427   4.003   2.144  0.1885  0.0740  1.3924
 3383TIP3    H231641   2.510   3.878   2.131 -1.4528 -1.0025  1.0026
 3384TIP3   OH231642   5.132   5.670  11.449  0.0787  0.4829  0.0786
 3384TIP3    H131643   5.195   5.741  11.461  0.4496  0.0558  0.7133
 3384TIP3    H231644   5.110   5.642  11.539  0.3747 -0.5878 -0.1656
 3385TIP3   OH231645   5.361   0.644   4.156 -0.5629  0.1139  0.0364
 3385TIP3    H131646   5.304   0.710   4.115 -1.8948 -2.2967 -2.2724
 3385TIP3    H231647   5.304   0.569   4.171  1.5658 -1.6903 -0.4434
 3386TIP3   OH231648   5.788   3.097  16.038 -0.0718 -0.0992  0.1809
 3386TIP3    H131649   5.790   3.008  16.073  2.5186  0.5246  1.8702
 3386TIP3    H231650   5.829   3.151  16.106 -0.2391  2.1481 -1.3945
 3387TIP3   OH231651   2.203   1.498   1.700  0.2097 -0.2387  0.3970
 3387TIP3    H131652   2.291   1.494   1.737  0.4868 -1.1466 -0.3298
 3387TIP3    H231653   2.195   1.419   1.646 -1.0731 -0.2157  0.5009
 3388TIP3   OH231654   0.741   0.958   4.580  0.6599  0.4498  0.2800
 3388TIP3    H131655   0.752   0.972   4.486  0.3717 -0.6174  0.0734
 3388TIP3    H231656   0.647   0.966   4.595  0.2904 -2.1636 -0.0579
 3389TIP3   OH231657   6.492   6.223   1.599 -0.2088 -0.0134  0.1645
 3389TIP3    H131658   6.423   6.230   1.665  0.8599 -1.2503  1.4800
 3389TIP3    H231659   6.571   6.253   1.644  0.7376 -1.8914 -0.1732
 3390TIP3   OH231660   2.649   2.789   3.900 -0.2039 -0.2475 -0.2068
 3390TIP3    H131661   2.664   2.793   3.805 -1.2074 -1.2476 -0.4369
 3390TIP3    H231662   2.576   2.850   3.916  0.3179  0.3246  0.0121
 3391TIP3   OH231663   0.505   2.937   5.656 -0.2360  0.7347 -0.1146
 3391TIP3    H131664   0.500   2.957   5.562 -0.5324  0.4504 -0.1641
 3391TIP3    H231665   0.555   3.009   5.693  2.0880 -0.3851 -0.8611
 3392TIP3   OH231666   2.240   6.106   5.409 -0.2698 -0.5077  0.5151
 3392TIP3    H131667   2.261   6.110   5.315 -0.1254  2.0112  0.6005
 3392TIP3    H231668   2.322   6.127   5.452 -0.4626 -1.1700  1.2262
 3393TIP3   OH231669   4.095   6.418  15.336  0.1087 -0.2142 -0.2941
 3393TIP3    H131670   4.063   6.335  15.300 -0.2854 -0.7219  1.1150
 3393TIP3    H231671   4.107   6.399  15.430 -0.4096  1.4407  0.1367
 3394TIP3   OH231672   4.542   4.669  12.412 -0.3311  0.2266  0.2084
 3394TIP3    H131673   4.460   4.717  12.422 -0.5455  0.1547 -1.1273
 3394TIP3    H231674   4.536   4.598  12.477 -0.4646  1.3410  1.4693
 3395TIP3   OH231675   2.766   5.601   2.036 -0.2599  0.8969 -0.4155
 3395TIP3    H131676   2.836   5.539   2.056 -0.4483  0.9719  0.5595
 3395TIP3    H231677   2.756   5.598   1.941  0.4706  0.2422 -0.4743
 3396TIP3   OH231678   0.056   5.554  15.961 -0.3152  0.3635 -0.4071
 3396TIP3    H131679   0.106   5.478  15.992 -0.1645  0.9986  0.9588
 3396TIP3    H231680   0.039   5.534  15.869  0.4326 -0.9466 -0.3000
 3397TIP3   OH231681   4.402   5.871   2.677  0.0457 -0.6970 -0.3631
 3397TIP3    H131682   4.331   5.807   2.671 -1.6610  0.8700  1.5322
 3397TIP3    H231683   4.417   5.882   2.771  1.5785  0.3348 -0.6858
 3398TIP3   OH231684   6.388   1.712  16.617  0.0519 -0.2330  0.5549
 3398TIP3    H131685   6.354   1.770  16.550  0.3464 -2.9122 -2.1542
 3398TIP3    H231686   6.321   1.645  16.627  1.4582 -1.7621  0.2879
 3399TIP3   OH231687   0.104   6.514   4.492 -0.2664  0.1028 -0.1959
 3399TIP3    H131688   0.072   6.557   4.413 -0.6830 -0.5133 -0.3723
 3399TIP3    H231689   0.064   6.563   4.564  0.0192  0.5899 -0.3675
 3400TIP3   OH231690   3.568   3.533  14.533  0.2377  0.2003  0.3115
 3400TIP3    H131691   3.563   3.620  14.494 -0.4391 -0.9893 -2.4594
 3400TIP3    H231692   3.631   3.543  14.605 -0.5952  3.1609  0.7643
 3401TIP3   OH231693   4.241   2.957   2.973  0.3069  0.2121  0.4005
 3401TIP3    H131694   4.255   2.863   2.960  0.1462  0.1940  0.3635
 3401TIP3    H231695   4.146   2.968   2.975  0.3214  0.4502 -0.1389
 3402TIP3   OH231696   0.340   6.790   0.003 -0.3336  0.5839 -0.1460
 3402TIP3    H131697   0.363   6.785  -0.090  1.2990 -1.5554  0.2971
 3402TIP3    H231698   0.297   6.875   0.012 -0.0403  1.1032 -2.7365
 3403TIP3   OH231699   3.867   4.486   2.046 -0.0516 -0.6442  0.2890
 3403TIP3    H131700   3.821   4.497   2.129 -0.0290  0.1077  0.2069
 3403TIP3    H231701   3.960   4.490   2.069 -0.0307 -1.1318  0.3131
 3404TIP3   OH231702   0.979   0.245  10.704 -0.0479 -0.0017 -0.2704
 3404TIP3    H131703   0.951   0.335  10.724  1.5021  0.1322  1.6241
 3404TIP3    H231704   0.902   0.203  10.667 -1.3090  1.6333  0.3857
 3405TIP3   OH231705   2.499   6.023  14.345  0.4526  0.1136 -0.1233
 3405TIP3    H131706   2.573   5.963  14.333  0.5437  0.2135 -0.0684
 3405TIP3    H231707   2.524   6.077  14.420  0.2258  0.0003  0.0337
 3406TIP3   OH231708   3.088   2.288  15.129 -0.4718  0.2218  0.1625
 3406TIP3    H131709   3.075   2.354  15.198  1.3364  2.4373 -1.4640
 3406TIP3    H231710   3.108   2.208  15.177 -3.9954  0.3740  2.2751
 3407TIP3   OH231711   3.927   0.899  10.612  0.2411 -0.0373  0.1258
 3407TIP3    H131712   3.900   0.952  10.687  1.6437 -0.5243  1.0232
 3407TIP3    H231713   3.959   0.963  10.548 -1.0406  0.3852 -0.1128
 3408TIP3   OH231714   2.010   4.504   1.227 -0.4976  0.5444 -0.6361
 3408TIP3    H131715   1.987   4.441   1.294 -0.5953  0.4483 -0.7593
 3408TIP3    H231716   2.092   4.471   1.190 -0.0497  0.9968 -0.0574
 3409TIP3   OH231717   2.361   0.753   2.702  0.7418  0.2962  0.3417
 3409TIP3    H131718   2.336   0.777   2.791  0.5793  1.7369 -0.0802
 3409TIP3    H231719   2.279   0.726   2.660  1.0483 -1.9964  1.0714
 3410TIP3   OH231720   3.518   6.697  12.831  0.8304  0.0312  0.0402
 3410TIP3    H131721   3.458   6.628  12.803  0.1440 -0.0489  1.6363
 3410TIP3    H231722   3.597   6.682  12.778  0.6802 -1.9368  0.2922
 3411TIP3   OH231723   6.713   5.623   3.277 -0.0808  0.3074  0.1187
 3411TIP3    H131724   6.728   5.561   3.348  1.4517  2.5651  1.9221
 3411TIP3    H231725   6.681   5.702   3.321 -0.4901  1.3153 -1.8788
 3412TIP3   OH231726   4.720   1.923  12.628 -0.5504 -0.4128  0.3224
 3412TIP3    H131727   4.722   2.018  12.619  0.7424 -0.2800  1.5695
 3412TIP3    H231728   4.646   1.895  12.574 -0.6041  1.2349 -0.5207
 3413TIP3   OH231729   2.987   2.052  15.726  0.3603  0.6826 -0.3657
 3413TIP3    H131730   3.001   1.958  15.722 -1.8864  0.2309  0.5915
 3413TIP3    H231731   2.894   2.061  15.750  0.6316  3.1306  0.0114
 3414TIP3   OH231732   2.108   4.565   5.211  0.1160 -0.1366 -0.0962
 3414TIP3    H131733   2.045   4.504   5.248  0.9085 -0.0587  1.4388
 3414TIP3    H231734   2.132   4.622   5.283  0.2599  1.2810 -1.2205
 3415TIP3   OH231735   2.411   0.021  14.782  1.2142  0.9020 -0.4001
 3415TIP3    H131736   2.503   0.044  14.774  1.4758 -0.1269 -0.5849
 3415TIP3    H231737   2.382   0.005  14.692  0.9004  1.0754 -0.3304
 3416TIP3   OH231738   6.250   6.398   5.104  0.0559  0.4586 -0.1019
 3416TIP3    H131739   6.200   6.323   5.137 -0.3828  1.8139  2.5439
 3416TIP3    H231740   6.336   6.389   5.144 -0.1610  1.5916  0.6624
 3417TIP3   OH231741   6.110   2.419   2.987 -0.1339 -0.0750 -0.0909
 3417TIP3    H131742   6.102   2.419   3.082  0.2046  1.8615 -0.0235
 3417TIP3    H231743   6.186   2.475   2.969 -0.6660  0.2300 -1.5141
 3418TIP3   OH231744   0.897   4.060   5.048 -0.4748  0.1983 -0.4242
 3418TIP3    H131745   0.804   4.067   5.070 -0.3318  2.2160 -0.2709
 3418TIP3    H231746   0.899   4.071   4.953 -0.3531  1.1103 -0.3305
 3419TIP3   OH231747   6.767   3.757   1.387 -0.3213  0.1784 -0.3149
 3419TIP3    H131748   6.748   3.667   1.415 -0.7248  0.3806  0.0777
 3419TIP3    H231749   6.803   3.747   1.299  0.1741 -0.4113 -0.0546
 3420TIP3   OH231750   0.170   6.605   4.865  0.1180  0.0583 -0.5285
 3420TIP3    H131751   0.177   6.511   4.848 -1.0228  0.0154 -0.8560
 3420TIP3    H231752   0.142   6.611   4.956 -0.4174  0.0538 -0.6901
 3421TIP3   OH231753   6.432   4.722  13.948 -0.1659  0.1207  0.2599
 3421TIP3    H131754   6.498   4.663  13.984 -1.8479  0.4972  4.5472
 3421TIP3    H231755   6.363   4.664  13.916 -0.3889 -0.3416  1.4956
 3422TIP3   OH231756   5.213   0.854   1.493  0.3179  0.5087  0.1676
 3422TIP3    H131757   5.287   0.842   1.552 -0.9386 -1.1600  1.5108
 3422TIP3    H231758   5.162   0.773   1.501 -3.2898  2.6558  1.7333
 3423TIP3   OH231759   0.342   0.619  11.628 -0.7236 -0.0631  0.1458
 3423TIP3    H131760   0.357   0.531  11.663  0.7953  1.0953  2.6726
 3423TIP3    H231761   0.258   0.646  11.666 -0.9868 -0.2496 -0.2959
 3424TIP3   OH231762   5.982   5.927   4.989 -0.4882  0.0852 -0.0144
 3424TIP3    H131763   6.065   5.927   5.037 -0.0390  3.1423 -0.5657
 3424TIP3    H231764   5.935   6.004   5.023 -1.8668  0.0238 -1.6632
 3425TIP3   OH231765   3.453   3.184   3.048 -0.3426  0.2418 -0.2461
 3425TIP3    H131766   3.384   3.118   3.050 -0.3372  0.2287 -0.4698
 3425TIP3    H231767   3.483   3.185   2.958  0.6062 -0.4379  0.0444
 3426TIP3   OH231768   0.459   4.793  11.967  0.2981  0.3770  0.2398
 3426TIP3    H131769   0.382   4.760  11.920  0.5619  0.8122 -0.5343
 3426TIP3    H231770   0.512   4.835  11.898 -0.0902  2.5131  1.1743
 3427TIP3   OH231771   4.530   3.104  14.806  0.7847  0.1515  0.0359
 3427TIP3    H131772   4.573   3.019  14.818  0.0705 -0.1032  0.8431
 3427TIP3    H231773   4.587   3.166  14.852 -0.3093 -0.3638  2.2092
 3428TIP3   OH231774   0.742   6.193   0.703  0.4587 -0.2955 -0.3498
 3428TIP3    H131775   0.821   6.143   0.723  0.4705  0.1139  0.7257
 3428TIP3    H231776   0.706   6.152   0.624  0.3789 -2.1047  0.5670
 3429TIP3   OH231777   6.605   3.838  11.617 -0.1440 -0.7499  0.7059
 3429TIP3    H131778   6.663   3.913  11.635 -1.1942  0.5254 -0.9938
 3429TIP3    H231779   6.659   3.777  11.567  0.1466 -0.1859  0.3188
 3430TIP3   OH231780   5.162   1.206  16.204  0.2293 -0.0185 -0.3817
 3430TIP3    H131781   5.244   1.202  16.255  0.3646  1.3408 -0.4643
 3430TIP3    H231782   5.104   1.144  16.249  0.7484  0.2425  0.6925
 3431TIP3   OH231783   0.011   2.812  17.015 -0.4504  0.2071 -0.2014
 3431TIP3    H131784   0.044   2.801  17.104  0.8766  3.3038 -0.1802
 3431TIP3    H231785  -0.084   2.809  17.024 -0.3381 -1.6034  0.9232
 3432TIP3   OH231786   3.670   2.849  12.341  0.1930  0.0175 -0.5718
 3432TIP3    H131787   3.591   2.837  12.393  0.5440 -0.4887 -0.1364
 3432TIP3    H231788   3.742   2.840  12.404  0.6588 -1.5753 -1.2676
 3433TIP3   OH231789   1.301   2.067  11.084 -0.1832  0.1249 -0.7054
 3433TIP3    H131790   1.340   2.136  11.138 -1.7043 -0.5417  1.3956
 3433TIP3    H231791   1.241   2.113  11.025 -0.1229  0.7264 -0.3037
 3434TIP3   OH231792   0.759   6.625  12.474  0.2106 -0.1873 -0.8285
 3434TIP3    H131793   0.719   6.633  12.387 -0.9492  0.1150 -0.2937
 3434TIP3    H231794   0.709   6.686  12.528  1.0482 -0.2323  0.0108
 3435TIP3   OH231795   2.378   1.561  16.785  0.1544 -0.2138 -0.4678
 3435TIP3    H131796   2.375   1.597  16.874  2.3261 -1.3405  0.1269
 3435TIP3    H231797   2.317   1.616  16.735 -1.0604  0.5079  1.6618
 3436TIP3   OH231798   1.868   5.925  13.251  0.6880  0.4723 -0.0797
 3436TIP3    H131799   1.869   5.998  13.189  0.1125  0.1066 -0.5255
 3436TIP3    H231800   1.906   5.962  13.331  0.2291  1.3214 -0.2333
 3437TIP3   OH231801   2.144   4.240   5.580 -0.0908  0.6524  1.1420
 3437TIP3    H131802   2.070   4.300   5.567  0.0710  0.6888  0.2941
 3437TIP3    H231803   2.221   4.297   5.580  0.1959  0.3670 -1.1118
 3438TIP3   OH231804   5.421   1.845  16.027  0.2229  0.3933  0.3732
 3438TIP3    H131805   5.497   1.863  15.972 -0.6829 -0.5689 -1.2525
 3438TIP3    H231806   5.457   1.807  16.107  1.5306  1.3407  0.2624
 3439TIP3   OH231807   0.723   3.717   0.098 -0.7721 -1.2662 -0.5753
 3439TIP3    H131808   0.752   3.798   0.058  1.2396 -2.2518 -1.2264
 3439TIP3    H231809   0.632   3.707   0.070 -0.3629 -0.3635 -2.3374
 3440TIP3   OH231810   3.133   6.096   4.858 -0.1417 -0.3446  0.3354
 3440TIP3    H131811   3.047   6.112   4.817  0.3817  1.9294  0.0103
 3440TIP3    H231812   3.196   6.131   4.795  0.8429  0.6990  1.8273
 3441TIP3   OH231813   0.066   5.421   5.076  0.4766 -0.3582 -0.0014
 3441TIP3    H131814   0.071   5.330   5.048  0.0944 -0.4789  0.3147
 3441TIP3    H231815   0.150   5.437   5.119  0.0113 -0.9921  1.1983
 3442TIP3   OH231816   5.758   6.592  16.958  0.1685 -0.7246  0.6073
 3442TIP3    H131817   5.781   6.521  17.017 -0.1663  0.1839  1.8841
 3442TIP3    H231818   5.838   6.612  16.910  0.2179 -2.0499  0.1178
 3443TIP3   OH231819   1.223   0.312  13.018 -0.5987  0.1486 -0.2242
 3443TIP3    H131820   1.180   0.226  13.022 -1.2362  0.4513 -0.4739
 3443TIP3    H231821   1.287   0.302  12.947 -1.0742  0.0497 -0.6526
 3444TIP3   OH231822   6.300   2.099   2.770  0.6007 -0.3687 -0.0567
 3444TIP3    H131823   6.262   2.182   2.738 -1.8791 -0.7955  1.5127
 3444TIP3    H231824   6.231   2.034   2.756  2.0188 -1.9380 -0.0766
 3445TIP3   OH231825   2.517   2.081   5.652  0.2406  0.5538 -0.0996
 3445TIP3    H131826   2.553   2.146   5.712 -0.6794  1.3011 -0.3472
 3445TIP3    H231827   2.454   2.032   5.705  0.2957  0.4352 -0.1438
 3446TIP3   OH231828   4.573   2.859   3.928  0.0726  0.2363 -0.5331
 3446TIP3    H131829   4.665   2.886   3.923 -0.3340  2.1031  1.0368
 3446TIP3    H231830   4.539   2.902   4.006 -2.1668 -0.4056 -1.0763
 3447TIP3   OH231831   0.459   0.493  16.835 -0.3383  0.1338  0.2647
 3447TIP3    H131832   0.499   0.579  16.840  0.0656 -0.1060  1.5109
 3447TIP3    H231833   0.526   0.437  16.797 -0.4693  0.2833 -0.1936
 3448TIP3   OH231834   3.701   1.258   4.145 -0.1497 -0.1780 -0.3402
 3448TIP3    H131835   3.759   1.214   4.083 -0.6709  2.0951 -2.6100
 3448TIP3    H231836   3.759   1.285   4.216  0.6566 -1.9791 -0.2526
 3449TIP3   OH231837   0.793   4.149  12.129  0.1750 -0.2916 -0.0328
 3449TIP3    H131838   0.827   4.230  12.167  0.4574 -1.0611  1.4344
 3449TIP3    H231839   0.730   4.118  12.194 -0.2740 -1.0164 -0.8058
 3450TIP3   OH231840   1.880   4.466  11.225 -0.5377 -0.8311  0.2499
 3450TIP3    H131841   1.923   4.446  11.308 -1.0517 -0.0178  0.7138
 3450TIP3    H231842   1.867   4.560  11.226  0.5107 -0.6325 -1.2759
 3451TIP3   OH231843   6.255   4.187   3.406 -0.0924 -0.3189 -0.0466
 3451TIP3    H131844   6.325   4.253   3.397 -0.5746  0.1032 -0.7927
 3451TIP3    H231845   6.236   4.161   3.316  1.4073 -2.9185  0.2921
 3452TIP3   OH231846   5.411   5.298  12.418  0.3825  0.3687 -0.3069
 3452TIP3    H131847   5.441   5.382  12.452  0.8622  0.2543 -0.4383
 3452TIP3    H231848   5.478   5.236  12.447  1.1242  0.3535 -1.9337
 3453TIP3   OH231849   3.141   3.043   0.011 -0.2215 -0.3187 -0.0913
 3453TIP3    H131850   3.068   3.097  -0.021 -0.0005  1.0184  1.5560
 3453TIP3    H231851   3.129   3.040   0.106 -0.2918 -3.3415 -0.0835
 3454TIP3   OH231852   5.697   1.607   3.896  0.9408 -0.2879 -0.1919
 3454TIP3    H131853   5.701   1.628   3.990  4.1321 -0.4627 -0.2062
 3454TIP3    H231854   5.627   1.664   3.863  0.3370  0.4369  2.0993
 3455TIP3   OH231855   4.745   5.578  14.916 -0.3174  0.2765 -0.2318
 3455TIP3    H131856   4.775   5.572  15.007  0.6018 -0.1379 -0.5533
 3455TIP3    H231857   4.678   5.646  14.918 -0.5386  0.0537  0.8142
 3456TIP3   OH231858   0.193   5.965  11.804 -0.1494 -0.2260  0.7312
 3456TIP3    H131859   0.235   5.896  11.753 -2.4567  0.2396 -2.0858
 3456TIP3    H231860   0.130   6.005  11.743 -1.5730  1.8886  3.3552
 3457TIP3   OH231861   5.026   6.607   4.385 -0.3298 -0.3393  0.2612
 3457TIP3    H131862   5.083   6.679   4.358  0.0927 -0.0902  1.7408
 3457TIP3    H231863   4.949   6.615   4.329  0.6502 -0.0805 -1.0842
 3458TIP3   OH231864   1.461   3.156   1.111 -0.0041  0.3235  0.1857
 3458TIP3    H131865   1.441   3.204   1.030  0.1951  0.0269 -0.0390
 3458TIP3    H231866   1.414   3.204   1.179 -0.8064  0.1169 -0.2182
 3459TIP3   OH231867   0.943   1.708   1.777 -0.0697 -0.1481  0.6911
 3459TIP3    H131868   0.915   1.639   1.837 -1.6386 -0.8166 -0.7251
 3459TIP3    H231869   0.960   1.662   1.694  1.8244  0.7698  0.5087
 3460TIP3   OH231870   5.123   2.484   3.008  0.1573  0.2955 -0.4247
 3460TIP3    H131871   5.067   2.524   2.942  0.3866  2.9299  0.8677
 3460TIP3    H231872   5.199   2.542   3.014 -0.0805  0.4352  2.4349
 3461TIP3   OH231873   5.682   2.771   4.543 -0.5925  0.3032 -0.2967
 3461TIP3    H131874   5.640   2.817   4.615 -2.8755 -1.7762 -0.1857
 3461TIP3    H231875   5.748   2.716   4.586 -0.5264  0.5885 -0.0281
 3462TIP3   OH231876   3.396   4.674   5.866 -0.4691  0.1406 -0.2688
 3462TIP3    H131877   3.384   4.670   5.961  2.1766 -0.2167  0.1237
 3462TIP3    H231878   3.423   4.765   5.849 -1.7347  0.4317 -0.8235
 3463TIP3   OH231879   5.048   4.911  16.692  0.1531 -0.4784 -0.2722
 3463TIP3    H131880   5.071   4.877  16.778 -0.3735  2.7050  1.2992
 3463TIP3    H231881   4.953   4.899  16.686 -0.6452  3.2346  1.7718
 3464TIP3   OH231882   0.431   2.765  15.984  0.2091 -0.7131  0.2604
 3464TIP3    H131883   0.496   2.748  15.916 -0.7940 -0.0635 -0.9015
 3464TIP3    H231884   0.347   2.741  15.944 -0.6672  1.7676  0.4585
 3465TIP3   OH231885   1.276   2.258   0.575  0.6337 -0.0127 -0.1770
 3465TIP3    H131886   1.202   2.307   0.611  0.1328 -0.3322 -0.7386
 3465TIP3    H231887   1.325   2.229   0.652  1.2494  1.7901  0.1606
 3466TIP3   OH231888   6.058   2.885  13.934 -0.4869  0.4277 -0.1153
 3466TIP3    H131889   5.980   2.908  13.984 -0.0820 -0.0052  0.7425
 3466TIP3    H231890   6.112   2.964  13.936 -0.0547  0.1215  0.9672
 3467TIP3   OH231891   1.065   2.580  16.489  0.4598  0.7976 -0.5047
 3467TIP3    H131892   1.151   2.572  16.530 -0.1439 -0.1685  0.6371
 3467TIP3    H231893   1.049   2.674  16.485  0.1149  0.9565  2.4847
 3468TIP3   OH231894   4.020   4.748   1.544  0.2765 -0.3510 -0.2428
 3468TIP3    H131895   4.013   4.669   1.598  0.2315  0.4349  0.9437
 3468TIP3    H231896   4.113   4.766   1.538  0.2087  0.5674  1.1210
 3469TIP3   OH231897   0.499   5.903   1.559 -0.1980 -0.1062 -0.3105
 3469TIP3    H131898   0.420   5.903   1.614 -0.8165 -0.7620 -1.1814
 3469TIP3    H231899   0.481   5.967   1.491 -0.0918 -0.4542 -0.6702
 3470TIP3   OH231900   2.789   6.011   6.607 -0.0773 -0.6588 -0.3075
 3470TIP3    H131901   2.780   5.931   6.555 -0.4334 -2.1048  1.8640
 3470TIP3    H231902   2.701   6.048   6.609 -0.3578 -1.3319  0.3395
 3471TIP3   OH231903   3.568   6.716   0.216 -0.1114 -0.6556 -0.2928
 3471TIP3    H131904   3.649   6.758   0.188  1.3891 -1.0459  2.9387
 3471TIP3    H231905   3.530   6.778   0.279 -1.3576 -1.2977 -0.3944
 3472TIP3   OH231906   5.219   5.847  13.293 -0.3124 -0.0426 -0.1954
 3472TIP3    H131907   5.303   5.875  13.329 -1.0517  0.7667  0.9752
 3472TIP3    H231908   5.241   5.803  13.211  1.1373  1.2372 -0.5269
 3473TIP3   OH231909   1.995   6.384   0.380  0.1694  0.5453  0.0845
 3473TIP3    H131910   1.919   6.433   0.349 -0.0401 -0.1739 -0.5841
 3473TIP3    H231911   2.032   6.345   0.301  0.7257  0.1843  0.5157
 3474TIP3   OH231912   3.286   2.869   1.351 -0.3186  0.1948 -0.3871
 3474TIP3    H131913   3.349   2.849   1.420 -0.9654 -0.5924 -0.0056
 3474TIP3    H231914   3.326   2.835   1.271  1.2210  2.6282 -0.7469
 3475TIP3   OH231915   2.345   1.341  15.155  0.6770  0.2768 -0.3145
 3475TIP3    H131916   2.310   1.323  15.068  0.1788 -0.5034  0.0331
 3475TIP3    H231917   2.321   1.433  15.172 -0.0192  0.1624 -0.6381
 3476TIP3   OH231918   2.258   5.804   1.723  0.4010  0.3284 -0.2312
 3476TIP3    H131919   2.255   5.900   1.729  1.0208  0.3536 -0.2491
 3476TIP3    H231920   2.287   5.776   1.810 -0.4029  0.1208 -0.0293
 3477TIP3   OH231921   0.670   0.320  16.707 -0.6151 -0.0619  0.2579
 3477TIP3    H131922   0.711   0.289  16.788 -2.4098 -0.6995  0.9570
 3477TIP3    H231923   0.740   0.315  16.642  0.8540  0.3975  1.7240
 3478TIP3   OH231924   5.441   2.574  12.266  0.0444 -0.0948  0.2672
 3478TIP3    H131925   5.531   2.561  12.237  0.0201 -0.0402  0.1706
 3478TIP3    H231926   5.437   2.666  12.291  0.0861 -0.1593  0.5147
 3479TIP3   OH231927   3.721   1.732   2.128  0.9802  0.2438 -0.5608
 3479TIP3    H131928   3.778   1.701   2.058  1.0798 -0.5128 -0.1518
 3479TIP3    H231929   3.768   1.806   2.167  1.7110 -0.3974 -0.1965
 3480TIP3   OH231930   1.863   1.184   4.957 -0.1538  0.3373 -0.0690
 3480TIP3    H131931   1.878   1.277   4.975  0.2923  0.0901  0.8672
 3480TIP3    H231932   1.942   1.140   4.988 -1.4062 -0.6441  1.9172
 3481TIP3   OH231933   6.137   1.026  13.034 -0.1433 -0.1914  0.3836
 3481TIP3    H131934   6.098   0.972  12.966 -2.6648  0.3157  1.3184
 3481TIP3    H231935   6.145   0.967  13.109 -0.2661  0.0090  0.5562
 3482TIP3   OH231936   0.041   4.205  16.125  0.3967  0.3424 -0.3122
 3482TIP3    H131937   0.005   4.157  16.050  1.4401 -1.1561  0.1063
 3482TIP3    H231938  -0.027   4.199  16.192 -0.1958  0.9779 -0.8360
 3483TIP3   OH231939   5.595   2.428   3.597 -0.0502 -0.6933  0.5655
 3483TIP3    H131940   5.594   2.512   3.642  0.3058  0.4778 -1.4798
 3483TIP3    H231941   5.681   2.391   3.617  1.4281  1.2795 -1.5499
 3484TIP3   OH231942   2.266   1.368   4.921  0.0033 -0.1372 -0.5053
 3484TIP3    H131943   2.311   1.448   4.946 -0.8005  0.4992 -1.0252
 3484TIP3    H231944   2.260   1.373   4.825  0.1656 -0.9448 -0.5661
 3485TIP3   OH231945   5.719   0.155   2.464 -0.2550 -0.2688  0.4216
 3485TIP3    H131946   5.656   0.090   2.433  0.0996  0.4635 -2.0451
 3485TIP3    H231947   5.781   0.165   2.392  0.0833  2.2965  0.9764
 3486TIP3   OH231948   0.659   5.533  15.501  0.6787  0.2390 -0.2372
 3486TIP3    H131949   0.632   5.613  15.456  1.3689  0.6616  0.0835
 3486TIP3    H231950   0.750   5.549  15.526  0.4996 -0.2287  0.7623
 3487TIP3   OH231951   5.037   2.475   4.082  0.1695 -0.3658  0.3709
 3487TIP3    H131952   5.103   2.405   4.079  3.6880  2.5936 -3.0252
 3487TIP3    H231953   5.013   2.488   3.990  0.6337  3.5058  0.6304
 3488TIP3   OH231954   6.320   0.121  11.416  0.3678  0.8956  0.1564
 3488TIP3    H131955   6.272   0.045  11.448  0.6217  0.8977  0.5402
 3488TIP3    H231956   6.265   0.196  11.442  0.9300  0.9467  1.2540
 3489TIP3   OH231957   2.575   0.393   2.167  0.2391 -0.3830 -0.2617
 3489TIP3    H131958   2.508   0.456   2.140 -0.7498 -0.5709  1.5760
 3489TIP3    H231959   2.626   0.439   2.234 -0.7915 -1.5988  1.4482
 3490TIP3   OH231960   3.445   6.440  14.764 -0.6802  0.2785  0.1589
 3490TIP3    H131961   3.518   6.413  14.820  0.2757  1.4365 -0.4882
 3490TIP3    H231962   3.434   6.533  14.783 -1.9184  0.1443  0.1499
 3491TIP3   OH231963   4.731   4.325   1.317 -0.2258  0.4208  0.1634
 3491TIP3    H131964   4.746   4.409   1.359  1.9178 -0.7492  1.9039
 3491TIP3    H231965   4.812   4.277   1.329 -1.8596 -2.4605  0.5340
 3492TIP3   OH231966   6.271   4.754   4.556 -0.5696  0.0409  0.5427
 3492TIP3    H131967   6.181   4.723   4.571 -0.6308  0.5848  1.3989
 3492TIP3    H231968   6.271   4.844   4.590  0.2644  0.1000  0.4095
 3493TIP3   OH231969   4.582   6.394   3.180  0.1530 -0.4642  0.3565
 3493TIP3    H131970   4.522   6.458   3.218 -2.7891 -1.8091 -1.6393
 3493TIP3    H231971   4.598   6.426   3.091 -1.9721 -2.6775 -0.9417
 3494TIP3   OH231972   2.008   0.358   6.938  0.0719 -0.4464  0.0234
 3494TIP3    H131973   2.013   0.361   6.842 -0.3151 -0.4271  0.0001
 3494TIP3    H231974   2.099   0.358   6.967  0.1914 -0.2988 -0.3400
 3495TIP3   OH231975   3.518   1.759   0.816 -0.2243  0.0462 -0.2440
 3495TIP3    H131976   3.500   1.845   0.779 -0.5235  0.2979  0.4661
 3495TIP3    H231977   3.610   1.763   0.844  0.4889 -0.6643 -2.3185
 3496TIP3   OH231978   5.012   4.972  12.157 -0.4384 -0.2621 -0.2556
 3496TIP3    H131979   5.048   4.883  12.157 -1.7349 -0.8069 -0.5231
 3496TIP3    H231980   4.917   4.960  12.154 -0.6803  1.1201  0.6600
 3497TIP3   OH231981   0.796   1.077  11.716  0.0497  0.6129  0.2976
 3497TIP3    H131982   0.712   1.086  11.761 -0.2261  2.5365 -0.4990
 3497TIP3    H231983   0.862   1.097  11.784 -0.3672  3.6352 -0.0276
 3498TIP3   OH231984   0.242   4.216  16.308 -0.3738  0.0256 -0.1374
 3498TIP3    H131985   0.201   4.177  16.385 -1.0322  0.1845 -0.3961
 3498TIP3    H231986   0.176   4.207  16.239  0.0357  0.2840 -0.5658
 3499TIP3   OH231987   1.244   1.127  14.378  0.3525 -0.1640 -0.1166
 3499TIP3    H131988   1.306   1.122  14.305 -1.5488 -1.3274 -1.7775
 3499TIP3    H231989   1.161   1.098  14.340 -1.0644  0.6452  2.1707
 3500TIP3   OH231990   0.105   3.362  16.904 -0.2646 -0.2677  0.0062
 3500TIP3    H131991   0.020   3.398  16.878  0.4510  1.3802 -0.1973
 3500TIP3    H231992   0.087   3.270  16.923 -2.6726  0.5435  2.4761
 3501TIP3   OH231993   3.758   3.996   3.002  0.6025  0.5148 -0.1086
 3501TIP3    H131994   3.669   4.029   3.016 -0.1578 -1.1332 -0.7442
 3501TIP3    H231995   3.745   3.910   2.961  2.5078  0.4448 -0.6433
 3502TIP3   OH231996   3.706   6.002   5.403  0.4536  0.0571 -0.2162
 3502TIP3    H131997   3.794   6.035   5.380  1.2537 -1.0929  1.0462
 3502TIP3    H231998   3.650   6.033   5.331  2.1715 -0.4335 -1.8595
 3503TIP3   OH231999   2.859   2.335  16.666 -0.2403 -0.0044 -0.4885
 3503TIP3    H132000   2.909   2.398  16.719 -0.4079  0.4943 -0.9180
 3503TIP3    H232001   2.861   2.255  16.718 -0.3747  0.4682  0.2718
 3504TIP3   OH232002   1.372   3.431   2.343  0.0757  0.5033  0.0121
 3504TIP3    H132003   1.280   3.404   2.346  1.2050 -3.9969  2.1415
 3504TIP3    H232004   1.391   3.461   2.432  1.2400 -1.1126  0.3372
 3505TIP3   OH232005   1.959   4.061   5.299 -0.2530 -0.1461  0.0313
 3505TIP3    H132006   1.997   4.026   5.380 -0.6433  1.1241  0.8008
 3505TIP3    H232007   1.876   4.014   5.289  0.1020 -0.7699  0.0220
 3506TIP3   OH232008   0.565   3.075  12.797  0.0623  0.2966 -0.3928
 3506TIP3    H132009   0.587   3.003  12.738 -0.9913 -1.9351  1.7395
 3506TIP3    H232010   0.648   3.096  12.840  0.4104  0.5043 -1.1426
 3507TIP3   OH232011   1.684   4.775  10.798 -0.1211 -0.2530 -0.2044
 3507TIP3    H132012   1.615   4.730  10.848  0.3019  0.9154  1.5131
 3507TIP3    H232013   1.702   4.716  10.725 -2.2218 -1.0649 -0.1426
 3508TIP3   OH232014   1.808   6.747  14.789 -0.2509  1.1904  0.0953
 3508TIP3    H132015   1.776   6.660  14.812  2.6792 -0.1049 -0.3086
 3508TIP3    H232016   1.767   6.805  14.853  1.3446 -1.1449  3.5835
 3509TIP3   OH232017   1.395   3.404  15.887 -0.0317 -0.2258 -0.3466
 3509TIP3    H132018   1.404   3.492  15.852  0.7638 -0.4133 -0.6500
 3509TIP3    H232019   1.370   3.351  15.811 -1.7205 -0.0730  0.0745
 3510TIP3   OH232020   0.506   1.193  14.734 -0.1680 -0.2182  0.1755
 3510TIP3    H132021   0.485   1.150  14.651 -0.5044 -0.2216  0.2590
 3510TIP3    H232022   0.424   1.234  14.761  0.8024  3.1947 -1.4527
 3511TIP3   OH232023   3.584   0.972  16.433 -0.3230  0.0635  0.1019
 3511TIP3    H132024   3.596   0.973  16.528 -0.8897  0.7903  0.1727
 3511TIP3    H232025   3.504   1.021  16.418  2.1224  4.1920 -1.0602
 3512TIP3   OH232026   1.376   5.118   6.517 -0.0607 -0.1733  0.3103
 3512TIP3    H132027   1.439   5.184   6.488  0.4302 -0.0981  1.4967
 3512TIP3    H232028   1.409   5.036   6.480 -1.2170  0.3138 -2.0198
 3513TIP3   OH232029   5.115   0.714  15.796 -0.2280 -0.4043 -0.1692
 3513TIP3    H132030   5.080   0.697  15.883  1.1961  0.9935  0.7232
 3513TIP3    H232031   5.053   0.775  15.756 -1.4970 -1.9275 -0.6229
 3514TIP3   OH232032   6.774   4.699  12.623  0.0990  0.3732 -0.0514
 3514TIP3    H132033   6.718   4.775  12.637 -1.3466 -0.6385 -0.1360
 3514TIP3    H232034   6.714   4.624  12.623  1.2864 -0.6364 -1.4353
 3515TIP3   OH232035   3.572   1.261  13.180  0.9616 -1.0866  0.6369
 3515TIP3    H132036   3.479   1.263  13.204  0.2253  0.4816 -1.9680
 3515TIP3    H232037   3.587   1.173  13.148 -0.3061 -0.7353 -1.0755
 3516TIP3   OH232038   2.967   3.552  11.392  0.1753 -0.2492 -0.3688
 3516TIP3    H132039   2.985   3.513  11.478 -0.1478 -0.1787 -0.2675
 3516TIP3    H232040   2.994   3.644  11.402  1.5213 -0.5740 -0.7971
 3517TIP3   OH232041   0.915   2.036   1.505  0.5470 -0.4630  0.2706
 3517TIP3    H132042   0.866   2.001   1.431  0.5051 -2.3276  1.1414
 3517TIP3    H232043   0.998   1.989   1.505  0.7013 -0.2252  1.1877
 3518TIP3   OH232044   3.543   6.414   0.765  0.1002  0.3249 -0.2812
 3518TIP3    H132045   3.463   6.460   0.792 -0.6645 -1.0440 -0.1223
 3518TIP3    H232046   3.555   6.439   0.673  0.2919  1.6232  0.0761
 3519TIP3   OH232047   5.894   0.194   6.491  0.5621  0.2832 -0.1266
 3519TIP3    H132048   5.829   0.221   6.425  0.1555  1.4313  0.7003
 3519TIP3    H232049   5.895   0.099   6.486  0.2554  0.3258 -1.5153
 3520TIP3   OH232050   4.846   5.810  15.575 -0.1173 -0.4225 -0.0319
 3520TIP3    H132051   4.842   5.733  15.632  0.4197 -1.1566 -0.9474
 3520TIP3    H232052   4.754   5.831  15.557 -0.2869 -0.3977  0.7875
 3521TIP3   OH232053   6.395   0.789   1.506 -0.4304 -0.4638 -0.3042
 3521TIP3    H132054   6.436   0.851   1.568 -1.3041 -1.2219  1.0926
 3521TIP3    H232055   6.468   0.757   1.453  0.4241 -0.0674  0.5864
 3522TIP3   OH232056   5.197   0.947   2.608 -0.0754 -0.0823 -0.3215
 3522TIP3    H132057   5.110   0.980   2.629 -0.4183 -0.6582 -0.7749
 3522TIP3    H232058   5.255   1.022   2.616 -0.7213  0.4560 -0.6595
 3523TIP3   OH232059   5.554   3.783  14.576 -0.0642 -0.1254 -0.1562
 3523TIP3    H132060   5.643   3.768  14.608 -0.2561  0.4196  0.6520
 3523TIP3    H232061   5.504   3.708  14.611 -0.0789 -0.0270  0.0359
 3524TIP3   OH232062   4.499   2.288  16.658 -0.0366  0.2141 -0.1916
 3524TIP3    H132063   4.582   2.330  16.683 -0.1347  0.7197 -0.6962
 3524TIP3    H232064   4.522   2.196  16.646  0.6312  0.4796 -1.0855
 3525TIP3   OH232065   1.478   1.152  15.555  0.4469  0.4311  0.1194
 3525TIP3    H132066   1.398   1.189  15.593 -1.7496  0.8722 -4.2312
 3525TIP3    H232067   1.462   1.058  15.553 -0.0212  0.5169 -0.7261
 3526TIP3   OH232068   5.106   1.403   6.252  0.1673  0.1864  0.4833
 3526TIP3    H132069   5.178   1.463   6.270 -0.0037  1.0531 -1.4515
 3526TIP3    H232070   5.067   1.385   6.337  2.4979 -0.1119  1.5546
 3527TIP3   OH232071   0.606   1.707  16.563  0.4192 -0.4840 -0.3337
 3527TIP3    H132072   0.534   1.759  16.526  0.3828 -1.0216 -1.0529
 3527TIP3    H232073   0.643   1.763  16.631 -0.1789  0.1235 -0.4873
 3528TIP3   OH232074   1.764   2.164   1.115  0.1155  0.5210  0.2892
 3528TIP3    H132075   1.775   2.170   1.210  1.4777  0.3306  0.1615
 3528TIP3    H232076   1.676   2.200   1.099 -0.3189  0.1252  1.6525
 3529TIP3   OH232077   1.929   6.492  11.983  0.4856 -1.2477 -0.4781
 3529TIP3    H132078   1.972   6.575  11.959 -1.9925  0.5828  0.9210
 3529TIP3    H232079   1.931   6.491  12.079 -0.6054 -2.1888 -0.4457
 3530TIP3   OH232080   3.378   2.961   4.075  0.5043  0.2368  0.6029
 3530TIP3    H132081   3.409   3.048   4.098  0.2021  0.4451  0.2415
 3530TIP3    H232082   3.405   2.949   3.984 -3.1251  1.7408 -0.8922
 3531TIP3   OH232083   0.746   5.427  14.661  0.0142  0.1047  0.2758
 3531TIP3    H132084   0.723   5.341  14.626 -0.9701  0.4151  0.1319
 3531TIP3    H232085   0.791   5.472  14.588  0.1848 -0.1425  0.2284
 3532TIP3   OH232086   2.497   3.421   2.582 -0.1531  0.4003  0.0537
 3532TIP3    H132087   2.425   3.455   2.635 -0.1060  1.5183 -0.5728
 3532TIP3    H232088   2.458   3.352   2.529 -0.1823 -0.8111  1.5888
 3533TIP3   OH232089   5.192   4.443  17.125  0.0780 -0.1118  0.5021
 3533TIP3    H132090   5.247   4.472  17.052  0.9804  2.1222  1.9549
 3533TIP3    H232091   5.254   4.414  17.192 -0.4109  1.9547  1.9629
 3534TIP3   OH232092   6.670   3.715   6.271  0.4993  0.4259 -0.5129
 3534TIP3    H132093   6.656   3.754   6.357  1.9590  0.2225 -0.1674
 3534TIP3    H232094   6.662   3.789   6.210  0.5847  0.7736 -0.1055
 3535TIP3   OH232095   4.449   1.259   3.894 -0.2756 -0.1197 -0.4041
 3535TIP3    H132096   4.484   1.317   3.961 -0.1579 -0.6854  0.0305
 3535TIP3    H232097   4.525   1.236   3.840 -0.6393  1.6562 -1.7755
 3536TIP3   OH232098   6.793   5.583  15.706  0.5316 -0.3136 -0.0202
 3536TIP3    H132099   6.790   5.654  15.642 -0.1488 -1.0287 -0.8118
 3536TIP3    H232100   6.816   5.506  15.655 -0.9848 -1.0841  0.4164
 3537TIP3   OH232101   4.176   3.444   1.958 -0.4636 -0.5764 -0.0793
 3537TIP3    H132102   4.164   3.354   1.926 -1.5424 -0.5999  0.3571
 3537TIP3    H232103   4.116   3.451   2.031  1.3012 -0.2306  1.4155
 3538TIP3   OH232104   0.458   5.918   0.397  0.4660 -0.5990  0.9091
 3538TIP3    H132105   0.362   5.922   0.399  0.4368 -1.0442  0.6376
 3538TIP3    H232106   0.479   5.905   0.304  0.8480  0.7571  0.7952
 3539TIP3   OH232107   4.825   3.703   3.711  0.2672  0.4573  1.0079
 3539TIP3    H132108   4.754   3.767   3.704  0.0774  0.4032  2.2009
 3539TIP3    H232109   4.905   3.755   3.709  0.1502  0.6301  0.8297
 3540TIP3   OH232110   1.421   3.886   3.070  0.2778 -0.3686 -0.2912
 3540TIP3    H132111   1.329   3.859   3.067 -0.0914  0.7366  0.3497
 3540TIP3    H232112   1.460   3.849   2.991 -0.1816 -2.6773  0.4708
 3541TIP3   OH232113   2.827   3.185  15.349  0.0505 -0.6383 -0.2318
 3541TIP3    H132114   2.884   3.246  15.395  1.1630 -0.3687 -1.8701
 3541TIP3    H232115   2.749   3.236  15.328 -1.4028 -1.2995  2.9553
 3542TIP3   OH232116   4.540   5.992  15.569 -0.2024  0.6311 -0.3400
 3542TIP3    H132117   4.505   6.080  15.553  0.5348  1.1050  0.5979
 3542TIP3    H232118   4.613   5.984  15.507 -0.4066  0.5829 -0.5784
 3543TIP3   OH232119   2.425   3.685   2.075 -0.1283  0.1395 -0.6683
 3543TIP3    H132120   2.366   3.614   2.051 -0.5290  0.2519 -0.0411
 3543TIP3    H232121   2.407   3.754   2.011 -0.6285  0.1444 -0.5247
 3544TIP3   OH232122   1.221   2.579   4.085 -0.1553 -0.1950 -0.4735
 3544TIP3    H132123   1.304   2.606   4.046  0.0619 -0.3921 -0.1581
 3544TIP3    H232124   1.190   2.506   4.031 -0.7915  0.7225 -1.3872
 3545TIP3   OH232125   6.054   3.565   2.348 -0.1525 -0.2743 -0.6023
 3545TIP3    H132126   5.963   3.591   2.362 -0.1749 -0.1034 -1.0629
 3545TIP3    H232127   6.105   3.629   2.398 -0.2293  0.3874 -1.3593
 3546TIP3   OH232128   5.540   2.557  14.004 -0.1025  0.2361  0.1223
 3546TIP3    H132129   5.568   2.540  13.914 -3.2456 -0.7917 -0.7988
 3546TIP3    H232130   5.551   2.473  14.049 -1.2976 -0.1071 -0.1814
 3547TIP3   OH232131   4.604   4.394  12.844 -0.1957  0.3326  0.2750
 3547TIP3    H132132   4.557   4.412  12.763  0.5144  0.6599 -0.0739
 3547TIP3    H232133   4.535   4.378  12.909 -0.7776  0.7339 -0.2365
 3548TIP3   OH232134   4.772   0.342   2.911  0.2373  0.1446  0.0935
 3548TIP3    H132135   4.677   0.343   2.914  0.1327  2.4266 -1.6326
 3548TIP3    H232136   4.799   0.346   3.003 -1.3608  1.7008  0.5440
 3549TIP3   OH232137   2.215   5.619  10.230 -0.1200  0.3568 -0.2539
 3549TIP3    H132138   2.249   5.706  10.210 -1.9723  0.9821 -0.8668
 3549TIP3    H232139   2.213   5.615  10.325  0.4072  0.8071 -0.2209
 3550TIP3   OH232140   4.301   5.856   0.688  0.3313  0.5167 -0.2149
 3550TIP3    H132141   4.237   5.918   0.653 -1.6824 -0.0565  2.1723
 3550TIP3    H232142   4.309   5.788   0.621 -2.0175  0.3185 -0.3666
 3551TIP3   OH232143   5.776   3.215  12.757 -0.3059  0.7182 -0.0004
 3551TIP3    H132144   5.773   3.311  12.761 -0.2932  0.9816 -3.4154
 3551TIP3    H232145   5.684   3.188  12.763 -0.3209  0.9370  0.8359
 3552TIP3   OH232146   0.676   1.578  13.803  0.2106  0.4911 -0.2809
 3552TIP3    H132147   0.613   1.517  13.841 -0.5518  0.8688 -0.8853
 3552TIP3    H232148   0.757   1.528  13.794 -0.7544 -0.8640 -2.0158
 3553TIP3   OH232149   2.706   1.910  11.810 -0.2312  0.5156 -0.2442
 3553TIP3    H132150   2.639   1.845  11.830  1.1147 -1.2667 -1.2084
 3553TIP3    H232151   2.735   1.942  11.896 -2.2853  1.3590  0.1818
 3554TIP3   OH232152   3.519   1.576   2.046  0.0992 -0.1592  0.5408
 3554TIP3    H132153   3.575   1.545   1.975 -0.8319  0.6653 -0.6091
 3554TIP3    H232154   3.573   1.642   2.091  0.4129 -0.0830  0.0686
 3555TIP3   OH232155   2.554   3.213   4.382 -0.8996 -0.4029 -0.4101
 3555TIP3    H132156   2.638   3.246   4.351 -0.1805 -1.0704  0.7670
 3555TIP3    H232157   2.559   3.118   4.370 -0.4674 -0.7365  1.9037
 3556TIP3   OH232158   4.573   5.135   2.477 -0.0267 -0.0149 -0.0020
 3556TIP3    H132159   4.565   5.228   2.497  1.7535 -0.2021  1.9063
 3556TIP3    H232160   4.483   5.104   2.469 -0.6562  2.1145 -2.1681
 3557TIP3   OH232161   0.811   6.470   4.053  0.2129  0.6364 -0.1490
 3557TIP3    H132162   0.835   6.404   3.988  1.7613  0.8535  0.1495
 3557TIP3    H232163   0.893   6.488   4.100 -0.8366  0.5804  1.7811
 3558TIP3   OH232164   0.574   0.702   2.982  0.1722  0.3533 -0.1084
 3558TIP3    H132165   0.571   0.797   2.986 -2.1448  0.3109  0.4237
 3558TIP3    H232166   0.537   0.680   2.896 -3.6811 -0.0630  1.4440
 3559TIP3   OH232167   0.046   5.642  14.159 -0.4034  0.4643  0.2251
 3559TIP3    H132168  -0.039   5.605  14.179 -0.1236 -0.8144 -0.8075
 3559TIP3    H232169   0.098   5.628  14.239 -0.1465 -1.9374 -0.2961
 3560TIP3   OH232170   6.721   2.533   5.767 -0.0725  0.0067  0.3327
 3560TIP3    H132171   6.690   2.562   5.852 -2.7003  0.0352 -0.5353
 3560TIP3    H232172   6.794   2.474   5.786 -1.2622 -0.8159  2.6645
 3561TIP3   OH232173   6.198   6.121  12.667 -0.1268 -0.4547 -0.0594
 3561TIP3    H132174   6.223   6.208  12.699  1.3340 -1.6012  2.1906
 3561TIP3    H232175   6.216   6.124  12.573  0.2253  1.5400  0.0276
 3562TIP3   OH232176   0.234   0.839  10.912 -0.2563  0.2413 -0.3652
 3562TIP3    H132177   0.266   0.848  10.822 -0.5142  2.2790 -0.2937
 3562TIP3    H232178   0.273   0.757  10.942 -0.2516 -0.5489 -2.3544
 3563TIP3   OH232179   1.550   5.071   1.461  0.0027  0.6592  0.0906
 3563TIP3    H132180   1.623   5.114   1.504 -0.2143 -0.5991  1.8214
 3563TIP3    H232181   1.483   5.139   1.454  0.8069  1.4395 -0.2279
 3564TIP3   OH232182   2.299   3.581   3.835  0.5060 -0.7334  0.5591
 3564TIP3    H132183   2.340   3.582   3.922 -0.7688  0.4748  1.1885
 3564TIP3    H232184   2.293   3.489   3.813  0.1480 -1.1229  2.1191
 3565TIP3   OH232185   4.763   5.075   1.918 -0.4993  0.0781  0.5491
 3565TIP3    H132186   4.830   5.139   1.892 -2.2039  0.5218 -3.5413
 3565TIP3    H232187   4.703   5.124   1.974 -0.5742  1.5103 -0.7126
 3566TIP3   OH232188   5.363   0.251  11.914 -0.1853  0.2155 -0.3248
 3566TIP3    H132189   5.372   0.331  11.861 -0.9132  0.7406  0.3345
 3566TIP3    H232190   5.326   0.280  11.997 -0.8533 -0.8597 -0.2168
 3567TIP3   OH232191   0.780   1.167  12.788 -0.3576  0.2260 -0.4745
 3567TIP3    H132192   0.858   1.111  12.785 -0.2454  0.2402  1.1877
 3567TIP3    H232193   0.738   1.153  12.703  1.0634 -0.3345 -1.1301
 3568TIP3   OH232194   3.955   2.926   0.255  0.5335 -0.2312 -0.2353
 3568TIP3    H132195   4.026   2.961   0.309 -0.6809  0.9167  0.6913
 3568TIP3    H232196   3.980   2.946   0.165  1.3504  0.1876  0.0807
 3569TIP3   OH232197   6.124   5.642   5.040  1.0501  0.1468  0.2381
 3569TIP3    H132198   6.145   5.716   5.098 -1.5630  0.0213  1.4794
 3569TIP3    H232199   6.118   5.567   5.099  0.0491 -0.3240 -0.4443
 3570TIP3   OH232200   5.165   6.544  10.930 -0.1401 -0.1017  0.1082
 3570TIP3    H132201   5.227   6.561  10.859  0.7040  0.1921  0.8932
 3570TIP3    H232202   5.082   6.579  10.898  0.3215  0.4166 -0.5673
 3571TIP3   OH232203   5.884   4.209  15.799 -0.0810  0.7537  0.0754
 3571TIP3    H132204   5.975   4.238  15.811  0.0074  0.1775  0.8708
 3571TIP3    H232205   5.892   4.120  15.764 -0.3490  0.7963 -0.0973
 3572TIP3   OH232206   2.825   3.580   4.276  0.6871 -0.2845  0.3212
 3572TIP3    H132207   2.790   3.655   4.323  2.1293  1.2756 -0.9372
 3572TIP3    H232208   2.919   3.599   4.267  1.0835 -2.2073 -0.1051
 3573TIP3   OH232209   3.160   1.448  11.836 -0.2255  0.7308 -0.2611
 3573TIP3    H132210   3.187   1.536  11.809  0.4928  0.3516 -0.8108
 3573TIP3    H232211   3.141   1.403  11.753  0.0348  0.1750 -0.0227
 3574TIP3   OH232212   2.042   1.413   6.042 -0.0178 -0.5755  0.5044
 3574TIP3    H132213   2.131   1.385   6.065 -0.4961 -0.9608  1.9965
 3574TIP3    H232214   2.047   1.509   6.043  0.5494 -0.5906 -0.1501
 3575TIP3   OH232215   2.475   0.488   2.575  0.4560 -0.2631 -0.1299
 3575TIP3    H132216   2.428   0.571   2.570  1.2199  0.0860 -2.3128
 3575TIP3    H232217   2.427   0.429   2.517  2.0632 -0.1761 -1.6471
 3576TIP3   OH232218   5.320   2.025   5.127  0.0678 -0.5465 -1.1584
 3576TIP3    H132219   5.237   1.979   5.130 -0.7010  0.7748 -1.5417
 3576TIP3    H232220   5.374   1.972   5.068  0.2596 -2.5380  0.6716
 3577TIP3   OH232221   1.002   1.273  12.231  0.0683  0.1273 -0.2744
 3577TIP3    H132222   1.095   1.252  12.240  0.3028  0.7112 -1.1349
 3577TIP3    H232223   0.957   1.214  12.291  0.9973 -0.1582  0.1492
 3578TIP3   OH232224   0.654   2.991   3.880 -0.1842 -0.6505  0.0931
 3578TIP3    H132225   0.667   2.970   3.972  0.8834  0.4185  0.2083
 3578TIP3    H232226   0.589   2.928   3.850 -0.4576 -1.0928  1.5434
 3579TIP3   OH232227   1.177   4.511  12.245  0.5858 -0.2950 -0.2605
 3579TIP3    H132228   1.210   4.433  12.199 -0.2891 -1.8046  1.5566
 3579TIP3    H232229   1.092   4.528  12.204 -0.4302 -1.9511  1.0458
 3580TIP3   OH232230   1.712   5.933   3.932  0.4669  0.4858  0.8087
 3580TIP3    H132231   1.717   5.934   4.028 -0.0582  0.8804  0.8375
 3580TIP3    H232232   1.778   5.869   3.905  1.3133  1.1032  1.3781
 3581TIP3   OH232233   1.466   5.210   6.053  0.2304 -0.3467  0.4298
 3581TIP3    H132234   1.505   5.132   6.013 -2.3220 -1.1641 -0.6514
 3581TIP3    H232235   1.486   5.201   6.147  2.0909 -0.9646  0.0215
 3582TIP3   OH232236   3.836   1.754  13.341  0.0878 -0.1277  0.1317
 3582TIP3    H132237   3.860   1.840  13.376  2.2980  0.6236 -2.8515
 3582TIP3    H232238   3.904   1.695  13.373 -0.0711 -0.2762  0.1985
 3583TIP3   OH232239   4.412   2.873  11.480 -0.0974 -0.4327  0.4178
 3583TIP3    H132240   4.498   2.896  11.444  0.6147 -2.5444  0.6508
 3583TIP3    H232241   4.431   2.808  11.548 -1.8449 -0.5257  0.8502
 3584TIP3   OH232242   5.586   1.121   3.868 -0.0181  0.2399 -0.2873
 3584TIP3    H132243   5.600   1.214   3.851 -0.0244  0.7595  2.1319
 3584TIP3    H232244   5.491   1.110   3.866 -0.0826  0.5572  0.4862
 3585TIP3   OH232245   4.219   5.988  17.232 -0.2400 -0.0794 -0.2166
 3585TIP3    H132246   4.138   5.958  17.275 -2.2489 -0.8622 -4.0649
 3585TIP3    H232247   4.244   5.916  17.175  0.9376  1.5668 -1.9172
 3586TIP3   OH232248   4.558   5.733  13.202 -0.2112  0.0136 -0.5742
 3586TIP3    H132249   4.603   5.683  13.270  2.9806  2.3144 -0.7665
 3586TIP3    H232250   4.588   5.693  13.120 -1.1738 -0.4921 -0.6861
 3587TIP3   OH232251   2.616   0.220  11.147 -0.1024 -0.3832 -0.0545
 3587TIP3    H132252   2.662   0.203  11.065 -0.2310  1.0738 -0.4603
 3587TIP3    H232253   2.680   0.270  11.199 -1.0445  1.3462 -0.4835
 3588TIP3   OH232254   4.315   5.514  15.165 -0.0781  0.1433 -0.1546
 3588TIP3    H132255   4.256   5.469  15.226  0.0519  1.0749  0.6793
 3588TIP3    H232256   4.384   5.450  15.147 -0.4799 -0.3855  0.1293
 3589TIP3   OH232257   0.333   6.624   3.780  0.1102 -0.6881  0.0912
 3589TIP3    H132258   0.390   6.661   3.847  1.4892 -1.2938 -0.7035
 3589TIP3    H232259   0.249   6.668   3.793  1.2026  1.5080  0.2412
 3590TIP3   OH232260   2.091   1.314   3.073  0.0518  0.7162 -0.5415
 3590TIP3    H132261   2.149   1.390   3.073  0.7872  0.1706  0.1553
 3590TIP3    H232262   2.073   1.297   2.981  2.4910 -0.2203 -0.9064
 3591TIP3   OH232263   0.849   4.265   5.291  0.1506 -0.4418 -0.3131
 3591TIP3    H132264   0.764   4.265   5.335  0.1312 -0.0630 -0.3518
 3591TIP3    H232265   0.828   4.259   5.198  0.1658 -0.3869 -0.3204
 3592TIP3   OH232266   1.848   4.850   3.210 -0.0652  0.1749 -0.0234
 3592TIP3    H132267   1.781   4.831   3.144 -0.6347  2.4842 -0.2058
 3592TIP3    H232268   1.927   4.866   3.158 -0.2061  0.7381 -0.0734
 3593TIP3   OH232269   3.241   3.249  16.958 -0.4917  0.1759  0.0340
 3593TIP3    H132270   3.209   3.339  16.954  0.0733  0.3971  0.2936
 3593TIP3    H232271   3.296   3.247  17.037  0.8109  0.0509 -0.8380
 3594TIP3   OH232272   2.083   2.006   5.629 -0.5086 -0.2594 -0.5880
 3594TIP3    H132273   2.027   1.940   5.588 -1.0326  0.6120 -1.3159
 3594TIP3    H232274   2.140   2.037   5.558  0.1705 -0.3790 -0.1043
 3595TIP3   OH232275   0.683   4.674   1.373 -0.4283  0.6615 -0.3396
 3595TIP3    H132276   0.666   4.757   1.419 -0.9978 -0.3435  1.3301
 3595TIP3    H232277   0.596   4.640   1.352 -0.3532 -0.7898  1.4253
 3596TIP3   OH232278   4.002   1.009  15.786 -0.5213 -0.0917 -0.4477
 3596TIP3    H132279   4.007   1.103  15.766 -1.0851  0.4537  1.7002
 3596TIP3    H232280   3.915   0.998  15.825 -0.4980 -1.5441 -0.7527
 3597TIP3   OH232281   4.177   2.191   5.901 -0.6004  0.4074  0.2510
 3597TIP3    H132282   4.255   2.232   5.939 -0.5191 -0.5617  1.1826
 3597TIP3    H232283   4.130   2.263   5.859  0.5627  1.0900  0.0637
 3598TIP3   OH232284   3.356   5.848  12.180  0.1864 -0.7838  0.5636
 3598TIP3    H132285   3.275   5.900  12.180  0.1228 -0.8793 -0.0804
 3598TIP3    H232286   3.335   5.771  12.127 -0.2622 -2.3281  2.7942
 3599TIP3   OH232287   4.986   5.229   1.825 -0.5102  0.1445  0.0507
 3599TIP3    H132288   4.994   5.300   1.888 -2.3562  0.1861  0.2878
 3599TIP3    H232289   5.077   5.207   1.802  0.1498  1.2586  1.4251
 3600TIP3   OH232290   0.957   0.422   1.539  0.2345 -0.0520  0.2079
 3600TIP3    H132291   0.996   0.467   1.463 -0.2251  0.0118  0.0100
 3600TIP3    H232292   0.937   0.493   1.601 -0.3650  0.0094 -0.0486
 3601TIP3   OH232293   5.177   2.854  16.886  0.1647 -0.0429  0.0517
 3601TIP3    H132294   5.081   2.848  16.893  0.0946 -0.5745 -1.1854
 3601TIP3    H232295   5.192   2.896  16.802  1.0224  0.5225  0.4793
 3602TIP3   OH232296   4.942   3.393   2.362 -0.8242  0.5346 -0.0994
 3602TIP3    H132297   4.966   3.484   2.346 -2.5104  1.1494  0.7164
 3602TIP3    H232298   5.020   3.355   2.402 -0.4902  1.9128  0.6175
 3603TIP3   OH232299   4.529   1.069   5.100  0.1400  0.2748  0.4092
 3603TIP3    H132300   4.535   1.129   5.026  0.0480  0.5855  0.6533
 3603TIP3    H232301   4.615   1.073   5.141  0.7725 -1.2081 -0.6841
 3604TIP3   OH232302   0.491   6.692  11.702  0.1289  0.0852  0.2826
 3604TIP3    H132303   0.519   6.678  11.793  1.9964 -0.7706 -0.3855
 3604TIP3    H232304   0.398   6.713  11.709  0.1526 -0.3032  2.3692
 3605TIP3   OH232305   1.826   2.938   5.012 -0.0012  0.2077  0.0911
 3605TIP3    H132306   1.917   2.965   5.018 -0.0538  0.6624 -0.8635
 3605TIP3    H232307   1.784   2.979   5.088  0.4700  0.5102  0.1952
 3606TIP3   OH232308   3.375   2.793   0.326  0.3824 -0.0101 -0.3222
 3606TIP3    H132309   3.331   2.708   0.326  0.4362 -0.1421  2.3985
 3606TIP3    H232310   3.323   2.846   0.386  0.7546  1.6827 -1.4431
 3607TIP3   OH232311   2.597   1.224   1.827 -0.1034  0.0178  0.2897
 3607TIP3    H132312   2.550   1.265   1.900  0.1728  1.3710 -0.2832
 3607TIP3    H232313   2.689   1.237   1.847 -0.0173 -0.0671 -0.0564
 3608TIP3   OH232314   2.555   6.318   3.024  0.6938  0.8294  0.2061
 3608TIP3    H132315   2.606   6.399   3.031  0.3987  1.1436 -1.0913
 3608TIP3    H232316   2.500   6.331   2.947 -0.0953 -0.2062  0.5778
 3609TIP3   OH232317   6.691   4.634  12.216 -0.1551 -0.1591 -0.6008
 3609TIP3    H132318   6.714   4.710  12.270  0.6803 -0.9535  0.2091
 3609TIP3    H232319   6.775   4.591  12.199 -0.5209 -0.4446 -1.7633
 3610TIP3   OH232320   3.459   3.368  13.725  0.3962 -0.1241 -0.2806
 3610TIP3    H132321   3.396   3.430  13.689  0.9490 -0.6419 -2.2843
 3610TIP3    H232322   3.407   3.290  13.746  0.2692 -0.4328 -1.6262
 3611TIP3   OH232323   6.025   4.878  13.701 -0.4514  0.5883 -0.6204
 3611TIP3    H132324   6.052   4.921  13.620  0.4158 -1.1841 -1.3268
 3611TIP3    H232325   6.055   4.936  13.771  0.0201  1.4675 -1.5382
 3612TIP3   OH232326   0.118   1.206   0.750 -0.2087  0.2887  0.2292
 3612TIP3    H132327   0.119   1.293   0.710  0.5518 -0.0971 -0.6237
 3612TIP3    H232328   0.126   1.223   0.844 -0.8391  1.1633  0.1419
 3613TIP3   OH232329   5.849   2.666   4.185  0.0962 -0.0832 -0.4191
 3613TIP3    H132330   5.816   2.579   4.163  1.2176 -0.0759 -2.4527
 3613TIP3    H232331   5.914   2.650   4.254 -1.2000 -0.5620  0.7288
 3614TIP3   OH232332   4.432   5.692   3.286  0.2804  0.5019 -0.1588
 3614TIP3    H132333   4.464   5.780   3.267 -1.5974  1.2249 -0.2676
 3614TIP3    H232334   4.383   5.702   3.368 -3.1588  0.5251 -2.0046
 3615TIP3   OH232335   5.349   0.819   3.274  0.0694 -0.2283 -0.4065
 3615TIP3    H132336   5.300   0.808   3.193 -1.3224 -0.2138  0.4086
 3615TIP3    H232337   5.347   0.914   3.290 -1.5385 -0.4248  0.7451
 3616TIP3   OH232338   2.046   5.443  16.243  0.4929  0.0164 -0.4263
 3616TIP3    H132339   2.044   5.468  16.335  1.0962 -2.1705  0.2492
 3616TIP3    H232340   2.120   5.490  16.206  1.8974 -1.0786  0.8937
 3617TIP3   OH232341   3.210   0.397   3.563 -0.2630  0.1308  0.5264
 3617TIP3    H132342   3.267   0.432   3.494 -0.0434  0.6757  0.9738
 3617TIP3    H232343   3.127   0.379   3.520  0.5312 -1.6228 -0.3693
 3618TIP3   OH232344   6.605   0.863   5.470 -0.2541  0.1740 -0.7139
 3618TIP3    H132345   6.675   0.872   5.535 -1.2966  2.0798  0.2039
 3618TIP3    H232346   6.630   0.924   5.401 -1.9777  2.4676  0.5766
 3619TIP3   OH232347   2.210   0.470   3.049 -0.2006 -0.0159  0.2578
 3619TIP3    H132348   2.284   0.459   2.990 -0.3723 -2.0493  0.3430
 3619TIP3    H232349   2.173   0.382   3.057  0.3170 -0.0283  4.0481
 3620TIP3   OH232350   4.774   1.865  14.605  0.2086 -0.3378 -0.6118
 3620TIP3    H132351   4.698   1.837  14.555  0.9285 -1.0784 -1.3443
 3620TIP3    H232352   4.751   1.848  14.696 -0.4045 -0.7837 -0.8418
 3621TIP3   OH232353   3.378   1.693   1.466  0.0963 -0.5473 -0.3820
 3621TIP3    H132354   3.454   1.705   1.408  1.1602  1.1618  1.2366
 3621TIP3    H232355   3.416   1.686   1.553 -1.6069  3.2973  0.8809
 3622TIP3   OH232356   3.443   4.054  14.331  0.1521  0.0979  0.4697
 3622TIP3    H132357   3.416   3.962  14.329  1.6397 -0.3562  0.3195
 3622TIP3    H232358   3.450   4.079  14.239 -1.3659  0.7272  0.5016
 3623TIP3   OH232359   4.816   1.495  17.156  0.1066 -0.3788  0.2276
 3623TIP3    H132360   4.855   1.424  17.105 -1.2169 -0.0358 -1.3303
 3623TIP3    H232361   4.733   1.460  17.187 -0.6814  0.5346 -0.7713
 3624TIP3   OH232362   5.740   5.996   0.506 -0.1035 -0.5291 -0.5133
 3624TIP3    H132363   5.753   5.960   0.418 -0.1840  0.9079 -1.1351
 3624TIP3    H232364   5.820   6.045   0.524  0.1511 -1.2854  0.4683
 3625TIP3   OH232365   5.765   5.022  17.059 -0.7487 -0.1344 -0.2157
 3625TIP3    H132366   5.733   5.047  17.146  1.6970  1.4752  0.3318
 3625TIP3    H232367   5.724   5.084  16.999  2.0284  2.7765  0.6309
 3626TIP3   OH232368   2.695   2.369   2.408 -0.2810  0.2184  0.1457
 3626TIP3    H132369   2.771   2.408   2.365  0.1641  1.3821  1.8913
 3626TIP3    H232370   2.722   2.357   2.499 -1.6068 -1.0015  0.4245
 3627TIP3   OH232371   0.285   2.276  13.121  0.3260 -0.8440  0.1245
 3627TIP3    H132372   0.265   2.368  13.100 -0.4805 -0.4384  2.3807
 3627TIP3    H232373   0.201   2.231  13.113  0.7646 -1.4804 -1.1967
 3628TIP3   OH232374   6.732   5.626   4.959 -0.3301 -0.6341 -0.5643
 3628TIP3    H132375   6.792   5.564   5.001 -0.4521 -0.1472  0.3620
 3628TIP3    H232376   6.788   5.694   4.923 -0.2033 -1.1983 -1.4851
 3629TIP3   OH232377   0.253   2.994  13.366 -0.1657 -0.3435 -0.2860
 3629TIP3    H132378   0.200   2.935  13.420  0.3130  0.2113  0.8421
 3629TIP3    H232379   0.200   3.011  13.289 -2.3943  1.4334  1.4775
 3630TIP3   OH232380   0.958   0.934  15.612  0.1726  0.2406 -0.8951
 3630TIP3    H132381   0.997   1.001  15.668  1.1067 -2.5400  2.1159
 3630TIP3    H232382   1.032   0.890  15.571 -0.1540 -0.9996 -0.2086
 3631TIP3   OH232383   0.936   6.235   5.618  0.1305  0.8259  0.0493
 3631TIP3    H132384   0.885   6.257   5.696 -0.2960 -0.4676  0.1590
 3631TIP3    H232385   0.871   6.202   5.555  0.3171  2.7731 -1.2558
 3632TIP3   OH232386   1.249   2.401  15.469  0.2521 -0.5701  0.7095
 3632TIP3    H132387   1.178   2.439  15.416  0.1539  0.1501  1.3404
 3632TIP3    H232388   1.223   2.309  15.480 -0.1599 -0.5189  0.2366
 3633TIP3   OH232389   3.156   0.460  12.265  0.2770 -0.0279 -0.3171
 3633TIP3    H132390   3.244   0.437  12.297 -0.1479 -1.7616 -0.2772
 3633TIP3    H232391   3.110   0.490  12.344  0.4983 -0.2155 -0.1119
 3634TIP3   OH232392   3.721   1.504   1.126  0.4704 -0.2288  0.4590
 3634TIP3    H132393   3.653   1.440   1.108  0.7707 -0.0060 -1.7850
 3634TIP3    H232394   3.676   1.576   1.171 -0.4910 -0.6524  0.1827
 3635TIP3   OH232395   2.226   3.421  13.691  0.5816  0.5749 -0.3526
 3635TIP3    H132396   2.201   3.413  13.599 -1.6629 -4.4774  0.3731
 3635TIP3    H232397   2.309   3.375  13.697  0.4565  0.4157  0.1996
 3636TIP3   OH232398   2.952   2.520  12.931  0.2514 -0.0292 -0.2468
 3636TIP3    H132399   2.995   2.489  12.851  0.5399 -1.4288  0.4175
 3636TIP3    H232400   2.859   2.522  12.909  0.2759 -0.9331 -0.4650
 3637TIP3   OH232401   0.021   0.685  10.997 -0.0222 -0.2192 -0.6735
 3637TIP3    H132402   0.060   0.619  10.940 -0.7581  1.3440 -3.1729
 3637TIP3    H232403   0.085   0.756  10.998  0.7508 -0.8471  1.9578
 3638TIP3   OH232404   0.964   5.537  12.167  0.0469  0.3396 -0.6038
 3638TIP3    H132405   1.011   5.609  12.125 -0.7804  0.1445 -1.9210
 3638TIP3    H232406   0.971   5.464  12.106 -0.8721 -0.0797 -0.2367
 3639TIP3   OH232407   0.097   4.902   4.565 -0.2103  0.4107 -0.4709
 3639TIP3    H132408   0.103   4.886   4.471 -1.6329 -2.4132 -0.1660
 3639TIP3    H232409   0.163   4.845   4.604 -0.3789  0.7356  0.3139
 3640TIP3   OH232410   3.495   1.843  11.419 -0.2092  0.1077  0.1499
 3640TIP3    H132411   3.573   1.856  11.365 -0.7673 -0.1165 -0.7317
 3640TIP3    H232412   3.466   1.754  11.398  2.5682 -2.2899  4.7781
 3641TIP3   OH232413   6.383   3.051   5.949 -0.0222  0.3077  0.1385
 3641TIP3    H132414   6.347   2.964   5.932  0.6190  0.1160 -0.2842
 3641TIP3    H232415   6.467   3.052   5.903  0.1898  0.9930  0.5184
 3642TIP3   OH232416   6.378   2.125  14.774  0.0823  0.3237  0.2253
 3642TIP3    H132417   6.347   2.212  14.748 -1.6845 -0.1368  0.6270
 3642TIP3    H232418   6.420   2.090  14.695  0.0356  1.2003 -0.2033
 3643TIP3   OH232419   3.197   4.643   5.375  0.8715 -0.2112 -0.2451
 3643TIP3    H132420   3.187   4.691   5.457  1.0897  1.6323 -1.2506
 3643TIP3    H232421   3.131   4.574   5.379 -0.9804  1.4963  0.3366
 3644TIP3   OH232422   4.093   3.309  13.675 -0.0273  0.5681  0.3207
 3644TIP3    H132423   4.037   3.319  13.599  0.3822 -4.1250 -0.9213
 3644TIP3    H232424   4.178   3.343  13.646 -0.0494 -0.5152 -1.1235
 3645TIP3   OH232425   6.639   2.558  16.263 -0.5062 -0.0750  0.1079
 3645TIP3    H132426   6.597   2.593  16.342 -0.1400  0.2064  0.1759
 3645TIP3    H232427   6.610   2.466  16.260  0.5781 -0.4822  1.3359
 3646TIP3   OH232428   4.552   6.257   0.197 -0.0634 -0.2508  0.5065
 3646TIP3    H132429   4.646   6.241   0.185 -0.4475 -2.1795 -0.3078
 3646TIP3    H232430   4.523   6.294   0.113  0.6323  4.4340  2.0632
 3647TIP3   OH232431   1.240   3.810   3.408  0.1164  0.1376  0.8645
 3647TIP3    H132432   1.220   3.883   3.350 -2.5691  0.7554  2.4207
 3647TIP3    H232433   1.295   3.849   3.476  1.0243  0.0275  0.2104
 3648TIP3   OH232434   0.531   4.803   6.285 -0.5654  0.0959  0.2165
 3648TIP3    H132435   0.605   4.863   6.280  0.3426 -0.9538  0.5275
 3648TIP3    H232436   0.467   4.848   6.341 -0.7041  1.5469 -1.0567
 3649TIP3   OH232437   4.155   5.385   2.949  0.4788 -0.5581 -0.4616
 3649TIP3    H132438   4.070   5.428   2.954  0.3890 -0.7710 -0.1307
 3649TIP3    H232439   4.218   5.453   2.974  0.4020 -0.4209 -0.6398
 3650TIP3   OH232440   0.102   4.101  17.093 -0.0830 -0.1517 -0.4486
 3650TIP3    H132441   0.078   4.104  17.186  0.5913 -1.0870 -0.2221
 3650TIP3    H232442   0.076   4.186  17.059 -1.3088 -0.1611  0.3554
 3651TIP3   OH232443   5.753   6.477  16.671 -0.0335  0.3559  0.1962
 3651TIP3    H132444   5.802   6.408  16.715  0.8772  0.5800 -0.4311
 3651TIP3    H232445   5.807   6.555  16.680 -0.9403  0.9379  0.6875
 3652TIP3   OH232446   2.162   1.333  10.567  0.4909  0.3054 -0.1218
 3652TIP3    H132447   2.239   1.389  10.578 -0.7036  1.9806  0.1643
 3652TIP3    H232448   2.163   1.275  10.643  2.1112 -0.5522 -0.7528
 3653TIP3   OH232449   3.491   1.309   3.317 -0.5452 -0.1652  0.2138
 3653TIP3    H132450   3.481   1.404   3.313 -1.7319 -0.0738  3.0399
 3653TIP3    H232451   3.563   1.295   3.378 -1.1069 -1.0722  0.6967
 3654TIP3   OH232452   4.650   3.454  14.056 -0.1070 -0.1176 -0.3351
 3654TIP3    H132453   4.602   3.437  14.137 -0.8703  0.0193 -0.7451
 3654TIP3    H232454   4.689   3.540  14.068  0.6781 -0.5480  0.2965
 3655TIP3   OH232455   0.311   4.254   5.484  0.2800  0.2927  0.2316
 3655TIP3    H132456   0.228   4.276   5.441 -0.1883 -0.5149  0.6864
 3655TIP3    H232457   0.309   4.305   5.565 -0.6729 -1.1122  1.1484
 3656TIP3   OH232458   5.027   3.173   4.417  0.4881 -0.3212 -0.4281
 3656TIP3    H132459   5.091   3.218   4.471 -1.7011  2.9398 -0.2439
 3656TIP3    H232460   5.065   3.086   4.401  2.5218 -0.4848  3.8890
 3657TIP3   OH232461   0.302   5.887  17.182 -0.1315  0.0718  0.1419
 3657TIP3    H132462   0.212   5.868  17.210  0.7630 -0.5487  2.8450
 3657TIP3    H232463   0.346   5.802  17.184  1.0242  0.6657  0.9670
 3658TIP3   OH232464   2.573   2.554   3.132 -0.2706 -0.3653 -0.5958
 3658TIP3    H132465   2.545   2.590   3.216 -2.2117 -0.6475 -1.0833
 3658TIP3    H232466   2.644   2.612   3.104 -0.4338  0.4768  0.6358
 3659TIP3   OH232467   1.523   3.669   2.886  0.1437 -0.0392 -0.0376
 3659TIP3    H132468   1.447   3.659   2.829 -0.4255 -0.7223  0.8281
 3659TIP3    H232469   1.595   3.690   2.826 -0.1972 -1.8578 -1.1672
 3660TIP3   OH232470   5.672   2.963  11.732 -0.2594  0.1942  0.2439
 3660TIP3    H132471   5.714   2.903  11.670 -0.9289  0.3531 -0.3758
 3660TIP3    H232472   5.679   3.049  11.691 -0.7217  0.2973  0.3722
 3661TIP3   OH232473   1.978   0.608  12.149 -0.0474 -0.1801 -0.0087
 3661TIP3    H132474   1.898   0.642  12.189  1.1575 -1.0977  3.6642
 3661TIP3    H232475   2.044   0.674  12.169  0.7688 -1.0461  0.2137
 3662TIP3   OH232476   3.569   6.098   3.193  0.0799 -0.4568 -0.1071
 3662TIP3    H132477   3.574   6.173   3.133  0.0903  0.0608  0.5203
 3662TIP3    H232478   3.477   6.072   3.190 -0.2367  0.4844  0.7149
 3663TIP3   OH232479   2.411   2.291  16.736  0.1732 -0.0025 -0.0689
 3663TIP3    H132480   2.415   2.222  16.670 -1.8776  1.6321 -2.0527
 3663TIP3    H232481   2.363   2.252  16.809 -0.1908 -0.9571 -0.8010
 3664TIP3   OH232482   6.524   1.833   5.405  0.4970  0.1459  0.9561
 3664TIP3    H132483   6.506   1.915   5.359 -0.9882 -1.6452 -1.9098
 3664TIP3    H232484   6.442   1.812   5.449  0.3564 -0.5646  0.3673
 3665TIP3   OH232485   5.788   6.460   6.300 -0.1227 -0.2536 -0.4233
 3665TIP3    H132486   5.708   6.444   6.250 -1.3592  1.0648  0.9954
 3665TIP3    H232487   5.853   6.487   6.235 -1.2093 -0.0960 -1.4795
 3666TIP3   OH232488   3.106   0.470   3.838  0.4754  0.2144 -0.9123
 3666TIP3    H132489   3.155   0.436   3.913  0.7265  0.0171 -1.1622
 3666TIP3    H232490   3.140   0.421   3.764 -1.1592 -1.0138 -0.8947
 3667TIP3   OH232491   1.392   3.093   6.071 -0.1288 -0.1535 -0.0298
 3667TIP3    H132492   1.422   3.099   6.161  1.5043  0.1129 -0.5633
 3667TIP3    H232493   1.464   3.130   6.019 -1.7818  1.4749 -1.3081
 3668TIP3   OH232494   4.263   0.313   1.118  0.0470 -0.5980 -0.3520
 3668TIP3    H132495   4.242   0.220   1.124  0.5146 -0.8214 -1.8633
 3668TIP3    H232496   4.209   0.354   1.185  0.8749 -2.1069  1.3455
 3669TIP3   OH232497   6.119   2.678   1.044 -0.8258 -0.0489  0.1996
 3669TIP3    H132498   6.143   2.649   0.956 -0.6481  0.6483  0.0121
 3669TIP3    H232499   6.033   2.640   1.060 -0.4562 -0.9554  0.1002
 3670TIP3   OH232500   4.093   5.830  12.781  0.1359  0.7452  0.4959
 3670TIP3    H132501   4.133   5.809  12.697 -1.2716  0.0631 -0.0492
 3670TIP3    H232502   4.089   5.926  12.783 -3.5571  0.8870 -2.2228
 3671TIP3   OH232503   0.851   6.515  15.113 -0.2977  0.1405  0.0146
 3671TIP3    H132504   0.859   6.598  15.160  1.6649  0.3810 -0.6477
 3671TIP3    H232505   0.759   6.511  15.087 -0.4397  2.0930  0.0817
 3672TIP3   OH232506   1.100   4.624   0.866 -0.1732  0.4879  0.1331
 3672TIP3    H132507   1.006   4.605   0.868 -0.2376  0.8419  2.2705
 3672TIP3    H232508   1.141   4.540   0.845 -0.8810 -0.1005  1.0441
 3673TIP3   OH232509   1.057   0.726   2.567 -0.5664  0.5068 -0.2421
 3673TIP3    H132510   1.141   0.688   2.592 -1.4475 -1.0384  0.4642
 3673TIP3    H232511   0.999   0.707   2.640 -1.5397  1.6209 -0.6880
 3674TIP3   OH232512   5.842   0.451   4.113 -0.7784  0.8102  0.2674
 3674TIP3    H132513   5.910   0.426   4.176 -1.0097 -0.2980  0.1027
 3674TIP3    H232514   5.825   0.543   4.132  0.4240  0.9768  0.6253
 3675TIP3   OH232515   2.884   3.669   3.855 -0.3111 -0.4037  0.4779
 3675TIP3    H132516   2.969   3.630   3.877  0.0300  0.4790  0.7501
 3675TIP3    H232517   2.826   3.644   3.928  0.0919  0.1945  1.0091
 3676TIP3   OH232518   0.005   3.260  12.590  0.0174  0.1913  0.2065
 3676TIP3    H132519   0.005   3.218  12.676 -0.7740  1.9122  1.0929
 3676TIP3    H232520  -0.043   3.199  12.534 -1.0888 -0.1246  1.4304
 3677TIP3   OH232521   0.721   2.305  11.581 -0.0443  0.0094 -0.0674
 3677TIP3    H132522   0.799   2.354  11.604  0.2213  0.1559 -1.2234
 3677TIP3    H232523   0.741   2.266  11.496 -2.4208  2.8546 -2.1258
 3678TIP3   OH232524   1.400   3.945   4.321 -0.2460 -0.8768 -0.2934
 3678TIP3    H132525   1.492   3.924   4.335 -0.0297  0.2600  0.1525
 3678TIP3    H232526   1.371   3.885   4.253  1.1203 -0.5276 -1.2135
 3679TIP3   OH232527   4.912   1.884   4.125  0.1826  0.4782 -0.2968
 3679TIP3    H132528   5.000   1.899   4.090 -0.0857  0.0287 -1.1932
 3679TIP3    H232529   4.884   1.970   4.156  1.2538  0.4624  0.7687
 3680TIP3   OH232530   4.575   0.938   3.097 -0.1921  0.0376 -0.1596
 3680TIP3    H132531   4.590   1.016   3.044 -1.7702  0.6461  0.2295
 3680TIP3    H232532   4.551   0.870   3.033  1.0590 -0.1281 -0.4851
 3681TIP3   OH232533   3.165   0.421  11.752  0.1208  0.0514  0.2703
 3681TIP3    H132534   3.126   0.483  11.690  1.3392  0.2057 -0.3933
 3681TIP3    H232535   3.208   0.476  11.817 -0.1209 -0.1075  0.5646
 3682TIP3   OH232536   2.222   2.278   4.712 -0.5056  0.4911 -0.1605
 3682TIP3    H132537   2.171   2.241   4.640 -0.5251  2.1921 -1.0662
 3682TIP3    H232538   2.172   2.257   4.791 -1.6048  0.4464 -0.8563
 3683TIP3   OH232539   2.706   6.224   4.219 -0.5603  0.3762  0.1581
 3683TIP3    H132540   2.701   6.146   4.163  1.2431  0.7662 -0.6150
 3683TIP3    H232541   2.768   6.200   4.288 -2.9118 -0.1835  2.2784
 3684TIP3   OH232542   6.219   2.683  17.029 -0.3820  0.1225  0.4146
 3684TIP3    H132543   6.296   2.738  17.043  0.4418 -1.0337  0.6734
 3684TIP3    H232544   6.175   2.720  16.953  2.6987 -1.4897 -2.4256
 3685TIP3   OH232545   5.887   3.494  16.347  0.9176  0.4536  0.3774
 3685TIP3    H132546   5.791   3.489  16.350  0.7992  1.8187 -0.2436
 3685TIP3    H232547   5.907   3.513  16.255  2.0872 -3.7556 -0.4566
 3686TIP3   OH232548   3.609   1.288   6.181  0.1723  0.3049  0.3119
 3686TIP3    H132549   3.690   1.313   6.137  0.8395 -0.7680  0.8860
 3686TIP3    H232550   3.636   1.222   6.245 -0.9467  0.8962  1.4524
 3687TIP3   OH232551   1.251   1.594   0.621  0.0363  0.3592 -0.3000
 3687TIP3    H132552   1.215   1.679   0.598  1.0554  0.8630 -0.0917
 3687TIP3    H232553   1.316   1.575   0.553  0.7621  0.3747  0.3660
 3688TIP3   OH232554   4.649   5.211  12.265 -0.3842 -0.1394 -0.1565
 3688TIP3    H132555   4.643   5.292  12.215 -0.1309  0.8014  1.2680
 3688TIP3    H232556   4.710   5.231  12.336 -1.7652 -0.9551  1.3394
 3689TIP3   OH232557   4.719   1.459  14.606  0.1374 -0.5104  0.0049
 3689TIP3    H132558   4.674   1.457  14.690 -0.2518 -1.3134 -0.2138
 3689TIP3    H232559   4.682   1.535  14.561 -1.2613 -1.3406 -0.3000
 3690TIP3   OH232560   1.982   6.743   5.261 -0.7200  0.1864 -0.2559
 3690TIP3    H132561   1.972   6.676   5.194  0.0074 -0.1426 -0.0487
 3690TIP3    H232562   2.073   6.771   5.254  0.4076 -2.1337  2.6142
 3691TIP3   OH232563   0.370   1.653   1.599 -0.1237 -0.4418  0.3471
 3691TIP3    H132564   0.379   1.688   1.510  0.8847  1.4491  1.1508
 3691TIP3    H232565   0.453   1.674   1.642 -0.2742 -2.0513  1.5189
 3692TIP3   OH232566   3.880   1.146   1.529  0.1583 -0.2695 -0.5040
 3692TIP3    H132567   3.826   1.160   1.452 -1.0805  3.7571  0.7971
 3692TIP3    H232568   3.967   1.180   1.505  0.3265 -0.8090 -0.6735
 3693TIP3   OH232569   2.727   6.227  16.397  0.0978 -0.4216  0.1009
 3693TIP3    H132570   2.654   6.272  16.441  0.1725 -0.4768  0.2824
 3693TIP3    H232571   2.798   6.290  16.397  0.2199 -0.5558  0.4046
 3694TIP3   OH232572   6.635   5.801   2.517 -0.2704 -0.3315  0.1264
 3694TIP3    H132573   6.676   5.845   2.592 -1.7399 -1.3540  1.5897
 3694TIP3    H232574   6.693   5.726   2.498  0.2550  0.0917  0.0216
 3695TIP3   OH232575   6.560   1.437   2.124 -0.1628 -0.3384  0.3274
 3695TIP3    H132576   6.571   1.482   2.041 -2.6278  0.8122  0.5527
 3695TIP3    H232577   6.538   1.347   2.100  0.3697 -0.3332 -0.2106
 3696TIP3   OH232578   3.132   1.830  16.371  0.4701 -0.0427  0.2755
 3696TIP3    H132579   3.118   1.829  16.277  0.1592 -0.9218  0.3191
 3696TIP3    H232580   3.192   1.903  16.386  0.7038 -0.0431 -0.6186
 3697TIP3   OH232581   6.025   2.651   4.389 -0.4364  0.2224  0.3159
 3697TIP3    H132582   6.028   2.729   4.446  2.7218  0.1624  0.4129
 3697TIP3    H232583   6.024   2.577   4.450  0.0102  0.1738  0.2652
 3698TIP3   OH232584   0.942   0.225   4.019  0.0691 -0.2335 -0.2932
 3698TIP3    H132585   0.905   0.191   4.100 -0.3242  0.5621 -0.1365
 3698TIP3    H232586   0.867   0.227   3.958 -0.3774  2.1225  0.2519
 3699TIP3   OH232587   5.392   3.908   2.192  0.4651  0.0298 -0.6338
 3699TIP3    H132588   5.469   3.943   2.149  0.9093 -0.8901 -0.6058
 3699TIP3    H232589   5.324   3.973   2.177  0.8830  0.2117 -1.8244
 3700TIP3   OH232590   0.696   4.534   3.432 -0.4783 -0.3043  0.1151
 3700TIP3    H132591   0.773   4.561   3.383 -0.9297  0.5214 -0.1684
 3700TIP3    H232592   0.707   4.574   3.519  0.4543 -1.9903  0.8207
 3701TIP3   OH232593   1.212   6.089   4.193  0.1472 -0.2485 -0.0718
 3701TIP3    H132594   1.253   6.138   4.122  0.7109  0.9669  1.0605
 3701TIP3    H232595   1.276   6.093   4.264 -0.9803 -0.2731  0.9591
 3702TIP3   OH232596   3.937   5.664  12.946  0.5642 -0.2081  0.6905
 3702TIP3    H132597   3.966   5.719  12.873 -0.9039 -0.9011 -0.4582
 3702TIP3    H232598   3.979   5.580  12.931 -0.6579 -0.7163 -0.0709
 3703TIP3   OH232599   4.581   5.182  11.155  0.0964  1.1809  0.2166
 3703TIP3    H132600   4.583   5.087  11.148  1.2267  1.2747 -0.9981
 3703TIP3    H232601   4.537   5.199  11.239  2.3600 -0.4751  1.8629
 3704TIP3   OH232602   6.819   4.664   3.571  0.0295 -0.4992 -0.4101
 3704TIP3    H132603   6.750   4.683   3.635 -0.8416  1.1203 -1.7376
 3704TIP3    H232604   6.856   4.750   3.550  1.6683 -1.2189 -0.6134
 3705TIP3   OH232605   5.647   1.986   3.240 -0.3886 -0.0311  0.3945
 3705TIP3    H132606   5.607   1.920   3.183 -0.6528 -0.3008  0.8859
 3705TIP3    H232607   5.705   2.035   3.182 -1.0572  0.0479 -0.2283
 3706TIP3   OH232608   5.429   6.535   5.832  0.1313 -0.1503  0.2033
 3706TIP3    H132609   5.524   6.528   5.823  0.0138 -0.0057 -1.2458
 3706TIP3    H232610   5.394   6.506   5.748 -1.1131 -0.1858  0.7137
 3707TIP3   OH232611   5.547   3.644  14.313  0.3843  0.2640 -0.2168
 3707TIP3    H132612   5.479   3.619  14.375  0.5194 -0.3028 -0.2888
 3707TIP3    H232613   5.526   3.735  14.289  0.2450  0.4414  0.5392
 3708TIP3   OH232614   4.035   5.081  14.779  0.2631 -0.0453  0.2089
 3708TIP3    H132615   4.035   5.149  14.846  1.7593 -0.5461  0.7590
 3708TIP3    H232616   4.110   5.103  14.723 -0.9357  0.3434 -1.3074
 3709TIP3   OH232617   1.701   0.956  14.774 -0.1744 -0.6929 -0.0088
 3709TIP3    H132618   1.634   0.897  14.741 -0.3487 -0.5699  0.1225
 3709TIP3    H232619   1.653   1.020  14.827  0.0300 -0.5234 -0.0270
 3710TIP3   OH232620   2.294   3.482   0.457  0.3009 -0.0891 -0.3738
 3710TIP3    H132621   2.345   3.462   0.379  0.3877 -1.6263  0.0513
 3710TIP3    H232622   2.286   3.399   0.503  0.3546  0.7967  1.3305
 3711TIP3   OH232623   6.783   5.901   0.575  0.3123  0.2935 -0.0913
 3711TIP3    H132624   6.776   5.996   0.570  1.3351  0.3089 -2.0894
 3711TIP3    H232625   6.876   5.884   0.592  0.5303 -0.3467 -1.7245
 3712TIP3   OH232626   4.590   0.280   2.258  0.0917  0.4241  0.0012
 3712TIP3    H132627   4.631   0.325   2.184  0.8106  0.8716  0.6551
 3712TIP3    H232628   4.502   0.316   2.264  1.0704  2.7809  1.3424
 3713TIP3   OH232629   3.082   3.990  14.876 -0.0837  0.3376 -0.1236
 3713TIP3    H132630   3.032   4.017  14.953  1.4197  2.5753  0.1555
 3713TIP3    H232631   3.087   3.895  14.883  0.4732  0.4945  2.8705
 3714TIP3   OH232632   0.018   3.359   4.343  0.0700  0.1159 -0.5278
 3714TIP3    H132633   0.014   3.263   4.339  0.8609  0.0011  0.9916
 3714TIP3    H232634   0.017   3.386   4.251 -0.6906 -1.3160 -0.9722
 3715TIP3   OH232635   3.530   1.508   5.668  0.5306  0.8437 -0.3277
 3715TIP3    H132636   3.489   1.440   5.614  0.9244  0.2452  0.1130
 3715TIP3    H232637   3.575   1.565   5.606  2.0009 -0.5214 -0.5731
 3716TIP3   OH232638   2.901   1.044  12.900  0.4267 -0.1779 -0.2071
 3716TIP3    H132639   2.938   1.058  12.987  1.5072  2.2572 -0.9665
 3716TIP3    H232640   2.839   1.117  12.889  0.2814 -0.4743 -1.4668
 3717TIP3   OH232641   2.538   4.355   0.990  0.0697 -0.5625 -0.0370
 3717TIP3    H132642   2.554   4.370   0.897  0.4675 -0.4983  0.0409
 3717TIP3    H232643   2.623   4.326   1.024 -0.5345 -2.6268 -0.1120
 3718TIP3   OH232644   5.281   3.812   6.457 -0.5793 -0.1656 -0.1451
 3718TIP3    H132645   5.242   3.745   6.513  0.0542  0.5934  1.2474
 3718TIP3    H232646   5.212   3.876   6.443 -0.1679  0.6863  1.5160
 3719TIP3   OH232647   2.118   4.304  11.857 -0.0068 -0.3804 -0.1649
 3719TIP3    H132648   2.110   4.383  11.911  0.1778  0.7365 -1.6971
 3719TIP3    H232649   2.136   4.234  11.919  1.2973  1.0327  1.1485
 3720TIP3   OH232650   3.460   1.471  10.703 -0.0324  0.2275  0.2838
 3720TIP3    H132651   3.453   1.375  10.705  4.7091 -0.5136 -2.3947
 3720TIP3    H232652   3.433   1.496  10.615  1.4098  0.8974 -0.0003
 3721TIP3   OH232653   2.596   0.423  13.262  0.2484  0.1931 -0.3413
 3721TIP3    H132654   2.610   0.337  13.222  2.6979  0.8516 -1.0161
 3721TIP3    H232655   2.587   0.403  13.356  0.7525 -0.8136 -0.4879
 3722TIP3   OH232656   1.253   3.980   1.966  0.0276  0.7580 -0.4541
 3722TIP3    H132657   1.312   3.957   1.894 -0.6322 -0.4989 -0.6289
 3722TIP3    H232658   1.191   3.907   1.970  0.0782  0.7785  1.4307
 3723TIP3   OH232659   5.632   4.513   1.039  0.2536  0.4603  0.7914
 3723TIP3    H132660   5.551   4.563   1.046 -0.1848 -0.1444  0.1601
 3723TIP3    H232661   5.606   4.431   0.998  1.6135  1.4182 -2.3314
 3724TIP3   OH232662   4.014   5.894  12.209  0.3503  0.3076 -0.4612
 3724TIP3    H132663   4.005   5.807  12.249  2.3566  0.5346  0.6113
 3724TIP3    H232664   4.098   5.890  12.162  0.5740  1.7327 -0.2195
 3725TIP3   OH232665   0.642   5.901   4.322 -0.4572  0.2277 -0.0933
 3725TIP3    H132666   0.564   5.897   4.378 -0.3771  2.4564  0.2833
 3725TIP3    H232667   0.608   5.929   4.237 -0.2112  0.0958 -0.2323
 3726TIP3   OH232668   1.972   3.624   1.293 -0.2442  0.4646 -0.2878
 3726TIP3    H132669   1.987   3.574   1.213 -1.8574 -0.3994 -0.1013
 3726TIP3    H232670   1.926   3.703   1.264 -2.1060 -0.4947 -0.1544
 3727TIP3   OH232671   2.811   6.744  11.470  0.2153  0.2226  0.2964
 3727TIP3    H132672   2.760   6.818  11.501  0.8506  0.5141  0.6589
 3727TIP3    H232673   2.803   6.678  11.539 -1.4794 -0.6030 -0.6281
 3728TIP3   OH232674   2.866   5.002   4.506  0.5840 -0.2431 -0.5736
 3728TIP3    H132675   2.942   5.013   4.449  2.0098  1.0693  1.4246
 3728TIP3    H232676   2.900   4.954   4.581 -0.7009 -0.1056  0.1215
 3729TIP3   OH232677   1.015   0.971  10.595 -0.3099  0.5847  0.4341
 3729TIP3    H132678   1.022   1.065  10.613  0.9248  0.6335 -0.1535
 3729TIP3    H232679   1.080   0.956  10.526  0.0130 -0.8277  1.0247
 3730TIP3   OH232680   5.118   2.959   3.465 -0.1249 -0.2558 -0.1758
 3730TIP3    H132681   5.079   3.033   3.512 -3.8520 -1.6466 -0.6947
 3730TIP3    H232682   5.090   2.882   3.514  1.3337 -1.4687 -1.1508
 3731TIP3   OH232683   3.627   2.591  16.522  0.0772 -0.8168  0.4710
 3731TIP3    H132684   3.617   2.531  16.595  0.8660 -1.1433  0.3233
 3731TIP3    H232685   3.597   2.676  16.556  1.1636 -0.7919  1.4333
 3732TIP3   OH232686   4.361   4.127   3.218 -0.1516  0.5194 -0.3352
 3732TIP3    H132687   4.334   4.193   3.153 -1.1361 -1.5828 -2.2164
 3732TIP3    H232688   4.385   4.051   3.165  0.3681 -0.8460  1.7662
 3733TIP3   OH232689   3.191   5.197  14.722 -0.3653 -0.3422  0.1700
 3733TIP3    H132690   3.253   5.133  14.686  2.0843  1.6120  0.6667
 3733TIP3    H232691   3.157   5.244  14.646  1.6321  1.0064  0.0527
 3734TIP3   OH232692   3.483   4.301   3.568  0.4902  0.0455 -0.2149
 3734TIP3    H132693   3.576   4.301   3.589  0.4536 -0.4896 -0.0259
 3734TIP3    H232694   3.480   4.279   3.474  0.6165  1.6705 -0.6305
 3735TIP3   OH232695   0.629   6.562  15.838 -0.0412 -0.1431 -0.1280
 3735TIP3    H132696   0.677   6.485  15.808  2.5140  1.0501  0.6160
 3735TIP3    H232697   0.666   6.580  15.925 -1.3369  1.3068  0.1599
 3736TIP3   OH232698   5.278   4.105  11.244  0.2331  0.4123  0.6795
 3736TIP3    H132699   5.312   4.166  11.309  0.2716  0.7632  0.3272
 3736TIP3    H232700   5.241   4.033  11.296  0.7104  0.4540  1.0776
 3737TIP3   OH232701   3.608   4.515   6.119 -0.3286  0.3883 -0.0423
 3737TIP3    H132702   3.515   4.493   6.119 -0.3587  0.0477  3.0053
 3737TIP3    H232703   3.653   4.431   6.122  0.0380  0.5678 -0.4016
 3738TIP3   OH232704   3.225   5.674  16.745  0.0484  0.5736 -0.1798
 3738TIP3    H132705   3.178   5.755  16.766  1.1642  1.0917  0.4271
 3738TIP3    H232706   3.260   5.645  16.829  1.9363  0.9403 -0.8102
 3739TIP3   OH232707   4.444   4.800   2.189  0.2271 -0.1446 -0.3527
 3739TIP3    H132708   4.484   4.713   2.184 -0.0335 -0.3720  0.9877
 3739TIP3    H232709   4.518   4.860   2.187  0.5882 -0.5096  0.9618
 3740TIP3   OH232710   1.791   3.542   0.141  0.5685  0.1680 -0.4763
 3740TIP3    H132711   1.838   3.563   0.060 -0.7054 -0.5961 -1.4758
 3740TIP3    H232712   1.784   3.625   0.188  0.8615  0.7384 -1.4180
 3741TIP3   OH232713   0.086   4.069  12.586 -0.2661  0.0514 -0.0973
 3741TIP3    H132714   0.110   4.151  12.628  0.1266 -0.7655  1.3263
 3741TIP3    H232715   0.078   4.091  12.493 -0.4303  1.7379  0.2957
 3742TIP3   OH232716   1.348   6.211   1.387  0.1698  0.0489  0.3183
 3742TIP3    H132717   1.365   6.119   1.408 -0.0216 -0.3928 -1.2862
 3742TIP3    H232718   1.433   6.245   1.358 -0.0881 -0.1281 -0.7164
 3743TIP3   OH232719   2.393   1.586  12.918  0.2449  0.8929 -0.3958
 3743TIP3    H132720   2.486   1.603  12.927  0.2544  0.2837  1.0481
 3743TIP3    H232721   2.350   1.657  12.965 -0.0415  1.3688 -1.3622
 3744TIP3   OH232722   6.716   2.796   2.104  0.0882 -0.3632 -0.0857
 3744TIP3    H132723   6.658   2.767   2.034  0.6091 -1.2043 -0.1846
 3744TIP3    H232724   6.725   2.719   2.162 -0.0383  0.2015  0.7024
 3745TIP3   OH232725   3.936   0.286   1.189 -0.0490  0.0994  0.3861
 3745TIP3    H132726   3.989   0.337   1.127  2.1159 -0.9554  1.2426
 3745TIP3    H232727   3.855   0.336   1.198  0.7933  1.8437 -1.0045
 3746TIP3   OH232728   1.747   4.493  13.417 -0.4744  0.0215 -0.6065
 3746TIP3    H132729   1.737   4.527  13.328  0.3560 -0.5020 -0.9088
 3746TIP3    H232730   1.704   4.407  13.415 -0.6146  0.0876 -0.4531
 3747TIP3   OH232731   1.718   1.427   1.655  0.0372  0.0740  0.3648
 3747TIP3    H132732   1.657   1.474   1.598 -0.4036  0.6371  1.2808
 3747TIP3    H232733   1.775   1.380   1.594 -0.7868  0.1860 -0.5305
 3748TIP3   OH232734   3.546   2.133   5.128  0.2700 -0.2572 -0.3068
 3748TIP3    H132735   3.519   2.147   5.037 -0.0970  0.1779 -0.1361
 3748TIP3    H232736   3.473   2.167   5.179  0.4973 -0.4610  0.1534
 3749TIP3   OH232737   6.807   4.667   4.694  0.1775 -0.4315  0.6170
 3749TIP3    H132738   6.891   4.629   4.721 -0.0121 -0.7939  0.7014
 3749TIP3    H232739   6.823   4.761   4.691 -0.3714 -0.0715  4.2750
 3750TIP3   OH232740   1.306   5.542   1.966 -0.5171 -0.0288  0.1146
 3750TIP3    H132741   1.252   5.563   2.042 -0.3557  1.1837 -0.0771
 3750TIP3    H232742   1.375   5.486   2.000 -0.5921  0.2988  0.8201
 3751TIP3   OH232743   1.734   0.706  12.261  0.1500  0.4787 -0.7284
 3751TIP3    H132744   1.686   0.775  12.215  0.6677 -0.0134 -2.0629
 3751TIP3    H232745   1.675   0.630  12.259  0.4120  0.2830 -1.1204
 3752TIP3   OH232746   5.799   2.083  16.054  0.1836 -0.0601 -0.2267
 3752TIP3    H132747   5.761   2.058  16.139  0.5697  0.6722  0.1630
 3752TIP3    H232748   5.890   2.106  16.074  0.3061  0.0201 -0.8590
 3753TIP3   OH232749   6.783   4.048  12.317 -0.1398 -0.2174 -0.7538
 3753TIP3    H132750   6.695   4.081  12.338 -0.0038 -1.5864  2.6619
 3753TIP3    H232751   6.773   3.953  12.312  1.0869 -0.3677 -0.7021
 3754TIP3   OH232752   2.837   1.885  13.735 -1.0452  0.0018  0.9214
 3754TIP3    H132753   2.763   1.841  13.777 -0.5832 -1.4165  0.3336
 3754TIP3    H232754   2.816   1.978  13.738 -3.0542 -0.3926  0.3851
 3755TIP3   OH232755   2.112   3.323   2.969  0.0110  0.3575 -0.2980
 3755TIP3    H132756   2.127   3.415   2.992 -0.3049  0.6375 -1.1600
 3755TIP3    H232757   2.039   3.326   2.906  0.6492 -0.3879 -1.0954
 3756TIP3   OH232758   4.501   0.997  13.981  0.1940  0.0728 -0.3010
 3756TIP3    H132759   4.495   1.042  14.066  1.1880 -0.4210  0.0455
 3756TIP3    H232760   4.539   0.912  14.002 -0.6320 -0.5008 -1.1027
 3757TIP3   OH232761   4.222   3.320  12.475  0.0302  0.9194 -0.4578
 3757TIP3    H132762   4.240   3.228  12.494 -0.6830  1.0250  0.8433
 3757TIP3    H232763   4.167   3.349  12.548  0.5928  2.4853 -0.6156
 3758TIP3   OH232764   6.146   4.578   3.644  0.2643  0.2650 -0.0584
 3758TIP3    H132765   6.052   4.593   3.628  0.4696  0.3117 -1.3537
 3758TIP3    H232766   6.180   4.664   3.667 -0.0055  0.2578  0.3723
 3759TIP3   OH232767   6.537   6.406  11.692  0.2023 -0.4243 -0.3124
 3759TIP3    H132768   6.482   6.378  11.619  0.7064 -0.6240 -0.6202
 3759TIP3    H232769   6.510   6.348  11.764 -0.0852 -0.4292 -0.4192
 3760TIP3   OH232770   5.357   3.894  16.369 -0.2013  0.3030  0.7611
 3760TIP3    H132771   5.352   3.819  16.427  0.4593 -0.3064  0.0538
 3760TIP3    H232772   5.427   3.873  16.308 -0.7950  0.9664 -0.1856
 3761TIP3   OH232773   3.905   6.378   4.493 -0.1193 -0.0911  0.0724
 3761TIP3    H132774   3.931   6.468   4.475  0.1561 -0.0562  0.6275
 3761TIP3    H232775   3.985   6.327   4.480  0.3562  0.0556  2.0912
 3762TIP3   OH232776   3.057   4.508   3.266 -0.4517  0.3366  0.2429
 3762TIP3    H132777   3.123   4.516   3.197 -1.1098 -1.4622 -0.6560
 3762TIP3    H232778   3.108   4.507   3.347  0.7636 -1.6916 -0.4614
 3763TIP3   OH232779   4.937   3.364   2.686 -0.3648 -0.4384  0.0208
 3763TIP3    H132780   5.025   3.350   2.649  0.2646 -0.1209  1.3238
 3763TIP3    H232781   4.947   3.442   2.741 -1.5330 -0.2597 -0.0054
 3764TIP3   OH232782   1.723   1.068   1.733  0.1156  0.0497  0.4214
 3764TIP3    H132783   1.655   1.001   1.744  0.3650 -0.5956 -1.5760
 3764TIP3    H232784   1.691   1.123   1.661 -1.1077  3.4957  3.3264
 3765TIP3   OH232785   3.733   2.823   3.911 -0.2875  0.1009 -0.0270
 3765TIP3    H132786   3.699   2.754   3.854 -0.1491  0.5702 -0.6906
 3765TIP3    H232787   3.712   2.794   3.999  0.2056 -1.0342 -0.2617
 3766TIP3   OH232788   0.773   5.221   3.553 -0.5901  0.0881 -0.0774
 3766TIP3    H132789   0.865   5.201   3.572  0.1258  2.1766 -1.0616
 3766TIP3    H232790   0.750   5.292   3.613 -0.5816  1.6357 -1.8119
 3767TIP3   OH232791   4.065   1.493  10.682 -0.4744  0.2049 -0.6477
 3767TIP3    H132792   3.993   1.430  10.676 -0.4481  0.3104 -2.8545
 3767TIP3    H232793   4.024   1.578  10.666 -0.0736  0.4210 -0.5424
 3768TIP3   OH232794   2.991   0.613   3.317 -0.3583  0.1963 -0.4442
 3768TIP3    H132795   3.000   0.613   3.222  1.4569 -0.3602 -0.3053
 3768TIP3    H232796   2.991   0.521   3.342 -0.4126  0.3452  0.1370
 3769TIP3   OH232797   4.507   4.354  13.152  0.3481 -0.0038  0.0191
 3769TIP3    H132798   4.479   4.420  13.215 -2.3337 -0.7474 -0.2462
 3769TIP3    H232799   4.436   4.350  13.088  2.8946  0.6727 -3.1087
 3770TIP3   OH232800   1.624   1.085  15.277 -0.1810 -0.1393  0.2378
 3770TIP3    H132801   1.537   1.090  15.315 -0.7352  0.1019 -1.0214
 3770TIP3    H232802   1.629   1.160  15.217  1.0729  0.1423  0.6551
 3771TIP3   OH232803   3.247   6.696  11.903  0.0593  0.2464 -0.1430
 3771TIP3    H132804   3.259   6.789  11.923  2.4629  0.0022 -0.2130
 3771TIP3    H232805   3.248   6.653  11.989  1.6629  0.0617 -0.2214
 3772TIP3   OH232806   2.045   4.161   3.194 -0.1164 -0.2821  0.1186
 3772TIP3    H132807   1.975   4.101   3.171 -0.2225  0.2381 -0.9938
 3772TIP3    H232808   2.123   4.106   3.205 -0.4834 -0.7478  0.3914
 3773TIP3   OH232809   6.592   2.312   6.123  0.1247 -0.2115  0.4891
 3773TIP3    H132810   6.673   2.263   6.111 -0.5653 -0.8290 -2.4258
 3773TIP3    H232811   6.537   2.255   6.177  0.9266 -0.6468  0.8583
 3774TIP3   OH232812   2.061   1.620  15.850 -0.0833 -0.2060  0.5493
 3774TIP3    H132813   2.059   1.715  15.837  1.4261 -0.3281 -1.0489
 3774TIP3    H232814   1.969   1.594  15.853 -0.5390  1.1768 -0.2388
 3775TIP3   OH232815   6.524   6.000   1.040  0.3225 -0.2644  0.6000
 3775TIP3    H132816   6.582   6.075   1.055  0.3469 -0.4248  1.3444
 3775TIP3    H232817   6.514   5.996   0.945 -0.4188  1.2295  0.5987
 3776TIP3   OH232818   3.056   0.739   5.137  0.0204  1.0030 -0.5279
 3776TIP3    H132819   2.983   0.797   5.161 -1.8446 -0.6381 -1.9342
 3776TIP3    H232820   3.083   0.699   5.220 -0.1677  2.1695  0.1134
 3777TIP3   OH232821   2.818   4.474  16.427  0.3328  0.5262 -0.5523
 3777TIP3    H132822   2.850   4.496  16.515 -0.0202  3.2695 -1.0317
 3777TIP3    H232823   2.880   4.409  16.394 -0.1501 -1.4783  2.0803
 3778TIP3   OH232824   3.472   6.536   6.410  0.1002  0.6299  0.1458
 3778TIP3    H132825   3.535   6.474   6.446 -0.7512 -0.5702 -0.3620
 3778TIP3    H232826   3.479   6.526   6.315 -0.3366  1.0199  0.0675
 3779TIP3   OH232827   1.098   1.838  17.036  0.2267 -0.3516  0.6425
 3779TIP3    H132828   1.035   1.911  17.038  0.7361  0.1076  0.1844
 3779TIP3    H232829   1.148   1.848  17.117  2.3930  1.7266 -0.7865
 3780TIP3   OH232830   6.367   0.343  14.422  0.0419 -0.2310  0.3492
 3780TIP3    H132831   6.394   0.353  14.514 -2.2439  0.4096  1.0044
 3780TIP3    H232832   6.344   0.431  14.394  0.7108 -0.4250 -0.8698
 3781TIP3   OH232833   2.111   4.763  16.190  0.4923  0.1802  0.0192
 3781TIP3    H132834   2.144   4.807  16.111  0.3904  1.2101  0.5307
 3781TIP3    H232835   2.180   4.701  16.213  1.7394  1.6842  0.5701
 3782TIP3   OH232836   2.810   3.572   0.639 -0.6856 -0.1598  0.0619
 3782TIP3    H132837   2.765   3.556   0.556  0.4977 -1.8234 -0.3165
 3782TIP3    H232838   2.842   3.662   0.632 -1.0031 -0.1171 -1.0948
 3783TIP3   OH232839   1.410   2.839   2.052 -0.5703  0.4086  1.0076
 3783TIP3    H132840   1.474   2.838   2.123  1.9804 -1.0586 -1.1327
 3783TIP3    H232841   1.366   2.754   2.058  0.1134  0.0047  0.5041
 3784TIP3   OH232842   3.516   1.303   5.898 -0.2547 -0.2119  0.5510
 3784TIP3    H132843   3.521   1.326   5.991  1.4487 -0.2141  0.4890
 3784TIP3    H232844   3.485   1.383   5.855 -0.6932 -0.0978  1.0647
 3785TIP3   OH232845   1.557   4.771  16.232  0.1153 -0.3249 -0.2951
 3785TIP3    H132846   1.571   4.864  16.246 -0.8793 -0.3269  0.7999
 3785TIP3    H232847   1.608   4.728  16.301 -0.9106 -0.5146  0.3625
 3786TIP3   OH232848   3.650   0.659  11.070  0.8601 -0.2136  0.0373
 3786TIP3    H132849   3.738   0.642  11.038  0.4885 -0.3807 -0.9131
 3786TIP3    H232850   3.594   0.651  10.993 -0.0268 -0.4124  0.6866
 3787TIP3   OH232851   6.163   6.414  12.311 -0.0387  0.0334  0.0069
 3787TIP3    H132852   6.107   6.339  12.330 -0.5444  0.3582 -0.1631
 3787TIP3    H232853   6.127   6.450  12.230  1.2924 -0.5938 -0.9090
 3788TIP3   OH232854   4.774   3.166  12.623  0.6177 -0.1928 -0.6961
 3788TIP3    H132855   4.776   3.167  12.719  0.3589 -0.7762 -0.6819
 3788TIP3    H232856   4.718   3.239  12.600 -0.8257 -1.1514 -0.3401
 3789TIP3   OH232857   6.514   1.844  13.754 -0.1629 -0.6722  0.3272
 3789TIP3    H132858   6.523   1.915  13.818  0.1712  0.7023 -1.1900
 3789TIP3    H232859   6.420   1.833  13.744 -0.2471  0.3925 -0.2681
 3790TIP3   OH232860   2.407   3.529   4.368 -0.2670  0.3688  0.3297
 3790TIP3    H132861   2.311   3.538   4.368 -0.2466  0.6438  1.0009
 3790TIP3    H232862   2.422   3.434   4.375 -0.4852  0.2580 -0.6066
 3791TIP3   OH232863   1.720   5.244  12.880 -0.4887 -0.3800 -0.2140
 3791TIP3    H132864   1.713   5.192  12.800 -1.1705 -0.8707  0.1435
 3791TIP3    H232865   1.672   5.325  12.861  0.8179  0.2651 -0.8705
 3792TIP3   OH232866   2.686   1.103  14.667 -0.1397  0.0067 -0.6271
 3792TIP3    H132867   2.715   1.092  14.577 -0.9020  0.4803 -0.9373
 3792TIP3    H232868   2.673   1.198  14.677 -0.5081 -0.0870 -0.1673
 3793TIP3   OH232869   3.391   5.416  16.006  0.1800 -0.0620  0.4856
 3793TIP3    H132870   3.405   5.487  16.068 -1.0113 -0.0884  0.8131
 3793TIP3    H232871   3.423   5.338  16.050  0.6914  0.1400  0.4718
 3794TIP3   OH232872   5.816   6.452  10.490 -0.4314 -0.0887  0.6047
 3794TIP3    H132873   5.763   6.492  10.422 -0.5352 -2.1813 -0.6415
 3794TIP3    H232874   5.900   6.497  10.485 -0.4610 -0.1529 -0.8866
 3795TIP3   OH232875   4.425   3.566   5.739  0.4514  0.4187  0.0451
 3795TIP3    H132876   4.415   3.569   5.643  0.4239  2.1516  0.0837
 3795TIP3    H232877   4.441   3.473   5.757  0.9139  0.1098 -1.6841
 3796TIP3   OH232878   3.061   0.458   4.288  0.2813 -0.0219 -0.2136
 3796TIP3    H132879   2.988   0.482   4.345  0.0802 -0.0932 -0.4394
 3796TIP3    H232880   3.136   0.505   4.324 -0.0613  0.7765 -0.5121
 3797TIP3   OH232881   4.211   1.819  13.222  0.4780 -0.8145  0.4860
 3797TIP3    H132882   4.170   1.779  13.299 -1.4412  0.5421  0.2568
 3797TIP3    H232883   4.192   1.912  13.231  1.6808 -0.4239 -0.7919
 3798TIP3   OH232884   3.054   6.820  13.155 -0.2626  0.0347 -0.0670
 3798TIP3    H132885   3.090   6.908  13.168 -1.8508  0.5360  1.3674
 3798TIP3    H232886   3.129   6.766  13.131  0.8248  1.6861 -0.5389
 3799TIP3   OH232887   0.940   1.744   0.864 -0.4871 -0.1610  0.0667
 3799TIP3    H132888   0.935   1.787   0.779 -1.9384  0.2320  0.3237
 3799TIP3    H232889   0.880   1.794   0.920 -0.0552 -0.8062  1.1388
 3800TIP3   OH232890   5.157   6.258   3.762  0.1258  0.0439 -0.0810
 3800TIP3    H132891   5.197   6.344   3.760  2.8418 -1.1175 -0.4806
 3800TIP3    H232892   5.195   6.212   3.687 -3.7160 -0.5632 -1.8753
 3801TIP3   OH232893   4.126   1.930  11.727  0.6936 -0.1911 -0.0848
 3801TIP3    H132894   4.058   1.876  11.768  0.1518  0.0425 -0.6634
 3801TIP3    H232895   4.130   1.899  11.636  0.3012  0.8074 -0.4500
 3802TIP3   OH232896   3.150   0.647   1.024  0.2548  0.1628 -0.3358
 3802TIP3    H132897   3.233   0.607   1.051  0.7619  1.0155 -0.5811
 3802TIP3    H232898   3.163   0.667   0.931 -0.4566 -0.2505 -0.5254
 3803TIP3   OH232899   0.090   5.164   0.734 -0.6061  0.0422  0.1659
 3803TIP3    H132900   0.038   5.200   0.806 -1.8497  0.5426 -0.9494
 3803TIP3    H232901   0.160   5.115   0.777 -0.3256  1.7192  1.7236
 3804TIP3   OH232902   3.271   5.468  13.581 -0.1987 -0.0337  0.5763
 3804TIP3    H132903   3.339   5.505  13.525  0.0258 -1.7166 -0.3210
 3804TIP3    H232904   3.316   5.451  13.664 -0.1838  1.1768  0.8374
 3805TIP3   OH232905   1.874   3.143   0.958 -0.0121  0.0685 -0.1109
 3805TIP3    H132906   1.930   3.088   0.903  2.2836  1.7848  0.3299
 3805TIP3    H232907   1.835   3.083   1.021  1.6150 -1.2308 -0.2554
 3806TIP3   OH232908   5.345   6.650  11.989  0.2474 -0.0756 -0.3913
 3806TIP3    H132909   5.365   6.699  11.909  0.3991 -0.0633 -0.3462
 3806TIP3    H232910   5.273   6.697  12.029 -1.8400 -1.7097 -2.0196
 3807TIP3   OH232911   0.514   1.140  12.045  0.0710  0.2540  0.0986
 3807TIP3    H132912   0.470   1.223  12.026 -0.7350 -0.0216  0.7288
 3807TIP3    H232913   0.522   1.097  11.960  1.7718  1.5659 -0.4722
 3808TIP3   OH232914   3.151   1.321  14.997  0.4367 -0.2220 -0.3720
 3808TIP3    H132915   3.243   1.304  15.017  0.4376 -2.2119 -1.7404
 3808TIP3    H232916   3.104   1.304  15.079  1.3097  1.7549  0.6142
 3809TIP3   OH232917   3.523   4.683   2.993  0.1050  0.1979  0.1625
 3809TIP3    H132918   3.611   4.669   3.027  0.5747  0.6422 -0.8602
 3809TIP3    H232919   3.535   4.723   2.908 -1.1018  0.7879  0.2416
 3810TIP3   OH232920   0.080   5.202  12.508  0.1670  0.1581  0.2848
 3810TIP3    H132921  -0.010   5.229  12.528  0.1567 -0.9607  1.8813
 3810TIP3    H232922   0.118   5.180  12.592  2.0774  0.9212 -0.3374
 3811TIP3   OH232923   1.940   4.131  14.313 -0.0516  0.0976  0.6389
 3811TIP3    H132924   2.029   4.096  14.309 -0.3261 -0.6551  1.0484
 3811TIP3    H232925   1.950   4.224  14.291  0.7298 -0.1453 -0.0654
 3812TIP3   OH232926   5.482   4.276   4.461 -0.2610 -0.4047 -0.3522
 3812TIP3    H132927   5.527   4.212   4.517 -1.0436  0.3645  1.2324
 3812TIP3    H232928   5.451   4.225   4.387 -0.1272 -1.6995  0.4457
 3813TIP3   OH232929   3.779   4.557   2.294 -0.2425  0.0975  0.7051
 3813TIP3    H132930   3.689   4.526   2.281 -0.3941  0.9003 -0.2313
 3813TIP3    H232931   3.770   4.637   2.346  0.1423 -1.2472  2.9917
 3814TIP3   OH232932   6.381   2.088   5.970 -0.2220  0.5420  0.1652
 3814TIP3    H132933   6.388   2.118   6.061  0.2039  3.2097 -0.6575
 3814TIP3    H232934   6.295   2.046   5.966  0.9607 -2.4970  2.4664
 3815TIP3   OH232935   1.983   2.071  14.411  0.2128 -0.2661 -0.6352
 3815TIP3    H132936   2.065   2.116  14.391 -0.1878  1.0582  0.5304
 3815TIP3    H232937   1.930   2.084  14.332  0.1400  1.2954 -0.3660
 3816TIP3   OH232938   3.134   1.197   3.902  0.5516  0.3952  0.1998
 3816TIP3    H132939   3.082   1.118   3.888  1.1057  0.0384  0.1335
 3816TIP3    H232940   3.216   1.181   3.856  0.3685  1.3397 -0.4973
 3817TIP3   OH232941   3.277   4.586   6.126  0.9982 -0.3022  0.6446
 3817TIP3    H132942   3.190   4.548   6.114  1.0804  0.0940 -1.6602
 3817TIP3    H232943   3.260   4.670   6.168  0.6897 -1.9478  4.2282
 3818TIP3   OH232944   6.457   0.345   0.005  0.7625 -0.0954  0.0534
 3818TIP3    H132945   6.372   0.375  -0.026  0.5231 -0.4415  0.3712
 3818TIP3    H232946   6.497   0.302  -0.071  0.4953 -0.2633  0.0085
 3819TIP3   OH232947   3.430   1.885   4.885  0.1077 -0.2976  0.9407
 3819TIP3    H132948   3.432   1.825   4.810  0.3453  0.9558 -0.0929
 3819TIP3    H232949   3.515   1.875   4.927  0.3594 -0.2896  0.4373
 3820TIP3   OH232950   3.115   2.193   0.813 -0.0402 -0.1303 -0.1756
 3820TIP3    H132951   3.210   2.204   0.814 -0.0421 -0.1262  0.7362
 3820TIP3    H232952   3.086   2.244   0.738  0.4704  1.6757  0.8041
 3821TIP3   OH232953   4.939   2.433  16.013  0.0653  0.2040  0.0849
 3821TIP3    H132954   4.954   2.475  15.928  0.4911 -0.5734 -0.2385
 3821TIP3    H232955   5.010   2.369  16.020 -0.2848 -0.1126  0.7887
 3822TIP3   OH232956   0.793   2.735  12.260 -0.1063  0.6385  0.0285
 3822TIP3    H132957   0.880   2.767  12.283 -0.0381  0.7996 -0.4473
 3822TIP3    H232958   0.756   2.705  12.343  0.2459  0.9479  0.3021
 3823TIP3   OH232959   3.687   5.186   3.959  0.3999  0.0995 -0.1768
 3823TIP3    H132960   3.780   5.183   3.936  0.9592 -0.2612  1.9005
 3823TIP3    H232961   3.686   5.178   4.054 -1.7292  0.9879 -0.0682
 3824TIP3   OH232962   1.811   2.992  12.349 -0.4104 -0.3566  0.4743
 3824TIP3    H132963   1.901   2.963  12.364  0.1420  1.0149  0.0528
 3824TIP3    H232964   1.758   2.913  12.352  0.8721 -1.2368  0.3568
 3825TIP3   OH232965   0.170   0.400   3.747  0.0486  0.7895  0.0068
 3825TIP3    H132966   0.088   0.378   3.703 -1.1724  1.8094  1.6775
 3825TIP3    H232967   0.216   0.317   3.754 -0.0121  0.4577 -2.4874
 3826TIP3   OH232968   5.026   3.178   3.073 -0.2211 -0.0021 -0.3195
 3826TIP3    H132969   5.032   3.169   3.168 -0.9922  0.6263 -0.2002
 3826TIP3    H232970   5.114   3.161   3.041  0.1338  0.2000  0.5441
 3827TIP3   OH232971   4.759   0.798   5.333 -0.1237 -0.2494 -0.0109
 3827TIP3    H132972   4.852   0.781   5.344 -0.3022 -1.0467  0.3869
 3827TIP3    H232973   4.754   0.886   5.297  0.7404  0.2710  1.0734
 3828TIP3   OH232974   5.059   4.425   5.140 -0.2315 -0.0946 -0.2134
 3828TIP3    H132975   5.070   4.379   5.057  2.0281 -0.1107  0.0280
 3828TIP3    H232976   5.093   4.513   5.124  2.0218 -0.6464  1.1253
 3829TIP3   OH232977   0.521   0.819  12.416 -0.1016 -0.1796  0.0394
 3829TIP3    H132978   0.467   0.815  12.495  0.3575  0.4858  0.3975
 3829TIP3    H232979   0.465   0.860  12.351 -0.3211 -0.2818  0.1638
 3830TIP3   OH232980   2.938   0.513  13.426 -0.3873 -0.0658  0.2842
 3830TIP3    H132981   2.911   0.446  13.489  0.5536 -0.4184  0.3287
 3830TIP3    H232982   2.945   0.593  13.478 -1.0556 -0.0193  0.3217
 3831TIP3   OH232983   0.798   4.267   4.047 -0.4153 -0.6226 -0.1574
 3831TIP3    H132984   0.808   4.293   3.956  1.4407  0.7212  0.3682
 3831TIP3    H232985   0.747   4.186   4.044 -0.8215 -0.3370 -2.3290
 3832TIP3   OH232986   2.686   2.582  14.707  0.0106 -0.0403  0.7802
 3832TIP3    H132987   2.670   2.646  14.776 -1.5918  0.2185  0.2251
 3832TIP3    H232988   2.613   2.519  14.716 -0.1888 -0.0326 -0.6118
 3833TIP3   OH232989   4.380   2.978  16.652  0.3634  0.4857 -0.0868
 3833TIP3    H132990   4.424   3.049  16.605  1.0074  0.1950  0.0725
 3833TIP3    H232991   4.386   2.903  16.594 -1.1486  0.7803 -0.6696
 3834TIP3   OH232992   5.721   5.516  12.044 -0.1292  0.4242 -0.3041
 3834TIP3    H132993   5.650   5.513  12.108 -1.2590 -1.9986 -1.5522
 3834TIP3    H232994   5.800   5.500  12.096 -1.0418 -1.7417  0.5135
 3835TIP3   OH232995   3.703   4.733   5.978 -0.0663 -0.3848 -0.4341
 3835TIP3    H132996   3.619   4.716   6.021 -0.6669  0.7555 -1.1093
 3835TIP3    H232997   3.760   4.661   6.007 -0.6274 -0.0454  1.7298
 3836TIP3   OH232998   6.626   0.426   4.718  0.4263 -0.2271 -0.2769
 3836TIP3    H132999   6.634   0.331   4.720  1.2689 -0.1708 -0.2338
 3836TIP3    H233000   6.706   0.457   4.761 -0.9471  0.4787  1.9540
 3837TIP3   OH233001   4.492   6.112  16.021 -0.0777 -0.5651 -0.3144
 3837TIP3    H133002   4.506   6.025  15.983 -0.5392 -0.7936  0.0331
 3837TIP3    H233003   4.566   6.164  15.988  0.0429 -1.0052 -0.7619
 3838TIP3   OH233004   1.306   0.683   4.115  0.6603  0.0785  0.3328
 3838TIP3    H133005   1.241   0.677   4.186  0.8177 -0.5179  0.4349
 3838TIP3    H233006   1.364   0.608   4.130 -0.1423 -0.9280 -1.2436
 3839TIP3   OH233007   0.460   1.942   0.953  0.2902 -0.6688 -0.5398
 3839TIP3    H133008   0.414   1.993   1.019  0.9355 -0.1308 -0.4965
 3839TIP3    H233009   0.412   1.859   0.949 -0.2903 -0.3632 -0.0445
 3840TIP3   OH233010   0.690   5.964   2.135  0.2553 -0.4484  0.0529
 3840TIP3    H133011   0.729   6.023   2.200  0.4478 -0.2303 -0.2611
 3840TIP3    H233012   0.679   6.018   2.057 -1.0069 -0.4082  0.2461
 3841TIP3   OH233013   4.415   4.969  11.946  0.3801 -0.4673  0.1588
 3841TIP3    H133014   4.504   4.989  11.917 -0.5954  2.4740 -1.2232
 3841TIP3    H233015   4.409   5.009  12.033  0.0110  0.6105 -0.3522
 3842TIP3   OH233016   1.012   5.021   0.179 -0.0018  0.0686 -0.1512
 3842TIP3    H133017   0.991   4.946   0.124  2.0358 -1.5114  1.0597
 3842TIP3    H233018   1.053   4.983   0.257 -0.5105  2.3561  1.3474
 3843TIP3   OH233019   6.734   4.743  15.813 -0.5639  0.7090  0.0701
 3843TIP3    H133020   6.801   4.676  15.819  0.8002  2.0441  0.2657
 3843TIP3    H233021   6.669   4.706  15.754  0.2169 -0.7187  0.0676
 3844TIP3   OH233022   5.330   3.448  11.178 -0.1873 -0.2764 -0.0692
 3844TIP3    H133023   5.374   3.479  11.098 -0.4186 -0.4303 -0.2588
 3844TIP3    H233024   5.400   3.412  11.232 -0.1997 -1.4372 -0.7954
 3845TIP3   OH233025   6.301   3.544  17.174  0.3500 -0.6069  0.0747
 3845TIP3    H133026   6.314   3.469  17.115 -0.1588 -1.5441  1.1240
 3845TIP3    H233027   6.285   3.504  17.260  1.3575  0.7346  0.9211
 3846TIP3   OH233028   5.005   3.860   2.953 -0.3104  0.0221  0.1138
 3846TIP3    H133029   4.989   3.815   3.036  2.6577  0.3991  0.9838
 3846TIP3    H233030   5.021   3.951   2.977  1.0263  0.0588 -0.8050
 3847TIP3   OH233031   1.136   4.718   3.051 -0.1000  0.0444  0.2764
 3847TIP3    H133032   1.198   4.785   3.022 -1.8789  0.6260 -2.5598
 3847TIP3    H233033   1.052   4.747   3.017 -0.8798 -3.9982 -1.8449
 3848TIP3   OH233034   1.818   4.388   3.546  0.0208  0.8006 -0.2162
 3848TIP3    H133035   1.731   4.380   3.585  0.5028  3.2753  1.6281
 3848TIP3    H233036   1.878   4.394   3.621  1.7139 -0.0496 -1.4289
 3849TIP3   OH233037   3.730   0.643   5.809 -0.1060  0.2841  0.2272
 3849TIP3    H133038   3.668   0.714   5.793 -0.6174  1.3887  5.3795
 3849TIP3    H233039   3.816   0.685   5.801 -0.1760  0.2177 -1.2031
 3850TIP3   OH233040   4.840   5.038  11.041 -0.0639  0.1577 -0.0259
 3850TIP3    H133041   4.919   5.029  11.094  0.2502  0.1136 -0.4946
 3850TIP3    H233042   4.768   5.019  11.101  0.2355  0.9299  0.5886
 3851TIP3   OH233043   1.500   4.241  11.158  0.6767 -0.2250 -0.5188
 3851TIP3    H133044   1.493   4.166  11.217 -0.9601 -0.8483 -1.4386
 3851TIP3    H233045   1.417   4.242  11.110  0.9028  1.8192 -0.9753
 3852TIP3   OH233046   1.599   6.778   5.820  0.2930 -0.2626  0.0342
 3852TIP3    H133047   1.584   6.724   5.742 -0.5816 -0.2111  0.1559
 3852TIP3    H233048   1.571   6.723   5.893  0.7586 -0.1728  0.2847
 3853TIP3   OH233049   1.944   1.273   2.282 -0.4259 -0.2067 -0.1457
 3853TIP3    H133050   1.979   1.356   2.312  0.9460 -0.5079 -0.8248
 3853TIP3    H233051   1.970   1.267   2.190 -1.9486 -0.6447 -0.5902
 3854TIP3   OH233052   0.131   2.825   1.781  0.3801  0.5055  0.3095
 3854TIP3    H133053   0.205   2.884   1.768 -0.6765  1.7860 -0.0941
 3854TIP3    H233054   0.054   2.877   1.757 -0.5054 -1.4558 -1.4868
 3855TIP3   OH233055   5.861   4.832  14.937 -0.1484 -0.4130  0.4813
 3855TIP3    H133056   5.873   4.775  15.013  2.8411 -1.0043 -0.2919
 3855TIP3    H233057   5.887   4.919  14.968 -0.8580 -0.2469  0.6261
 3856TIP3   OH233058   4.939   0.255   5.525 -0.0298  0.0284 -0.3266
 3856TIP3    H133059   5.001   0.198   5.572 -2.6518 -1.9205  1.0287
 3856TIP3    H233060   4.976   0.263   5.437  0.7931 -3.3951 -0.4239
 3857TIP3   OH233061   1.750   0.681   1.643  0.2688  0.0989  0.4011
 3857TIP3    H133062   1.703   0.757   1.608  2.7344  0.7651 -1.7091
 3857TIP3    H233063   1.784   0.711   1.727 -0.4126  0.6244  0.5018
 3858TIP3   OH233064   0.674   5.299   0.470 -0.0466  0.0329 -0.0430
 3858TIP3    H133065   0.713   5.379   0.507 -0.3295  0.4763 -0.6886
 3858TIP3    H233066   0.740   5.231   0.484  0.7740  0.6797 -0.7294
 3859TIP3   OH233067   4.346   5.259  13.045 -0.4348 -0.4367 -0.2605
 3859TIP3    H133068   4.410   5.255  12.973  0.0545 -1.2034  0.2100
 3859TIP3    H233069   4.341   5.352  13.066 -0.6682 -0.1798 -1.3541
 3860TIP3   OH233070   5.585   2.792   5.743 -0.5776  0.1456  0.0784
 3860TIP3    H133071   5.592   2.835   5.658  1.8403 -1.4643 -0.6370
 3860TIP3    H233072   5.636   2.848   5.802 -2.5164  1.4381  0.6655
 3861TIP3   OH233073   6.712   6.208   2.894 -0.0485 -0.4698 -0.3150
 3861TIP3    H133074   6.623   6.210   2.859  0.0491  0.9859 -0.5544
 3861TIP3    H233075   6.706   6.252   2.979  0.8711  2.2951 -1.5500
 3862TIP3   OH233076   6.554   6.628  14.845 -0.5832  0.0228  0.1630
 3862TIP3    H133077   6.554   6.686  14.921 -1.7382  0.7741 -0.3917
 3862TIP3    H233078   6.647   6.608  14.831 -0.2857  0.5219  1.2648
 3863TIP3   OH233079   3.309   1.209  12.909 -0.7736  0.2947 -0.0480
 3863TIP3    H133080   3.270   1.130  12.947  0.8448  0.1774  1.5446
 3863TIP3    H233081   3.284   1.279  12.969 -0.6448  0.6422 -0.4010
 3864TIP3   OH233082   1.822   2.936  16.653 -0.1912  0.7032  0.0068
 3864TIP3    H133083   1.910   2.898  16.655 -0.0693  0.9898  1.3236
 3864TIP3    H233084   1.771   2.881  16.712 -0.4732  1.4855  0.5143
 3865TIP3   OH233085   5.813   6.279   4.285  0.1216 -0.7418 -0.5422
 3865TIP3    H133086   5.718   6.284   4.282  0.0692 -1.6224 -0.6199
 3865TIP3    H233087   5.831   6.206   4.344  0.8071  1.3428  2.0649
 3866TIP3   OH233088   1.941   0.789   0.017 -0.2803  0.0263 -0.4198
 3866TIP3    H133089   2.009   0.763  -0.045 -0.4423  0.5265 -0.8117
 3866TIP3    H233090   1.974   0.869   0.058  0.9097 -1.5478  1.8973
 3867TIP3   OH233091   5.515   3.721  11.870 -0.1263  0.7220  0.3222
 3867TIP3    H133092   5.475   3.653  11.816  1.6802  0.9440 -1.4220
 3867TIP3    H233093   5.489   3.699  11.959 -0.6114 -1.5408 -0.3071
 3868TIP3   OH233094   2.672   2.491  16.541 -0.0138 -0.2667 -0.0112
 3868TIP3    H133095   2.734   2.423  16.569  1.0469 -0.3371 -2.2804
 3868TIP3    H233096   2.594   2.443  16.513  0.8414 -0.6668 -1.8843
 3869TIP3   OH233097   1.779   2.167  13.904 -0.0605  0.2865  0.4120
 3869TIP3    H133098   1.844   2.197  13.841 -1.5127 -0.7130 -1.7051
 3869TIP3    H233099   1.814   2.084  13.937  1.1537  1.2811  1.7016
 3870TIP3   OH233100   5.915   3.992  10.799 -0.5072  0.0076 -0.5888
 3870TIP3    H133101   6.005   4.026  10.796 -0.7417  0.7427  0.3209
 3870TIP3    H233102   5.862   4.065  10.831 -1.6277 -0.0718 -2.1492
 3871TIP3   OH233103   4.293   6.514   1.787 -0.0729  0.2348 -0.2417
 3871TIP3    H133104   4.348   6.578   1.833 -0.1882  1.5575 -1.8456
 3871TIP3    H233105   4.221   6.566   1.752 -0.5060 -0.8968 -1.0773
 3872TIP3   OH233106   3.563   0.799  14.122 -0.0735 -0.0548 -0.0672
 3872TIP3    H133107   3.632   0.758  14.070  0.1138 -0.5573  0.5760
 3872TIP3    H233108   3.499   0.829  14.057  0.5202  0.0024 -0.6363
 3873TIP3   OH233109   3.159   1.372  11.552 -0.0526  0.0170 -0.2116
 3873TIP3    H133110   3.113   1.288  11.553  0.5705 -0.3879 -2.0401
 3873TIP3    H233111   3.094   1.435  11.522  0.2157 -0.3332 -1.5768
 3874TIP3   OH233112   3.404   4.495   0.366  0.3258  0.6859  0.0523
 3874TIP3    H133113   3.379   4.563   0.304 -1.2801 -0.1373 -0.2630
 3874TIP3    H233114   3.431   4.421   0.311  0.1946  0.4168  0.3421
 3875TIP3   OH233115   5.342   2.343  16.711  0.1513 -0.0665 -0.3394
 3875TIP3    H133116   5.347   2.438  16.701 -0.5975 -0.0074 -0.2420
 3875TIP3    H233117   5.288   2.315  16.637 -0.2343 -0.3263  0.0347
 3876TIP3   OH233118   6.044   0.498  11.602 -0.3144 -0.2274  0.0354
 3876TIP3    H133119   5.974   0.547  11.646 -0.5179 -0.7634  0.3184
 3876TIP3    H233120   6.113   0.490  11.668 -1.1936 -2.2783  0.7872
 3877TIP3   OH233121   4.955   3.894   1.894  0.8280 -0.3347  0.1949
 3877TIP3    H133122   4.957   3.932   1.806 -1.1452 -0.4297  0.0576
 3877TIP3    H233123   5.025   3.828   1.894  1.8845  0.7549 -0.7589
 3878TIP3   OH233124   0.251   5.853   6.967  0.2183  0.3929 -0.4318
 3878TIP3    H133125   0.330   5.849   7.021 -0.9524  0.5326  1.4022
 3878TIP3    H233126   0.264   5.787   6.899  0.8355 -1.4670  1.3883
 3879TIP3   OH233127   0.776   6.356  10.786 -0.3768 -0.0719 -0.4701
 3879TIP3    H133128   0.781   6.399  10.701 -0.5943 -0.8405 -0.8845
 3879TIP3    H233129   0.846   6.290  10.783 -0.4593 -0.1808 -0.0939
 3880TIP3   OH233130   5.525   5.394  14.073  0.8005  0.0236  0.4199
 3880TIP3    H133131   5.457   5.336  14.037  0.9526 -0.6583  1.2011
 3880TIP3    H233132   5.605   5.368  14.028  0.9521 -0.6902  1.0764
 3881TIP3   OH233133   4.926   6.074   3.150  0.1838 -0.2216  0.0794
 3881TIP3    H133134   4.949   6.059   3.242  0.9769 -0.4617 -0.1509
 3881TIP3    H233135   4.917   6.169   3.143 -0.3439 -0.2395  0.5116
 3882TIP3   OH233136   6.496   6.279  11.941  0.3677 -0.1551  0.2027
 3882TIP3    H133137   6.458   6.318  12.019  0.7664 -2.7295  1.8168
 3882TIP3    H233138   6.531   6.195  11.971  1.7525 -0.6566 -2.4853
 3883TIP3   OH233139   2.382   1.381   5.287  0.1062 -0.0627 -0.0339
 3883TIP3    H133140   2.300   1.333   5.301  1.2610 -2.0534  0.1701
 3883TIP3    H233141   2.430   1.371   5.369  1.1133 -0.0409 -0.6100
 3884TIP3   OH233142   4.523   2.711  11.666 -0.0661 -0.4210  0.1698
 3884TIP3    H133143   4.547   2.713  11.759 -1.0428  2.1028  0.4463
 3884TIP3    H233144   4.601   2.679  11.622  0.2771 -2.1037  1.8583
 3885TIP3   OH233145   0.743   5.106  15.800  0.1305  0.3792 -0.0624
 3885TIP3    H133146   0.748   5.028  15.744 -1.4006 -0.4673  0.8766
 3885TIP3    H233147   0.669   5.155  15.765 -0.9372 -0.2308  1.2283
 3886TIP3   OH233148   2.337   2.796   2.715 -0.1443 -0.1889 -0.0413
 3886TIP3    H133149   2.251   2.755   2.716 -1.4942  2.4497  1.0074
 3886TIP3    H233150   2.367   2.792   2.806  0.2780  0.0199 -0.1667
 3887TIP3   OH233151   3.685   3.080  11.425 -0.4674 -0.4765 -0.0249
 3887TIP3    H133152   3.720   3.144  11.487  1.5589 -1.8166  0.3392
 3887TIP3    H233153   3.662   3.004  11.478 -0.0690 -1.1099 -0.7229
 3888TIP3   OH233154   5.571   5.323  10.762  0.2008 -0.1860  0.5666
 3888TIP3    H133155   5.647   5.379  10.780 -1.2736  2.3535 -0.4886
 3888TIP3    H233156   5.571   5.312  10.667 -1.6149  1.3372  0.3246
 3889TIP3   OH233157   1.497   3.265   2.016  0.7253  0.1652  0.0310
 3889TIP3    H133158   1.471   3.189   1.963  0.4601 -0.1826  0.6469
 3889TIP3    H233159   1.495   3.233   2.106  2.8197  0.2721  0.1654
 3890TIP3   OH233160   0.899   4.467   2.646 -0.1709 -0.3747  0.2676
 3890TIP3    H133161   0.970   4.406   2.626  0.3540  0.3772 -0.2162
 3890TIP3    H233162   0.825   4.434   2.594  0.6981  0.5634 -1.6827
 3891TIP3   OH233163   4.904   3.215  15.495  0.0310 -0.0539 -0.1459
 3891TIP3    H133164   4.905   3.122  15.517 -1.6176 -0.0249  0.1936
 3891TIP3    H233165   4.845   3.222  15.420 -1.3550  0.8986  0.9705
 3892TIP3   OH233166   3.612   2.921  16.059 -0.1555  0.3779  0.0485
 3892TIP3    H133167   3.519   2.896  16.056 -0.0397 -0.2740  1.1909
 3892TIP3    H233168   3.618   2.981  16.134 -0.1475  2.7440 -1.7315
 3893TIP3   OH233169   1.798   4.594   5.238  0.6196 -0.3011 -0.5375
 3893TIP3    H133170   1.706   4.618   5.255  1.0287  1.5660 -0.6713
 3893TIP3    H233171   1.793   4.522   5.176 -0.7616 -1.1685  0.5088
 3894TIP3   OH233172   5.103   4.470   0.169 -0.1935 -0.7892  0.0421
 3894TIP3    H133173   5.193   4.463   0.140  0.1914  0.8992  0.6680
 3894TIP3    H233174   5.109   4.512   0.256 -1.6295  2.3750 -1.2166
 3895TIP3   OH233175   2.295   0.403  11.841  0.3011 -0.3758 -0.1699
 3895TIP3    H133176   2.357   0.399  11.769  1.0271 -3.9519  0.4436
 3895TIP3    H233177   2.237   0.328  11.828 -1.3532  0.5159  1.4571
 3896TIP3   OH233178   1.872   2.135   6.608  0.2725  0.0499 -0.4175
 3896TIP3    H133179   1.886   2.218   6.563 -0.7837  0.4887  0.0359
 3896TIP3    H233180   1.813   2.087   6.551  0.0927  0.0120 -0.1963
 3897TIP3   OH233181   4.063   5.480   4.468  0.4001 -0.0123 -0.5354
 3897TIP3    H133182   4.156   5.498   4.478  0.5240 -1.0037  0.2413
 3897TIP3    H233183   4.047   5.404   4.524 -0.7960 -0.0952 -0.9613
 3898TIP3   OH233184   6.539   0.616  13.952 -0.2319 -0.4841 -0.4072
 3898TIP3    H133185   6.541   0.677  13.878  0.3265 -1.1806 -0.9813
 3898TIP3    H233186   6.458   0.566  13.941 -1.8086  1.5405  1.2459
 3899TIP3   OH233187   6.147   0.185  16.375 -0.1974  0.1415  0.0055
 3899TIP3    H133188   6.214   0.125  16.407  0.9813  0.8331 -1.0742
 3899TIP3    H233189   6.160   0.265  16.426 -0.9397 -0.0885  0.5640
 3900TIP3   OH233190   5.388   0.896   5.651  0.0440  0.0114 -0.3950
 3900TIP3    H133191   5.405   0.912   5.744 -0.1891  0.6531 -0.4572
 3900TIP3    H233192   5.435   0.815   5.632  1.0150  0.4504  0.0211
 3901TIP3   OH233193   0.681   5.518  14.297 -0.4282  0.0281 -0.0195
 3901TIP3    H133194   0.681   5.505  14.202 -0.9243  0.1999 -0.0469
 3901TIP3    H233195   0.704   5.610  14.309 -0.3465  0.0016  0.0251
 3902TIP3   OH233196   5.866   3.777  13.671 -0.4520 -0.1305  0.0549
 3902TIP3    H133197   5.959   3.798  13.662 -0.5269  0.5737  0.7594
 3902TIP3    H233198   5.834   3.840  13.736 -1.5779  0.1094 -0.7095
 3903TIP3   OH233199   5.198   0.443  15.746 -0.1146  0.7246 -0.0827
 3903TIP3    H133200   5.229   0.510  15.806  0.1279  0.9438 -0.4471
 3903TIP3    H233201   5.171   0.491  15.668 -0.6236  0.4615 -0.0758
 3904TIP3   OH233202   0.934   5.226   2.171 -0.0077  0.6006  0.3251
 3904TIP3    H133203   0.909   5.318   2.180  1.1226  0.9285  0.2854
 3904TIP3    H233204   0.887   5.195   2.093  0.3402  1.4085 -0.2147
 3905TIP3   OH233205   2.547   0.191   1.976  0.1554  0.1565 -0.2674
 3905TIP3    H133206   2.490   0.114   1.973  0.5078 -0.1494  0.6267
 3905TIP3    H233207   2.518   0.240   2.053  0.5444  0.4351 -0.2941
 3906TIP3   OH233208   0.590   6.442   6.615  0.1057  0.0746 -0.6836
 3906TIP3    H133209   0.519   6.483   6.566 -0.5499  0.1244  0.2941
 3906TIP3    H233210   0.601   6.496   6.692  0.3752 -0.6289 -0.2183
 3907TIP3   OH233211   6.223   4.606   2.591 -0.2303 -0.4130 -0.1916
 3907TIP3    H133212   6.184   4.574   2.673  0.5636 -1.5948 -0.2388
 3907TIP3    H233213   6.315   4.579   2.597 -0.0523 -0.0786 -1.2587
 3908TIP3   OH233214   0.241   1.026  16.138 -0.3610  0.4589  0.1564
 3908TIP3    H133215   0.231   1.082  16.061  0.1461  0.5175  0.1285
 3908TIP3    H233216   0.289   1.079  16.201 -0.7945  0.4199  0.5304
 3909TIP3   OH233217   5.395   0.411  12.811  0.0042 -0.1126 -0.3827
 3909TIP3    H133218   5.333   0.341  12.790 -0.3572  0.1982 -0.3674
 3909TIP3    H233219   5.470   0.366  12.849 -1.2485 -0.3349  2.0682
 3910TIP3   OH233220   0.461   2.561  12.967  0.0621 -0.1513  0.2085
 3910TIP3    H133221   0.387   2.528  12.916  0.6822 -0.5793 -0.4345
 3910TIP3    H233222   0.508   2.618  12.907  0.2789  0.0902  0.6000
 3911TIP3   OH233223   2.283   1.352  11.118  0.2094  0.3882 -0.3680
 3911TIP3    H133224   2.324   1.435  11.146  1.6709 -0.9941  1.9779
 3911TIP3    H233225   2.353   1.287  11.128 -2.0561 -1.8590  2.2634
 3912TIP3   OH233226   1.188   3.560  14.820 -0.1558 -0.2338  0.0968
 3912TIP3    H133227   1.244   3.623  14.775  0.0241 -0.2534  0.2920
 3912TIP3    H233228   1.237   3.478  14.816 -0.1671 -0.2498  0.2735
 3913TIP3   OH233229   3.180   5.163   3.526  0.3343 -0.0382  0.0332
 3913TIP3    H133230   3.200   5.161   3.620 -1.6453  0.0492  0.5069
 3913TIP3    H233231   3.238   5.231   3.491 -1.5196  2.8112  1.9611
 3914TIP3   OH233232   0.681   5.618   4.526  0.0517  0.2312 -0.0286
 3914TIP3    H133233   0.728   5.596   4.607 -1.5947  0.4842  1.0400
 3914TIP3    H233234   0.703   5.710   4.511 -0.0390  0.3248  0.4084
 3915TIP3   OH233235   4.243   1.335   2.341 -0.2008 -0.5303  0.2986
 3915TIP3    H133236   4.282   1.422   2.337  0.7467 -0.8823  1.2191
 3915TIP3    H233237   4.313   1.279   2.376  0.0557 -2.1512 -2.4660
 3916TIP3   OH233238   3.282   0.080   5.197  0.0961  0.4341  0.0594
 3916TIP3    H133239   3.231   0.025   5.137  1.6507 -0.0462 -0.8635
 3916TIP3    H233240   3.316   0.020   5.263 -2.7376  1.1385  2.3748
 3917TIP3   OH233241   3.894   3.816   4.827  0.1677 -0.1060  0.0248
 3917TIP3    H133242   3.801   3.839   4.821  0.5434  1.4772 -0.0615
 3917TIP3    H233243   3.935   3.890   4.871  1.4866 -0.5518 -0.3939
 3918TIP3   OH233244   5.904   1.124  11.224  0.3324  0.2347  0.3299
 3918TIP3    H133245   5.938   1.095  11.139  0.5595  0.9011  0.1828
 3918TIP3    H233246   5.945   1.210  11.237 -0.4934  0.5833  0.6386
 3919TIP3   OH233247   2.740   3.865  13.130 -0.6186  0.5968 -0.4214
 3919TIP3    H133248   2.747   3.920  13.208 -0.7670  1.8566 -1.2736
 3919TIP3    H233249   2.664   3.809  13.147 -0.8033  1.0377  0.2391
 3920TIP3   OH233250   3.915   3.098  12.282 -0.9991 -0.4847  0.2206
 3920TIP3    H133251   3.888   3.188  12.302 -1.2895 -0.6064  0.3733
 3920TIP3    H233252   3.905   3.051  12.364 -0.0151 -0.4596  0.3616
 3921TIP3   OH233253   0.681   5.616  13.480 -0.0944 -0.2587  0.0187
 3921TIP3    H133254   0.770   5.642  13.503  0.6950 -2.6149 -0.1246
 3921TIP3    H233255   0.690   5.575  13.394 -1.3979 -0.2129 -0.1586
 3922TIP3   OH233256   0.517   1.613  11.114 -0.6219 -0.7049 -0.1395
 3922TIP3    H133257   0.588   1.587  11.173 -1.3773 -4.0436 -0.4898
 3922TIP3    H233258   0.555   1.683  11.060  0.9859  0.4681  2.3446
 3923TIP3   OH233259   3.907   3.888   2.118  0.7166 -0.2291  0.5800
 3923TIP3    H133260   3.991   3.927   2.095  0.0286  2.2580  1.9309
 3923TIP3    H233261   3.852   3.901   2.040  1.0330 -0.1209  0.3762
 3924TIP3   OH233262   0.507   6.204  14.112 -0.2770 -0.0769 -0.5982
 3924TIP3    H133263   0.447   6.199  14.187  0.9827  1.3736  0.5734
 3924TIP3    H233264   0.494   6.292  14.077  2.2494  0.8951  0.6938
 3925TIP3   OH233265   0.565   4.471   0.954 -0.1087 -0.1992 -0.1743
 3925TIP3    H133266   0.497   4.502   0.895 -0.2279  1.6910  0.8769
 3925TIP3    H233267   0.544   4.511   1.038  1.4337 -0.8501  0.5628
 3926TIP3   OH233268   0.109   0.401   6.144  0.2029  0.1630 -0.2180
 3926TIP3    H133269   0.141   0.462   6.077 -0.5013  2.2568  1.2327
 3926TIP3    H233270   0.187   0.383   6.198  0.2388  0.4636 -0.1664
 3927TIP3   OH233271   4.517   3.699  11.454 -0.1427  0.2326  0.1603
 3927TIP3    H133272   4.497   3.641  11.381 -1.5008 -0.9861  1.4374
 3927TIP3    H233273   4.439   3.696  11.510  0.6810  1.4572  1.4545
 3928TIP3   OH233274   3.734   0.609   2.717  0.0490 -0.1645  0.4016
 3928TIP3    H133275   3.688   0.684   2.679  1.2203  0.2257 -0.2753
 3928TIP3    H233276   3.664   0.556   2.756 -0.9513  0.5429 -0.3671
 3929TIP3   OH233277   4.224   1.386   1.165  0.0061  0.5722  0.3073
 3929TIP3    H133278   4.195   1.401   1.075 -1.5522 -1.6018  0.3477
 3929TIP3    H233279   4.301   1.330   1.156  0.8969  1.7527  0.3325
 3930TIP3   OH233280   0.172   4.625  14.497  0.0738  0.5689 -0.0636
 3930TIP3    H133281   0.091   4.582  14.524  1.5934 -2.1226  0.5713
 3930TIP3    H233282   0.242   4.574  14.540  2.0904  3.7683  0.8158
 3931TIP3   OH233283   0.164   4.634   0.984  0.5911  0.3989  0.0564
 3931TIP3    H133284   0.106   4.562   1.009  0.2130  0.4934 -0.5182
 3931TIP3    H233285   0.133   4.660   0.897  0.1765  1.7953  0.5939
 3932TIP3   OH233286   5.307   3.496   0.655  0.1074  0.0441  0.0735
 3932TIP3    H133287   5.317   3.415   0.705  0.6627 -0.6712 -1.1527
 3932TIP3    H233288   5.214   3.498   0.631  0.0225 -0.0594  0.3893
 3933TIP3   OH233289   3.370   3.325  12.746  0.3082 -0.3399  0.0657
 3933TIP3    H133290   3.415   3.357  12.668 -0.8136 -0.3172 -0.5934
 3933TIP3    H233291   3.388   3.231  12.748  1.0542 -0.2022  0.2812
 3934TIP3   OH233292   6.671   6.175  17.018 -0.6722 -0.3682  0.3985
 3934TIP3    H133293   6.639   6.084  17.020  2.1214 -1.5360 -1.4731
 3934TIP3    H233294   6.727   6.182  17.096 -1.7387  0.1789  1.1489
 3935TIP3   OH233295   6.317   0.168   0.937  0.6256 -0.3217  0.5244
 3935TIP3    H133296   6.335   0.257   0.905 -0.4970 -0.6876 -1.2781
 3935TIP3    H233297   6.270   0.181   1.019 -0.8506  0.8142 -0.4540
 3936TIP3   OH233298   2.088   0.930   0.794  0.2960 -0.5863 -0.3244
 3936TIP3    H133299   2.170   0.898   0.832  0.5952  1.6754  1.0620
 3936TIP3    H233300   2.020   0.891   0.848  0.6830  1.6403  1.8998
 3937TIP3   OH233301   4.745   4.216   4.880  0.0097 -0.1649  0.1487
 3937TIP3    H133302   4.790   4.189   4.960  1.3200  2.0881  0.2701
 3937TIP3    H233303   4.757   4.143   4.819  1.8665 -0.5915  0.9562
 3938TIP3   OH233304   0.538   0.197  12.917  0.8216  0.2182  0.4202
 3938TIP3    H133305   0.580   0.258  12.976 -0.8495  1.0422  0.8343
 3938TIP3    H233306   0.541   0.240  12.831  0.9768  0.1957  0.4149
 3939TIP3   OH233307   2.014   4.994   0.716 -0.1347  0.6578  0.5249
 3939TIP3    H133308   1.974   4.936   0.780 -2.1097  0.0005 -1.1916
 3939TIP3    H233309   1.943   5.052   0.689  0.2619  0.0973 -1.9209
 3940TIP3   OH233310   6.085   4.332   6.262 -0.7521  0.3561  0.0499
 3940TIP3    H133311   5.993   4.321   6.282 -0.6916 -0.1806  0.0424
 3940TIP3    H233312   6.089   4.334   6.166 -0.8079  0.8638  0.0555
 3941TIP3   OH233313   3.988   1.209  13.838  0.4376  0.5290  0.7378
 3941TIP3    H133314   4.063   1.151  13.851  0.1275 -0.3145 -1.0035
 3941TIP3    H233315   3.954   1.186  13.752 -1.9888  0.7143  1.5676
 3942TIP3   OH233316   0.388   6.777  14.591  0.2411 -0.2077 -0.6454
 3942TIP3    H133317   0.398   6.715  14.663  2.1699 -2.2584 -2.5282
 3942TIP3    H233318   0.465   6.834  14.597  1.7992 -1.9988 -2.4433
 3943TIP3   OH233319   3.424   5.861   3.073 -0.2371 -0.1620 -0.4175
 3943TIP3    H133320   3.361   5.933   3.073  0.8137  0.8645  2.4990
 3943TIP3    H233321   3.500   5.894   3.120  1.0587 -2.5718 -0.6401
 3944TIP3   OH233322   6.227   3.135  16.778 -0.8253  0.6792  0.3961
 3944TIP3    H133323   6.192   3.046  16.774 -2.4185  1.3143 -0.8207
 3944TIP3    H233324   6.312   3.130  16.735 -0.3852 -0.4581  1.3520
 3945TIP3   OH233325   3.442   4.788  11.443  0.1536  0.1963 -0.0649
 3945TIP3    H133326   3.536   4.780  11.424  0.8456 -1.0625  3.2135
 3945TIP3    H233327   3.401   4.724  11.384  1.4797 -0.1230 -0.6985
 3946TIP3   OH233328   6.277   2.393  15.251 -0.1177  0.2513  0.6908
 3946TIP3    H133329   6.216   2.454  15.211  1.0619 -0.4851 -2.6039
 3946TIP3    H233330   6.270   2.313  15.198  1.5164 -0.9264  2.0996
 3947TIP3   OH233331   0.832   0.119  12.330 -0.8759 -0.2907  0.7339
 3947TIP3    H133332   0.909   0.113  12.272 -1.4017  0.2596 -0.0347
 3947TIP3    H233333   0.867   0.158  12.411 -0.2383 -0.5614  0.6008
 3948TIP3   OH233334   0.314   6.481   1.589 -0.5496 -0.0327 -0.0230
 3948TIP3    H133335   0.404   6.479   1.559 -0.4866 -2.4551  0.1121
 3948TIP3    H233336   0.319   6.512   1.679 -0.0597  1.3054 -0.4870
 3949TIP3   OH233337   4.873   5.321   3.453  0.2544  0.3220 -0.4711
 3949TIP3    H133338   4.957   5.319   3.498 -0.4837  1.0379  1.0087
 3949TIP3    H233339   4.863   5.413   3.425  0.2896  0.0811 -1.3131
 3950TIP3   OH233340   5.414   1.668  11.598  0.2449 -0.3481 -0.2125
 3950TIP3    H133341   5.354   1.742  11.602 -1.3877 -1.6425  1.9597
 3950TIP3    H233342   5.492   1.696  11.644 -1.3192 -0.6469  2.8552
 3951TIP3   OH233343   2.412   4.851  13.444 -0.1180  0.2586 -0.2340
 3951TIP3    H133344   2.357   4.845  13.522  0.8349  0.4062  0.4701
 3951TIP3    H233345   2.467   4.773  13.448  1.2803  1.2245  0.3178
 3952TIP3   OH233346   0.303   6.568  12.385  0.2637 -0.1581 -0.7311
 3952TIP3    H133347   0.342   6.507  12.322  0.8034 -1.3874  0.7431
 3952TIP3    H233348   0.327   6.533  12.471 -0.7735  1.2598  0.1822
 3953TIP3   OH233349   4.924   6.240  17.081 -0.0718 -0.3204 -0.0802
 3953TIP3    H133350   4.931   6.322  17.032  2.6142 -0.4965 -0.1530
 3953TIP3    H233351   4.992   6.248  17.149 -1.7533 -1.2821  1.8174
 3954TIP3   OH233352   4.227   2.439   2.845 -0.4222 -0.6295  0.2919
 3954TIP3    H133353   4.225   2.535   2.839 -1.0187 -0.5751  1.1940
 3954TIP3    H233354   4.319   2.418   2.858 -0.5709  0.0309  2.9010
 3955TIP3   OH233355   3.757   6.435   0.990  0.3037  0.1148 -0.3251
 3955TIP3    H133356   3.802   6.391   1.062  0.1284  0.0782 -0.2374
 3955TIP3    H233357   3.665   6.409   1.000  0.5509 -1.4335 -1.6702
 3956TIP3   OH233358   6.505   5.644   3.080 -0.0868  0.0729  0.2452
 3956TIP3    H133359   6.410   5.637   3.074  0.0057 -4.9088  0.1908
 3956TIP3    H233360   6.522   5.660   3.172 -0.9572  0.1701  0.3988
 3957TIP3   OH233361   2.964   3.158  11.291 -0.4470  0.4599 -0.3154
 3957TIP3    H133362   2.896   3.210  11.335 -2.5202 -3.0189  1.0771
 3957TIP3    H233363   2.916   3.110  11.223  1.2158 -0.1158 -1.1256
 3958TIP3   OH233364   0.955   3.630  13.854 -0.8658 -0.5393  0.3273
 3958TIP3    H133365   0.879   3.622  13.912  0.3697  0.0399  2.1039
 3958TIP3    H233366   1.030   3.615  13.910  0.4831  1.5008 -0.7901
 3959TIP3   OH233367   5.524   1.517  10.939 -0.1848  0.4897 -0.1088
 3959TIP3    H133368   5.482   1.562  11.012 -1.3693 -0.6416 -0.0488
 3959TIP3    H233369   5.572   1.444  10.980  1.2033  1.2937 -0.2556
 3960TIP3   OH233370   6.165   6.633  13.492  0.3708  0.4507 -0.3036
 3960TIP3    H133371   6.148   6.552  13.541 -1.2109 -0.3685 -2.0615
 3960TIP3    H233372   6.086   6.646  13.439  1.2481  2.2833 -1.2585
 3961TIP3   OH233373   1.822   4.664   2.294  0.0949 -0.2480  0.0604
 3961TIP3    H133374   1.887   4.626   2.235  0.7267  1.8640 -0.6779
 3961TIP3    H233375   1.860   4.653   2.381  0.7116 -0.4124 -0.2218
 3962TIP3   OH233376   1.907   4.688  15.658  0.5183  0.3386 -0.7506
 3962TIP3    H133377   1.946   4.705  15.572 -0.2074 -1.8025 -1.5756
 3962TIP3    H233378   1.952   4.609  15.690 -1.0198 -0.4202 -0.3770
 3963TIP3   OH233379   4.306   3.762  12.375  0.3978 -0.0015  0.1102
 3963TIP3    H133380   4.276   3.851  12.359 -0.8637 -0.5206 -0.5328
 3963TIP3    H233381   4.227   3.708  12.371  1.1296 -1.1541  0.5091
 3964TIP3   OH233382   1.098   5.137  17.080  0.1038 -0.1471  0.7775
 3964TIP3    H133383   1.025   5.078  17.062  1.3150 -1.8255  1.1323
 3964TIP3    H233384   1.150   5.136  17.000  0.5127 -0.1447  1.0402
 3965TIP3   OH233385   1.986   3.185  16.679  0.2031  0.1660  0.2019
 3965TIP3    H133386   1.956   3.275  16.670  0.7281  0.2265 -1.2417
 3965TIP3    H233387   1.908   3.136  16.707 -0.1001  1.0429  0.9147
 3966TIP3   OH233388   0.615   1.032  10.917  0.0196  0.5825 -0.7859
 3966TIP3    H133389   0.695   1.073  10.950  0.1954 -2.1807  2.6515
 3966TIP3    H233390   0.548   1.101  10.925  1.3469  1.8962 -0.5249
 3967TIP3   OH233391   1.808   5.654  13.331 -0.1439 -0.0782  0.1426
 3967TIP3    H133392   1.840   5.730  13.283 -0.1658  0.5935  1.1548
 3967TIP3    H233393   1.750   5.609  13.269  0.0471  0.6020 -0.5471
 3968TIP3   OH233394   0.860   5.071   4.989  0.3633  0.5003  0.2364
 3968TIP3    H133395   0.938   5.016   4.992 -0.4270 -0.6004  1.6553
 3968TIP3    H233396   0.792   5.019   5.032 -1.0956  1.5396 -0.6994
 3969TIP3   OH233397   4.774   1.413   2.669 -0.2506 -0.1377  0.1661
 3969TIP3    H133398   4.709   1.395   2.601 -0.0325 -0.8820  0.1436
 3969TIP3    H233399   4.755   1.502   2.698 -0.9687 -0.1712 -0.1882
 3970TIP3   OH233400   1.159   2.342  16.669 -0.1683 -0.5725  0.0607
 3970TIP3    H133401   1.097   2.401  16.711  0.2681  0.1906 -0.3537
 3970TIP3    H233402   1.204   2.300  16.742  0.4620  0.6161  0.3875
 3971TIP3   OH233403   1.146   0.800   1.952 -0.5696 -0.0486 -0.0551
 3971TIP3    H133404   1.173   0.754   2.032  0.2000 -1.9828 -1.3478
 3971TIP3    H233405   1.077   0.746   1.916  0.8895 -0.6930 -2.0339
 3972TIP3   OH233406   2.510   4.910   4.577  0.1029  0.3440  0.8035
 3972TIP3    H133407   2.418   4.931   4.559 -0.2959 -0.7918  1.4329
 3972TIP3    H233408   2.540   4.867   4.497  0.2600  1.1861  0.3920
 3973TIP3   OH233409   4.502   0.113   5.411 -0.0818  0.2161 -0.1603
 3973TIP3    H133410   4.569   0.181   5.400  1.8818 -1.4556  0.6258
 3973TIP3    H233411   4.530   0.043   5.351  0.0086 -1.2868  1.5513
 3974TIP3   OH233412   6.270   1.659  15.846  0.0732 -0.4259  0.5052
 3974TIP3    H133413   6.358   1.692  15.831 -0.0698 -0.2589  0.0310
 3974TIP3    H233414   6.281   1.564  15.855 -0.0035 -0.7896 -2.2792
 3975TIP3   OH233415   2.812   1.751  14.492  0.4026  0.1736  0.5156
 3975TIP3    H133416   2.845   1.830  14.535 -1.8694  2.1236 -1.0741
 3975TIP3    H233417   2.838   1.762  14.400  0.6233 -1.2886  0.3897
 3976TIP3   OH233418   2.800   5.984   0.072 -0.1842  0.7597 -0.9225
 3976TIP3    H133419   2.801   5.950  -0.018 -1.6082  0.3147 -0.8020
 3976TIP3    H233420   2.852   5.921   0.122  0.9869  1.2442 -1.4881
 3977TIP3   OH233421   2.429   1.288  16.161  0.1769 -0.0357 -0.9075
 3977TIP3    H133422   2.364   1.218  16.166  0.1264 -0.0230 -1.3577
 3977TIP3    H233423   2.378   1.369  16.170  0.2496 -0.0584 -0.2655
 3978TIP3   OH233424   5.583   6.712  14.663 -1.1400 -0.0203 -0.2727
 3978TIP3    H133425   5.544   6.756  14.738  0.9920 -0.6585  1.3208
 3978TIP3    H233426   5.544   6.624  14.664  0.4753 -0.8000  1.5605
 3979TIP3   OH233427   0.287   5.926   5.843  0.1856 -0.1840 -0.7113
 3979TIP3    H133428   0.334   5.972   5.912  1.8033 -4.0066  1.0067
 3979TIP3    H233429   0.327   5.956   5.762  0.9182  1.5710  0.2464
 3980TIP3   OH233430   1.345   5.997   1.946 -0.0296 -0.0630  0.9642
 3980TIP3    H133431   1.369   6.034   2.031 -1.3865  0.7269  1.0358
 3980TIP3    H233432   1.382   6.058   1.882  0.5252 -0.3657  0.9868
 3981TIP3   OH233433   1.842   2.009   4.750  0.3037 -0.3813  0.2815
 3981TIP3    H133434   1.880   2.060   4.821  1.2791  0.3794 -0.7589
 3981TIP3    H233435   1.914   1.996   4.688 -0.8659  0.2781 -1.2928
 3982TIP3   OH233436   0.914   0.133  16.137  0.2995  0.0240 -0.2749
 3982TIP3    H133437   0.914   0.073  16.062  1.1389 -0.4837  0.1116
 3982TIP3    H233438   0.902   0.220  16.099 -0.6519 -0.3629 -0.8678
 3983TIP3   OH233439   6.456   6.745   3.591  0.3530  0.2217 -0.4800
 3983TIP3    H133440   6.376   6.772   3.546  0.1073 -0.8793 -0.7470
 3983TIP3    H233441   6.486   6.824   3.636  0.3999  1.2838 -2.2656
 3984TIP3   OH233442   0.843   5.909  13.396 -0.1491  0.5114 -0.6793
 3984TIP3    H133443   0.785   5.942  13.327  1.0166 -0.8858 -2.4083
 3984TIP3    H233444   0.884   5.832  13.358  0.4599 -0.3977  1.6612
 3985TIP3   OH233445   2.751   0.460  14.492  0.6105 -0.1395  0.0956
 3985TIP3    H133446   2.691   0.534  14.481  0.9702  0.3909  1.4502
 3985TIP3    H233447   2.702   0.384  14.462 -0.1653  0.4930 -0.2845
 3986TIP3   OH233448   1.277   3.375   3.775 -1.1988 -0.0535 -0.1726
 3986TIP3    H133449   1.274   3.470   3.767 -0.4602 -0.0046  0.0016
 3986TIP3    H233450   1.241   3.343   3.692 -0.9435  0.3884 -0.4598
 3987TIP3   OH233451   0.085   0.596   1.740  0.6771 -0.0763  0.2839
 3987TIP3    H133452   0.052   0.543   1.813  0.1956 -1.0704 -0.6388
 3987TIP3    H233453   0.156   0.544   1.703  0.9938  0.4805  0.0969
 3988TIP3   OH233454   4.583   2.755  16.180 -0.3206 -1.1520  0.5422
 3988TIP3    H133455   4.492   2.750  16.211 -0.4286  0.2870  0.5435
 3988TIP3    H233456   4.632   2.788  16.255 -0.2765  0.5821 -0.1853
 3989TIP3   OH233457   1.809   6.229  17.166 -0.0176  0.5878 -0.2325
 3989TIP3    H133458   1.763   6.175  17.230  4.8143 -0.3134  2.9905
 3989TIP3    H233459   1.839   6.168  17.100 -0.6385  0.6246 -0.5547
 3990TIP3   OH233460   1.213   3.881  13.201 -0.4459  0.0972  0.4133
 3990TIP3    H133461   1.260   3.964  13.194 -1.1282  0.4071 -0.8389
 3990TIP3    H233462   1.139   3.900  13.258  1.0863 -0.5038  2.7576
 3991TIP3   OH233463   2.145   1.202  13.765 -0.3780  0.1789 -0.5458
 3991TIP3    H133464   2.072   1.264  13.770  0.6985  1.4193  0.6496
 3991TIP3    H233465   2.217   1.254  13.729  0.3999 -0.5386 -0.0441
 3992TIP3   OH233466   5.825   4.321  16.829  0.1612 -0.0296  0.4081
 3992TIP3    H133467   5.839   4.395  16.771 -0.7825 -0.4208 -0.3385
 3992TIP3    H233468   5.866   4.247  16.784  0.8115 -0.0330  0.9947
 3993TIP3   OH233469   0.727   2.043   3.164  0.0964 -0.1278 -0.1575
 3993TIP3    H133470   0.655   2.028   3.102 -0.2101 -1.3018  0.4653
 3993TIP3    H233471   0.697   2.003   3.246  0.5479  1.3081  0.7354
 3994TIP3   OH233472   6.483   4.549   1.968  0.1771 -0.3457 -0.2679
 3994TIP3    H133473   6.533   4.622   1.933 -0.6628 -0.4408 -1.7671
 3994TIP3    H233474   6.417   4.590   2.024  0.7979 -0.0960  0.2888
 3995TIP3   OH233475   3.487   2.252   1.344  0.0526 -0.2727 -0.4217
 3995TIP3    H133476   3.430   2.234   1.419 -0.7293 -1.3844 -1.2315
 3995TIP3    H233477   3.427   2.284   1.276  0.4498 -0.9979 -1.1341
 3996TIP3   OH233478   4.684   3.367   4.879  0.6901 -0.0606 -0.6918
 3996TIP3    H133479   4.638   3.451   4.880  1.0433  0.1303 -0.4967
 3996TIP3    H233480   4.665   3.328   4.964  1.3985  0.3021 -0.3523
 3997TIP3   OH233481   5.929   4.705  15.244 -0.2225 -0.3298  0.9213
 3997TIP3    H133482   5.918   4.797  15.267  1.4942  0.0758  0.2227
 3997TIP3    H233483   5.917   4.658  15.327 -1.2314  0.4773  1.2636
 3998TIP3   OH233484   4.863   2.172   4.132  0.4745 -0.2023 -0.0023
 3998TIP3    H133485   4.770   2.176   4.153  0.3771  0.7308 -0.5648
 3998TIP3    H233486   4.873   2.225   4.053  1.3604 -0.9469 -0.4241
 3999TIP3   OH233487   0.166   3.629   4.667  0.3848 -0.3404  0.3816
 3999TIP3    H133488   0.220   3.645   4.590  1.4777  0.3227  1.2573
 3999TIP3    H233489   0.204   3.551   4.708  0.8207  0.2353  1.0994
 4000TIP3   OH233490   0.584   1.723   2.253  0.3828  0.2862  0.3260
 4000TIP3    H133491   0.575   1.635   2.290 -2.0772 -0.5903 -2.0171
 4000TIP3    H233492   0.660   1.717   2.196  0.3917 -0.2470  0.3843
 4001TIP3   OH233493   4.837   0.588  12.477  0.4399 -0.4218 -0.1961
 4001TIP3    H133494   4.759   0.640  12.497 -0.9367 -2.6903  0.7600
 4001TIP3    H233495   4.910   0.649  12.489 -0.9485  0.9097  2.5825
 4002TIP3   OH233496   5.384   5.824   5.204 -0.4758 -0.1814  0.4626
 4002TIP3    H133497   5.339   5.888   5.150  0.4310  0.1479  0.0843
 4002TIP3    H233498   5.340   5.828   5.289 -0.4826  0.8695  0.4111
 4003TIP3   OH233499   5.759   4.461  14.489 -0.1650 -0.4161 -0.1961
 4003TIP3    H133500   5.743   4.535  14.430  0.9731  0.0549  0.0557
 4003TIP3    H233501   5.845   4.480  14.528 -0.4640 -1.2015  0.8812
 4004TIP3   OH233502   4.577   6.593   6.686 -0.0701  0.1105  0.4027
 4004TIP3    H133503   4.512   6.654   6.650 -2.2505 -1.1832  1.9012
 4004TIP3    H233504   4.655   6.647   6.699 -1.0724  1.9570 -0.6754
 4005TIP3   OH233505   5.957   6.684  14.507  0.0222  0.9382 -0.1262
 4005TIP3    H133506   6.033   6.626  14.503 -0.5255  0.1563  0.3102
 4005TIP3    H233507   5.958   6.731  14.424  2.2073  2.5799  0.7344
 4006TIP3   OH233508   4.786   5.973  12.914  0.3160 -0.1570  0.1007
 4006TIP3    H133509   4.790   6.024  12.995 -1.8148  2.5873 -1.3209
 4006TIP3    H233510   4.727   6.024  12.858  1.2987 -2.1920 -2.9891
 4007TIP3   OH233511   1.409   0.069  15.639  0.3899  0.7890  0.0304
 4007TIP3    H133512   1.338   0.062  15.703 -0.1393  1.0525 -0.5113
 4007TIP3    H233513   1.479   0.015  15.675 -1.2634 -2.2621 -0.9604
 4008TIP3   OH233514   4.183   1.235  16.086  0.1501  0.1815 -1.0035
 4008TIP3    H133515   4.183   1.260  16.179  2.6706 -0.1637 -0.8447
 4008TIP3    H233516   4.152   1.313  16.041 -0.6326  0.5294  0.0712
 4009TIP3   OH233517   5.312   2.004  15.124  0.2588  0.1050 -0.7623
 4009TIP3    H133518   5.303   1.912  15.099  0.7441 -0.5172  1.1599
 4009TIP3    H233519   5.393   2.033  15.081  0.2307 -0.4383 -1.1880
 4010TIP3   OH233520   6.374   2.556  11.561  0.0925 -0.4943  0.4158
 4010TIP3    H133521   6.468   2.556  11.583  0.3200  1.5134 -0.2910
 4010TIP3    H233522   6.331   2.535  11.644  1.1642 -2.0105  0.6277
 4011TIP3   OH233523   2.870   3.002  14.827  0.1006 -0.0918 -0.0055
 4011TIP3    H133524   2.958   2.998  14.791 -0.2204 -1.0884 -0.7358
 4011TIP3    H233525   2.873   3.073  14.892  0.8660  1.3841 -1.5617
 4012TIP3   OH233526   1.614   4.780   5.572 -0.2363  0.4978 -0.1515
 4012TIP3    H133527   1.585   4.713   5.634  0.5884  1.4273  1.2684
 4012TIP3    H233528   1.705   4.758   5.554 -0.9566 -0.8828 -2.5808
 4013TIP3   OH233529   4.118   0.981   2.023 -0.3326  0.2163 -0.7936
 4013TIP3    H133530   4.087   1.027   1.944  0.9370 -1.3415 -2.2613
 4013TIP3    H233531   4.112   0.888   2.001 -0.0724 -0.2727  1.0226
 4014TIP3   OH233532   6.542   5.490   5.107  0.6694  0.1123  0.0205
 4014TIP3    H133533   6.528   5.547   5.183 -1.8083 -0.0453 -0.2355
 4014TIP3    H233534   6.626   5.518   5.071  0.2198  2.6426  0.7417
 4015TIP3   OH233535   6.263   2.140   0.134 -0.3310  0.2447  0.0731
 4015TIP3    H133536   6.183   2.178   0.170  0.0104 -0.1032  1.2346
 4015TIP3    H233537   6.253   2.046   0.147  0.2310  0.1955  0.1619
 4016TIP3   OH233538   2.194   5.084  14.113  0.4335  0.3986  0.3185
 4016TIP3    H133539   2.127   5.132  14.162  1.0093  1.1226  0.3982
 4016TIP3    H233540   2.145   5.042  14.042 -0.3999 -0.6262  1.4518
 4017TIP3   OH233541   1.245   6.008   5.008 -0.2586 -0.6645 -0.2059
 4017TIP3    H133542   1.329   6.054   5.001 -0.1877 -0.6972  0.4128
 4017TIP3    H233543   1.224   5.984   4.918 -1.0129  1.8637 -0.8057
 4018TIP3   OH233544   6.440   1.710  13.162  0.8988 -0.3641  0.0304
 4018TIP3    H133545   6.409   1.620  13.171 -0.5059  0.1252  0.3338
 4018TIP3    H233546   6.366   1.764  13.190  1.9653  0.8835  0.5609
 4019TIP3   OH233547   1.078   6.448   5.489 -0.2820 -1.0962 -0.3987
 4019TIP3    H133548   1.058   6.521   5.547 -0.4185 -0.3701 -1.3304
 4019TIP3    H233549   1.025   6.375   5.521 -1.8398 -0.1647 -0.7814
 4020TIP3   OH233550   0.473   3.040  16.719 -0.0558  0.0558  0.3071
 4020TIP3    H133551   0.463   3.019  16.812  0.2430  1.2863  0.6357
 4020TIP3    H233552   0.567   3.047  16.705 -0.0751 -0.5829 -0.2110
 4021TIP3   OH233553   2.583   1.768  13.809  0.5268 -0.0294  0.4881
 4021TIP3    H133554   2.598   1.694  13.868  0.9297 -0.3841 -0.0503
 4021TIP3    H233555   2.508   1.742  13.757 -0.6674  0.8403  1.7190
 4022TIP3   OH233556   2.352   6.128  11.619 -0.2930  0.5169  0.5195
 4022TIP3    H133557   2.424   6.145  11.557  0.7217 -2.6324  0.6537
 4022TIP3    H233558   2.396   6.119  11.704 -0.9853 -0.3216  0.7975
 4023TIP3   OH233559   5.994   4.070  16.085 -0.3825  0.1748  0.1704
 4023TIP3    H133560   5.970   3.989  16.039 -0.2471  0.6117 -0.7063
 4023TIP3    H233561   5.911   4.115  16.100 -0.7001 -1.0660  2.5683
 4024TIP3   OH233562   3.661   2.312  13.574  0.3114  0.6015  0.0126
 4024TIP3    H133563   3.573   2.329  13.607  0.9109  1.7990  1.0763
 4024TIP3    H233564   3.715   2.381  13.612  1.4254  0.8982 -1.9416
 4025TIP3   OH233565   4.892   5.728  16.853  0.0401  0.0635 -0.2930
 4025TIP3    H133566   4.977   5.740  16.811 -0.5079  1.5614 -1.0397
 4025TIP3    H233567   4.857   5.817  16.861 -1.3867 -0.5221  0.1535
 4026TIP3   OH233568   2.905   1.864   5.332  0.1885 -0.3905 -0.4356
 4026TIP3    H133569   2.896   1.935   5.396  1.1121 -0.7288  0.0906
 4026TIP3    H233570   2.913   1.785   5.386 -2.0340 -1.0848 -1.0181
 4027TIP3   OH233571   2.371   6.024  12.577 -0.2341 -0.3943  0.2475
 4027TIP3    H133572   2.328   5.976  12.647 -1.0366 -1.7006 -1.0965
 4027TIP3    H233573   2.461   5.994  12.578 -0.4431 -1.0226  0.1938
 4028TIP3   OH233574   3.233   1.336  16.114  0.3155 -0.0598 -0.4932
 4028TIP3    H133575   3.183   1.300  16.187  0.9172 -1.1417 -0.5876
 4028TIP3    H233576   3.322   1.343  16.148  0.6548 -0.8320 -1.1879
 4029TIP3   OH233577   4.121   6.262  15.560  0.0418  0.3698  0.2771
 4029TIP3    H133578   4.088   6.193  15.619  0.4788  0.4129  0.5731
 4029TIP3    H233579   4.189   6.219  15.509 -1.3637 -0.1020 -1.3072
 4030TIP3   OH233580   2.073   6.343   0.061  0.2137 -0.1922 -0.2074
 4030TIP3    H133581   2.108   6.266   0.106  1.5395  0.0026 -0.8672
 4030TIP3    H233582   2.101   6.334  -0.030 -1.5737 -0.0609 -0.8232
 4031TIP3   OH233583   1.280   3.838  15.622 -0.4793  0.1909  0.3910
 4031TIP3    H133584   1.336   3.767  15.652  0.5287 -0.3080 -2.3404
 4031TIP3    H233585   1.338   3.914  15.614 -0.8660  0.4967  0.4442
 4032TIP3   OH233586   4.735   0.951  12.063  0.3657  0.0529  0.1488
 4032TIP3    H133587   4.769   0.864  12.082  0.7309  0.3308  0.7718
 4032TIP3    H233588   4.739   0.957  11.967  2.6696  0.3101  0.2035
 4033TIP3   OH233589   1.130   5.998  13.373  0.4342 -0.0490  0.1257
 4033TIP3    H133590   1.162   5.918  13.331  2.0449  0.6277  0.0056
 4033TIP3    H233591   1.197   6.019  13.439 -1.7745 -0.8215  2.8020
 4034TIP3   OH233592   4.692   4.802   4.453  0.1860  0.6418 -0.1673
 4034TIP3    H133593   4.727   4.816   4.541  0.7390 -0.8092 -0.1292
 4034TIP3    H233594   4.645   4.719   4.458  1.0740  0.0257 -1.4760
 4035TIP3   OH233595   4.548   5.522   0.587 -0.0935  0.2378 -0.0515
 4035TIP3    H133596   4.590   5.591   0.537  1.0473 -0.0019  0.5478
 4035TIP3    H233597   4.455   5.530   0.566  0.2735  0.5118 -1.7489
 4036TIP3   OH233598   3.803   2.443   4.014  0.0005 -0.2571 -0.1455
 4036TIP3    H133599   3.723   2.496   4.011  0.7217  0.8440 -0.3959
 4036TIP3    H233600   3.820   2.420   3.923 -0.0972 -0.6083 -0.0775
 4037TIP3   OH233601   4.445   6.344  13.399 -0.6068 -0.5137 -0.0312
 4037TIP3    H133602   4.473   6.275  13.459 -0.2288 -0.2869  0.0594
 4037TIP3    H233603   4.513   6.411  13.407 -0.2038 -0.7428 -1.1667
 4038TIP3   OH233604   1.870   0.659  12.737 -0.4478  0.5187 -0.4638
 4038TIP3    H133605   1.853   0.621  12.651 -1.7593 -0.8886  0.3596
 4038TIP3    H233606   1.875   0.583  12.795  1.0528  1.4005  0.6221
 4039TIP3   OH233607   3.399   0.399  12.355 -0.4205 -0.0651  0.4658
 4039TIP3    H133608   3.468   0.439  12.304  0.0617 -2.9463 -1.3832
 4039TIP3    H233609   3.442   0.326  12.400 -2.2090 -2.1322 -0.9905
 4040TIP3   OH233610   2.171   3.811   1.008 -0.1279 -0.0574 -0.0565
 4040TIP3    H133611   2.180   3.746   1.077  0.6223  0.2268  0.1266
 4040TIP3    H233612   2.098   3.780   0.954 -0.9102 -0.1259  1.0272
 4041TIP3   OH233613   0.272   4.472   3.365  0.0618 -0.5334 -0.5818
 4041TIP3    H133614   0.316   4.534   3.424  0.5215 -0.7028 -0.7433
 4041TIP3    H233615   0.179   4.492   3.375  0.2593  1.6118 -2.1727
 4042TIP3   OH233616   3.731   1.415  12.995 -0.3423  0.6496  0.3641
 4042TIP3    H133617   3.676   1.388  13.069 -0.1176  0.2510  0.3926
 4042TIP3    H233618   3.691   1.371  12.919 -1.3685  2.1089  0.0105
 4043TIP3   OH233619   1.056   0.994   2.499 -0.4146  0.1221  0.1544
 4043TIP3    H133620   1.129   1.021   2.555  0.2941 -1.9573  0.3373
 4043TIP3    H233621   1.042   0.902   2.522 -3.0049  0.4001 -0.0191
 4044TIP3   OH233622   3.356   4.270   5.287 -0.2289 -0.4935 -0.6821
 4044TIP3    H133623   3.308   4.239   5.210 -2.5821  2.1809 -0.4403
 4044TIP3    H233624   3.295   4.259   5.360  0.7335  0.0744  0.2378
 4045TIP3   OH233625   6.083   5.337  17.082  0.9501 -0.3426 -0.1634
 4045TIP3    H133626   5.995   5.346  17.121 -0.1470 -0.5132 -2.4413
 4045TIP3    H233627   6.115   5.427  17.075 -0.0655 -0.0429 -1.4192
 4046TIP3   OH233628   4.052   0.792   3.224 -0.3732 -0.2365  0.5751
 4046TIP3    H133629   4.130   0.742   3.200  0.0588  0.5883  0.2221
 4046TIP3    H233630   3.979   0.732   3.210  0.2111 -1.1086  1.1622
 4047TIP3   OH233631   3.909   3.354  13.925 -0.1200 -0.2253 -0.4302
 4047TIP3    H133632   3.825   3.331  13.884  0.0811 -0.5162 -0.6849
 4047TIP3    H233633   3.975   3.329  13.860  0.1431  0.4158 -0.4084
 4048TIP3   OH233634   2.763   2.403  13.252  0.3224 -0.2078  0.4730
 4048TIP3    H133635   2.738   2.407  13.344  0.8273  2.6498  0.5723
 4048TIP3    H233636   2.859   2.400  13.254  0.3286 -0.2948  0.0536
 4049TIP3   OH233637   1.484   1.753  11.497 -0.5363 -0.3369 -0.0625
 4049TIP3    H133638   1.400   1.772  11.539  0.5112  1.2421  1.4791
 4049TIP3    H233639   1.470   1.773  11.405 -2.4681 -2.3366 -0.2943
 4050TIP3   OH233640   4.016   4.957  12.369  0.2863  0.3335 -0.0648
 4050TIP3    H133641   3.984   4.968  12.280  0.6282 -1.1979 -0.4071
 4050TIP3    H233642   3.939   4.970  12.425  0.2375  2.1419 -0.4947
 4051TIP3   OH233643   1.111   3.366  13.758 -0.1339 -0.2044  0.4189
 4051TIP3    H133644   1.082   3.414  13.836  0.8099 -0.5208  0.9822
 4051TIP3    H233645   1.169   3.428  13.713 -1.0459  0.1512 -0.3021
 4052TIP3   OH233646   0.235   5.076   5.405  0.2061 -0.3734  0.5976
 4052TIP3    H133647   0.142   5.053   5.397  0.6775 -2.5469  0.7912
 4052TIP3    H233648   0.281   5.013   5.350  1.7154 -0.6319  2.0678
 4053TIP3   OH233649   3.478   5.924  14.662 -0.0581 -0.1755  0.1392
 4053TIP3    H133650   3.468   5.843  14.610  2.2229 -2.8352  3.3991
 4053TIP3    H233651   3.571   5.943  14.657 -0.3454  1.4455  0.6102
 4054TIP3   OH233652   3.045   1.228  15.248  0.5136 -0.3098 -0.4101
 4054TIP3    H133653   3.020   1.270  15.330 -0.2939 -0.9359 -0.3250
 4054TIP3    H233654   3.089   1.147  15.275  0.6076 -0.3184 -0.5872
 4055TIP3   OH233655   2.311   6.256   1.038 -0.2540  0.4230  0.0838
 4055TIP3    H133656   2.321   6.201   1.115  2.8067  2.0894  1.0507
 4055TIP3    H233657   2.289   6.342   1.073 -1.0776  0.7152 -1.1003
 4056TIP3   OH233658   3.378   5.382   0.411 -0.4758 -0.5713  0.3191
 4056TIP3    H133659   3.466   5.377   0.447 -0.4759  0.8466  0.5762
 4056TIP3    H233660   3.329   5.436   0.474 -1.2430 -0.4504 -0.3560
 4057TIP3   OH233661   6.464   2.211   4.225 -0.7759  0.0660  0.2948
 4057TIP3    H133662   6.540   2.171   4.182  0.0066  1.2241  0.5549
 4057TIP3    H233663   6.502   2.276   4.284 -1.8818 -0.5621  1.7673
 4058TIP3   OH233664   0.117   3.654  15.134  0.3124  0.5794 -0.0746
 4058TIP3    H133665   0.149   3.740  15.106  0.8490  0.5165  0.3387
 4058TIP3    H233666   0.106   3.605  15.053  0.1347  0.9888 -0.3018
 4059TIP3   OH233667   2.650   2.372  15.287 -0.7455 -0.4857 -0.4885
 4059TIP3    H133668   2.645   2.457  15.243 -0.9445 -0.0349  0.3747
 4059TIP3    H233669   2.596   2.382  15.365  1.1382 -0.5856  0.9177
 4060TIP3   OH233670   3.394   6.627  17.079  0.0451  0.2218 -0.3063
 4060TIP3    H133671   3.397   6.582  17.163  1.0444  0.7086 -0.0592
 4060TIP3    H233672   3.474   6.600  17.034 -0.1382  0.5060 -0.8185
 4061TIP3   OH233673   5.984   1.667  12.422  0.0005 -0.1869  0.3028
 4061TIP3    H133674   5.911   1.700  12.370 -0.2265 -0.8029  0.2258
 4061TIP3    H233675   6.007   1.584  12.380 -0.6207 -1.0262  1.5690
 4062TIP3   OH233676   3.171   1.416   5.173 -0.1710  0.1449  0.2035
 4062TIP3    H133677   3.214   1.434   5.256  0.2655 -0.7104  0.1790
 4062TIP3    H233678   3.243   1.392   5.114 -0.5144  0.3483 -0.3036
 4063TIP3   OH233679   4.285   5.542   0.541 -0.0202 -0.3639  0.0218
 4063TIP3    H133680   4.191   5.549   0.562 -0.1133 -2.3612  0.4612
 4063TIP3    H233681   4.287   5.526   0.447 -0.0599  0.5429 -0.1389
 4064TIP3   OH233682   5.418   5.657  12.809 -0.0280 -0.6017 -0.1673
 4064TIP3    H133683   5.370   5.733  12.843  0.9516 -0.2088  0.3788
 4064TIP3    H233684   5.461   5.620  12.886  0.9499 -0.6441 -0.7242
 4065TIP3   OH233685   3.672   0.232   1.836 -0.1187  0.2253  0.0102
 4065TIP3    H133686   3.587   0.195   1.858 -1.2218  1.7419 -1.4348
 4065TIP3    H233687   3.666   0.251   1.743  2.1741 -0.4881 -0.3358
 4066TIP3   OH233688   6.479   0.219   2.953  0.3043 -0.4363  0.1969
 4066TIP3    H133689   6.559   0.252   2.995  0.2523  0.2439 -0.2372
 4066TIP3    H233690   6.451   0.289   2.895 -0.4118 -0.8197  0.0696
 4067TIP3   OH233691   0.931   2.358  11.196  0.0860  0.4410  0.3197
 4067TIP3    H133692   0.841   2.391  11.202  0.5171  2.1178 -1.4597
 4067TIP3    H233693   0.980   2.429  11.153  2.1854 -0.5870  0.8854
 4068TIP3   OH233694   1.128   2.208  13.704  0.2611 -0.1920  0.0346
 4068TIP3    H133695   1.209   2.199  13.755  0.2383 -0.7606 -0.0286
 4068TIP3    H233696   1.151   2.176  13.617  0.4644  1.3028 -0.5001
 4069TIP3   OH233697   0.964   6.357   3.385  0.7198 -0.9943 -0.7731
 4069TIP3    H133698   1.052   6.378   3.353  1.1735 -0.1589  0.9338
 4069TIP3    H233699   0.914   6.438   3.374  0.7209 -0.8755  0.0630
 4070TIP3   OH233700   5.104   6.408   2.676 -0.1451  0.1374  0.0951
 4070TIP3    H133701   5.149   6.394   2.593  0.6666 -1.3938  0.7630
 4070TIP3    H233702   5.166   6.459   2.728  0.4815 -1.2229  0.7052
 4071TIP3   OH233703   2.154   1.550  13.540  0.3537 -0.3832 -0.2638
 4071TIP3    H133704   2.094   1.500  13.596  0.6377  0.6091  0.9616
 4071TIP3    H233705   2.201   1.483  13.490  1.6280 -1.4918  2.2326
 4072TIP3   OH233706   0.582   2.683   3.380 -0.3587 -0.0496  0.2987
 4072TIP3    H133707   0.652   2.739   3.412 -0.7362 -0.1926  1.3940
 4072TIP3    H233708   0.581   2.698   3.285  2.5123 -1.5969 -0.0629
 4073TIP3   OH233709   3.452   4.343   6.396  0.1292  0.1162 -0.6051
 4073TIP3    H133710   3.392   4.416   6.415  0.2418  0.3935 -1.2935
 4073TIP3    H233711   3.539   4.380   6.409  0.1787  0.0303 -0.6924
 4074TIP3   OH233712   3.401   3.127   6.162 -0.2927 -0.3472  0.1065
 4074TIP3    H133713   3.319   3.081   6.145 -0.2343 -0.4777  0.1789
 4074TIP3    H233714   3.381   3.188   6.233 -0.2073 -0.7084  0.4416
 4075TIP3   OH233715   2.433   2.172   4.876 -0.0199 -0.4225 -0.3102
 4075TIP3    H133716   2.373   2.204   4.809 -0.2999 -2.8981 -1.3527
 4075TIP3    H233717   2.382   2.108   4.926  0.7114  0.0983  1.1830
 4076TIP3   OH233718   1.898   6.734  13.191 -0.1320  0.2041 -0.1560
 4076TIP3    H133719   1.878   6.658  13.246  0.6583  1.5135  2.1085
 4076TIP3    H233720   1.940   6.698  13.114  0.2060 -1.6791  0.8526
 4077TIP3   OH233721   2.519   2.427  16.946  0.1185 -0.3740 -0.1445
 4077TIP3    H133722   2.472   2.385  16.874 -0.0602 -2.0295  0.8850
 4077TIP3    H233723   2.581   2.486  16.903 -0.6858 -0.5436 -1.6054
 4078TIP3   OH233724   6.343   6.698   4.681  0.6195 -0.6688 -0.0681
 4078TIP3    H133725   6.289   6.668   4.754  1.8667 -1.4353  0.5838
 4078TIP3    H233726   6.296   6.669   4.603 -0.3953 -0.4499  0.4454
 4079TIP3   OH233727   3.418   6.695  13.872  0.3258 -0.0567  0.1868
 4079TIP3    H133728   3.401   6.637  13.947  0.5616 -3.9099 -2.4124
 4079TIP3    H233729   3.514   6.702  13.870  0.3409 -0.2666  0.0799
 4080TIP3   OH233730   5.396   0.572   0.147  0.0226 -1.1291  0.1767
 4080TIP3    H133731   5.408   0.654   0.194 -0.4156 -1.6903  1.3222
 4080TIP3    H233732   5.484   0.545   0.122  0.0931  0.1027 -0.9778
 4081TIP3   OH233733   5.165   2.595   5.828 -0.1859  0.3670  0.9131
 4081TIP3    H133734   5.189   2.674   5.877  2.0689 -0.1569  0.7369
 4081TIP3    H233735   5.248   2.556   5.803 -1.2637 -1.5684  0.1556
 4082TIP3   OH233736   2.412   1.706  12.023  0.4847  0.1243 -0.4137
 4082TIP3    H133737   2.489   1.704  12.079  0.1364 -0.3352  0.0579
 4082TIP3    H233738   2.415   1.623  11.975  0.2327  0.0620 -0.3230
 4083TIP3   OH233739   2.810   5.984  17.070  0.5481 -0.3979  0.3736
 4083TIP3    H133740   2.904   5.993  17.052  0.6334 -0.4278  0.7922
 4083TIP3    H233741   2.768   5.992  16.985  0.8428  0.7695  0.3334
 4084TIP3   OH233742   3.955   1.848   4.057  0.5594  0.5205 -0.0996
 4084TIP3    H133743   3.892   1.848   3.984 -0.9250  2.2314  1.1031
 4084TIP3    H233744   3.917   1.788   4.121 -0.3528  2.2098  0.9935
 4085TIP3   OH233745   2.628   6.261  13.630  0.4348 -0.4081 -0.3655
 4085TIP3    H133746   2.602   6.191  13.689 -1.8118  1.9928  1.7113
 4085TIP3    H233747   2.614   6.225  13.542 -1.9717 -2.1367  0.6189
 4086TIP3   OH233748   2.434   4.435   3.448  0.0642  0.6308 -0.0333
 4086TIP3    H133749   2.407   4.502   3.510  0.5551  0.0691  0.7998
 4086TIP3    H233750   2.507   4.475   3.400 -0.4459  1.1373 -0.3972
 4087TIP3   OH233751   1.172   2.189   4.467 -0.3448  0.0851 -0.2261
 4087TIP3    H133752   1.147   2.097   4.469 -0.2363  0.0582 -0.1225
 4087TIP3    H233753   1.262   2.188   4.434 -0.6440  0.2132 -1.0922
 4088TIP3   OH233754   3.114   0.930  17.170 -0.4524 -0.1533 -0.2088
 4088TIP3    H133755   3.171   0.855  17.187 -0.4745 -0.1510 -0.1263
 4088TIP3    H233756   3.026   0.896  17.185 -0.3702  0.6743  2.9444
 4089TIP3   OH233757   1.940   1.698   3.819 -0.9101 -0.6326 -0.0869
 4089TIP3    H133758   1.930   1.791   3.801 -1.5236 -0.7197 -0.2177
 4089TIP3    H233759   2.001   1.694   3.893 -0.4575 -0.1544 -0.4334
 4090TIP3   OH233760   2.824   4.916   4.187  0.1926 -0.4760  0.5853
 4090TIP3    H133761   2.873   4.853   4.240  0.6587 -0.5514  0.0777
 4090TIP3    H233762   2.882   4.993   4.182  0.0098 -0.3455  0.4649
 4091TIP3   OH233763   3.076   2.990  15.938 -0.3304 -0.2708  0.0249
 4091TIP3    H133764   3.066   3.049  16.013  1.1010  0.5980 -0.4214
 4091TIP3    H233765   3.021   3.029  15.870  1.4047  1.2277 -0.6085
 4092TIP3   OH233766   1.925   5.875  12.400  0.0308 -0.1618 -0.1348
 4092TIP3    H133767   1.938   5.916  12.486 -0.1079 -1.2764  0.4412
 4092TIP3    H233768   1.994   5.809  12.395  0.2818  0.1603 -1.0604
 4093TIP3   OH233769   5.891   5.193   2.334  0.0583 -0.4479  0.2560
 4093TIP3    H133770   5.878   5.219   2.426  0.9531  0.4311  0.1546
 4093TIP3    H233771   5.911   5.099   2.339 -0.7450 -0.5948  0.8787
 4094TIP3   OH233772   0.042   2.383   4.707 -0.1725 -0.0931 -0.1041
 4094TIP3    H133773  -0.013   2.313   4.743  0.1573  0.5833  1.8122
 4094TIP3    H233774   0.125   2.340   4.686 -0.2726 -0.4502  0.2204
 4095TIP3   OH233775   5.017   1.395  16.652 -0.0401 -0.2772  0.0280
 4095TIP3    H133776   5.075   1.466  16.679 -0.3167  0.0461 -0.2180
 4095TIP3    H233777   4.940   1.403  16.708 -0.0435 -0.4232  0.0456
 4096TIP3   OH233778   1.222   5.280   3.992 -0.0785 -0.7964 -0.5479
 4096TIP3    H133779   1.265   5.281   4.077 -1.5139 -1.1205  0.1937
 4096TIP3    H233780   1.197   5.371   3.976 -0.8799 -0.9281 -0.0632
 4097TIP3   OH233781   0.427   5.160  15.856 -0.4630 -0.3198  0.2302
 4097TIP3    H133782   0.481   5.133  15.931  0.7392 -0.7705 -0.7676
 4097TIP3    H233783   0.482   5.220  15.807 -1.6020  0.7242  0.1948
 4098TIP3   OH233784   1.944   6.531  12.245  0.1224  0.5277 -0.5085
 4098TIP3    H133785   1.889   6.497  12.315 -0.2480 -0.4219 -1.2334
 4098TIP3    H233786   1.896   6.606  12.210 -0.5890 -0.1030 -0.9276
 4099TIP3   OH233787   4.875   3.269  15.075  0.0755 -0.1180 -0.5357
 4099TIP3    H133788   4.967   3.282  15.055 -0.1413  1.4796 -0.5974
 4099TIP3    H233789   4.873   3.187  15.124  1.9649  1.3680  2.3239
 4100TIP3   OH233790   2.628   3.838   3.331 -0.1812 -0.5121 -0.1235
 4100TIP3    H133791   2.665   3.897   3.265 -1.7396  0.2517 -0.3642
 4100TIP3    H233792   2.704   3.799   3.374  0.8672 -0.8159 -2.1663
 4101TIP3   OH233793   3.597   2.243   6.218 -0.1734  0.0711  0.2164
 4101TIP3    H133794   3.680   2.266   6.259 -1.1233  2.8002  0.8335
 4101TIP3    H233795   3.531   2.261   6.286 -1.4726  0.7498 -1.1575
 4102TIP3   OH233796   6.654   0.135  11.851  0.4798 -0.1655  0.0312
 4102TIP3    H133797   6.672   0.063  11.790 -1.6670 -1.7816  1.1822
 4102TIP3    H233798   6.561   0.154  11.839  0.2745  0.2357  1.9757
 4103TIP3   OH233799   0.378   5.345   5.888 -0.4884 -0.1400 -0.4774
 4103TIP3    H133800   0.360   5.311   5.976 -0.2405  0.4611 -0.1937
 4103TIP3    H233801   0.441   5.416   5.901 -0.4287 -0.0574 -1.1444
 4104TIP3   OH233802   2.781   4.070  13.352 -0.0906  0.6290 -0.5833
 4104TIP3    H133803   2.829   4.130  13.294  0.5773 -0.9882 -1.7905
 4104TIP3    H233804   2.848   4.009  13.383 -0.9053 -0.0714 -0.1613
 4105TIP3   OH233805   5.436   6.434   3.015  0.1028  0.2226 -0.0197
 4105TIP3    H133806   5.495   6.454   3.087 -0.1755  2.8567 -0.4033
 4105TIP3    H233807   5.349   6.437   3.054  0.0816 -2.4885  0.3057
 4106TIP3   OH233808   4.141   1.956   2.501 -0.8173  0.3400  0.5271
 4106TIP3    H133809   4.154   2.003   2.584 -0.0186 -1.9196  1.7562
 4106TIP3    H233810   4.078   1.887   2.522  1.5848 -2.1545  0.1299
 4107TIP3   OH233811   1.508   6.258  11.547  0.1048  0.4563  0.4459
 4107TIP3    H133812   1.552   6.207  11.615  0.3698  0.7901  0.5290
 4107TIP3    H233813   1.573   6.266  11.477  0.7975  2.3150  1.2194
 4108TIP3   OH233814   0.204   0.291  11.771 -0.5183  0.1683  1.3620
 4108TIP3    H133815   0.115   0.324  11.779  0.1231  2.2286  0.6404
 4108TIP3    H233816   0.250   0.329  11.846  0.7709  3.0181 -0.6756
 4109TIP3   OH233817   6.356   1.960  11.229  0.1214 -0.0222 -0.5106
 4109TIP3    H133818   6.264   1.932  11.228  0.4214 -1.0921 -0.0856
 4109TIP3    H233819   6.400   1.899  11.171  1.1112 -1.6993  1.8449
 4110TIP3   OH233820   0.778   3.791   0.856 -0.4987  0.4099  0.5659
 4110TIP3    H133821   0.839   3.756   0.791 -0.1466  2.9574 -0.6027
 4110TIP3    H233822   0.737   3.865   0.812 -1.3263  1.3397  2.7862
 4111TIP3   OH233823   2.998   0.248  14.510 -0.8403 -0.3315 -0.1317
 4111TIP3    H133824   2.931   0.192  14.548 -1.6879 -0.0974 -1.2556
 4111TIP3    H233825   2.954   0.331  14.493  0.1654  0.3893  0.6415
 4112TIP3   OH233826   0.661   4.816   0.931  0.2378 -0.6258  0.5203
 4112TIP3    H133827   0.600   4.804   0.859  1.2851 -0.8591 -0.3673
 4112TIP3    H233828   0.609   4.853   1.002 -0.3833  1.9077 -1.1327
 4113TIP3   OH233829   6.405   6.054  12.989  0.7623 -0.0469 -0.2592
 4113TIP3    H133830   6.376   5.991  12.923  1.7661 -2.3358  1.3446
 4113TIP3    H233831   6.325   6.098  13.017  0.3087  0.9905 -2.9206
 4114TIP3   OH233832   2.472   0.740   0.913  0.2681 -0.4477  0.0595
 4114TIP3    H133833   2.380   0.753   0.935  0.1451  1.1529 -1.1781
 4114TIP3    H233834   2.481   0.777   0.825  2.3611  0.7504  0.6977
 4115TIP3   OH233835   0.257   0.953  10.651  0.3064 -0.1845 -0.4411
 4115TIP3    H133836   0.333   0.898  10.630 -0.0232 -1.0360  0.5189
 4115TIP3    H233837   0.221   0.978  10.566  1.6924  0.3003 -0.9154
 4116TIP3   OH233838   3.195   5.551   4.306  0.5576  0.5109  0.0582
 4116TIP3    H133839   3.258   5.485   4.334 -1.1843 -0.9345  0.7837
 4116TIP3    H233840   3.202   5.621   4.371 -0.4851 -0.8994  1.7843
 4117TIP3   OH233841   5.296   1.866   3.543  0.4409  1.0437 -0.0658
 4117TIP3    H133842   5.257   1.787   3.581  0.6157  0.6140 -0.7693
 4117TIP3    H233843   5.390   1.847   3.540  0.5965  1.6559  0.6383
 4118TIP3   OH233844   2.986   3.266   3.562  0.0565  0.1941  0.0640
 4118TIP3    H133845   2.957   3.355   3.546  1.2669  0.6041  0.0618
 4118TIP3    H233846   3.051   3.274   3.632 -0.6152 -0.8240  0.8354
 4119TIP3   OH233847   1.434   4.968   4.481  0.1904 -0.0965  0.2420
 4119TIP3    H133848   1.369   4.978   4.411 -0.0180  0.3769  0.4996
 4119TIP3    H233849   1.484   5.049   4.478 -0.0622  0.0872  0.8837
 4120TIP3   OH233850   5.291   6.296  15.894  0.4169 -0.7244 -0.1283
 4120TIP3    H133851   5.381   6.322  15.910 -0.1231  0.2048  1.7563
 4120TIP3    H233852   5.273   6.320  15.803  1.7485 -0.0016 -0.2077
 4121TIP3   OH233853   4.778   6.666  13.131 -0.1144 -0.4182 -0.3776
 4121TIP3    H133854   4.826   6.723  13.070 -0.1131 -0.6612 -0.6023
 4121TIP3    H233855   4.846   6.625  13.184 -0.0956 -0.4903 -0.4583
 4122TIP3   OH233856   3.269   3.148  11.695 -0.0742  0.1763  0.0052
 4122TIP3    H133857   3.347   3.121  11.743  0.1584  2.1952  0.8874
 4122TIP3    H233858   3.220   3.201  11.758  0.2503  2.9752 -1.8940
 4123TIP3   OH233859   3.673   6.649  13.089 -0.2393  0.1218  0.0553
 4123TIP3    H133860   3.608   6.670  13.022  0.0807  1.5136  0.1371
 4123TIP3    H233861   3.691   6.556  13.078 -1.8196 -0.1648 -0.3409
 4124TIP3   OH233862   0.515   0.516   2.021 -0.0243 -0.1474  0.4605
 4124TIP3    H133863   0.592   0.534   2.076 -0.0383  1.4464  0.0050
 4124TIP3    H233864   0.441   0.540   2.075 -0.2816 -2.0574  1.0452
 4125TIP3   OH233865   1.486   5.860  15.337  0.5368  0.7100  0.1605
 4125TIP3    H133866   1.417   5.830  15.278  1.0701 -0.4534  0.0924
 4125TIP3    H233867   1.451   5.847  15.425 -0.0871  2.0289  0.1337
 4126TIP3   OH233868   1.914   0.519   3.175 -1.0804  0.6183 -0.6831
 4126TIP3    H133869   1.954   0.438   3.206 -2.2220  0.4256  0.4135
 4126TIP3    H233870   1.879   0.498   3.089 -1.3867 -0.0691 -0.3975
 4127TIP3   OH233871   6.561   2.156  16.008 -0.0799  0.4870 -0.3018
 4127TIP3    H133872   6.571   2.228  15.946 -1.7385  1.8667  0.9332
 4127TIP3    H233873   6.597   2.189  16.090 -3.2176  1.0369  1.0006
 4128TIP3   OH233874   5.586   3.256  14.698 -0.2752  0.3613 -0.5016
 4128TIP3    H133875   5.626   3.314  14.763 -0.3706  0.2379 -0.3323
 4128TIP3    H233876   5.658   3.230  14.641 -0.0928  0.0454 -0.1264
 4129TIP3   OH233877   5.252   5.985  15.823  0.0930  0.0500  0.3987
 4129TIP3    H133878   5.221   6.073  15.804 -0.3284 -0.0655  0.5503
 4129TIP3    H233879   5.338   5.980  15.780 -0.7173 -0.1084 -1.2694
 4130TIP3   OH233880   4.397   0.449  13.312 -0.8161  0.3808  0.6966
 4130TIP3    H133881   4.480   0.494  13.299 -0.9138 -0.0113 -1.6981
 4130TIP3    H233882   4.333   0.519  13.323 -0.5178  0.7682  0.0238
 4131TIP3   OH233883   5.720   0.645   2.041  0.0777 -0.2474  0.4770
 4131TIP3    H133884   5.716   0.718   1.980 -1.3423 -0.0125  0.8204
 4131TIP3    H233885   5.784   0.672   2.107 -0.4679  0.7245  0.6248
 4132TIP3   OH233886   6.560   4.813  11.063  0.4519  0.1336 -0.4813
 4132TIP3    H133887   6.477   4.847  11.031 -1.8441 -1.1889  3.4735
 4132TIP3    H233888   6.612   4.891  11.083 -0.6520  1.0371 -1.0195
 4133TIP3   OH233889   5.539   5.686   0.291 -0.5056  0.4899  0.2694
 4133TIP3    H133890   5.483   5.759   0.267  1.3863  3.3013  3.5132
 4133TIP3    H233891   5.628   5.720   0.283  0.4776 -1.6037  1.4477
 4134TIP3   OH233892   0.223   2.819   3.269 -0.0634 -0.1198 -0.1957
 4134TIP3    H133893   0.192   2.860   3.350  1.3057 -0.2661  0.4254
 4134TIP3    H233894   0.220   2.725   3.286 -2.5981 -0.3421 -1.3992
 4135TIP3   OH233895   6.097   2.733  11.749  0.3356  0.1972 -0.0999
 4135TIP3    H133896   6.064   2.766  11.666 -1.2467  1.5319  1.0095
 4135TIP3    H233897   6.028   2.751  11.812  0.9276 -1.9739  1.3037
 4136TIP3   OH233898   3.530   4.127   2.974  0.8710  0.0315  0.5074
 4136TIP3    H133899   3.571   4.092   2.895 -0.2280  0.1531 -0.1454
 4136TIP3    H233900   3.555   4.219   2.975  0.8741  0.0348  0.2784
 4137TIP3   OH233901   1.760   5.461   0.198  0.5265  0.2415  0.4244
 4137TIP3    H133902   1.698   5.408   0.149  0.1282  1.4336 -0.4201
 4137TIP3    H233903   1.790   5.405   0.269  0.1963 -1.1172 -0.4835
 4138TIP3   OH233904   4.440   6.801   0.338 -0.4047 -0.2746  0.1190
 4138TIP3    H133905   4.451   6.848   0.255  0.4622 -3.3587 -1.6740
 4138TIP3    H233906   4.362   6.748   0.325  0.1012 -1.2755  1.0408
 4139TIP3   OH233907   2.544   0.539   0.391  0.4778  0.5697  0.1731
 4139TIP3    H133908   2.634   0.539   0.359 -0.1147  1.3782 -1.6490
 4139TIP3    H233909   2.493   0.578   0.319 -1.3348  0.0622  1.1193
 4140TIP3   OH233910   4.028   3.134  11.655  0.2055 -0.8231 -0.2037
 4140TIP3    H133911   4.017   3.127  11.560  0.9498  1.2398 -0.4888
 4140TIP3    H233912   4.109   3.087  11.673  0.0509 -1.2435 -0.5781
 4141TIP3   OH233913   4.785   0.771  12.871  0.2444 -0.4154 -0.1693
 4141TIP3    H133914   4.785   0.678  12.851 -2.0983 -0.4511 -0.2878
 4141TIP3    H233915   4.824   0.777  12.958  0.2596 -1.5117 -0.0929
 4142TIP3   OH233916   3.988   0.330   6.400  0.1578 -0.1472  1.0187
 4142TIP3    H133917   4.067   0.384   6.396 -0.0256  0.0600 -0.3803
 4142TIP3    H233918   3.981   0.292   6.313 -0.1833 -1.7942  1.7269
 4143TIP3   OH233919   1.622   4.414  11.336 -0.5190  0.1419  0.1260
 4143TIP3    H133920   1.563   4.361  11.282 -0.4317  0.4625 -0.2884
 4143TIP3    H233921   1.685   4.451  11.274 -1.6931  2.2461  0.1203
 4144TIP3   OH233922   3.049   0.059   3.431 -0.3615  0.4456 -0.2872
 4144TIP3    H133923   2.979   0.008   3.390  0.2888 -0.7020 -0.0188
 4144TIP3    H233924   3.092  -0.003   3.491 -0.5114  1.7224  1.2217
 4145TIP3   OH233925   6.220   1.758  10.301 -0.0410  0.0780  0.0108
 4145TIP3    H133926   6.208   1.852  10.286 -0.0363  0.2516  0.9968
 4145TIP3    H233927   6.264   1.753  10.386 -0.5814 -0.8263  0.2553
 4146TIP3   OH233928   6.048   2.921  14.319  0.3497  0.0630 -0.1958
 4146TIP3    H133929   6.059   2.835  14.359  1.0084 -0.3205 -1.1723
 4146TIP3    H233930   6.138   2.951  14.302  0.0926  0.4518 -0.8807
 4147TIP3   OH233931   3.916   1.480   3.080  0.0123 -0.7317 -0.2941
 4147TIP3    H133932   3.887   1.422   3.010  0.6501 -1.5189  0.0703
 4147TIP3    H233933   3.867   1.450   3.157  0.3601 -0.8043 -0.0985
 4148TIP3   OH233934   4.181   3.182  11.006 -0.0095 -0.7646  0.3647
 4148TIP3    H133935   4.143   3.105  11.050 -1.0121  0.0498  0.9670
 4148TIP3    H233936   4.107   3.243  10.996  0.7811  0.1489 -0.0434
 4149TIP3   OH233937   3.766   2.991  16.958 -0.5045  0.5449 -0.2444
 4149TIP3    H133938   3.718   3.073  16.973  1.2018  1.2203  1.9341
 4149TIP3    H233939   3.704   2.923  16.983 -0.8490  1.3378  1.1643
 4150TIP3   OH233940   2.853   0.812  17.090  0.2711  0.0951  0.5870
 4150TIP3    H133941   2.831   0.722  17.064 -0.0681  0.2824  0.2092
 4150TIP3    H233942   2.770   0.849  17.121  0.7082 -0.1756  2.1210
 4151TIP3   OH233943   0.956   0.372  11.585 -0.3040 -0.6747 -0.5807
 4151TIP3    H133944   0.863   0.353  11.580 -0.6962  1.2423 -1.4157
 4151TIP3    H233945   0.972   0.391  11.677 -1.2398  1.1770 -0.7720
 4152TIP3   OH233946   6.423   1.549   2.884  0.1266 -0.7121 -0.3598
 4152TIP3    H133947   6.410   1.457   2.910 -1.8429 -0.6820 -1.0783
 4152TIP3    H233948   6.358   1.563   2.815  0.6740  1.1213 -0.5317
 4153TIP3   OH233949   0.086   2.538  14.676 -0.4306 -0.2328  0.0022
 4153TIP3    H133950   0.090   2.476  14.749 -1.7774  0.9086  1.1082
 4153TIP3    H233951   0.002   2.520  14.634 -1.0856  1.1400  0.6616
 4154TIP3   OH233952   0.357   6.448   2.801  0.1361  0.0667 -0.2393
 4154TIP3    H133953   0.407   6.498   2.866  0.2983  0.6448 -0.8078
 4154TIP3    H233954   0.414   6.443   2.725 -0.1483 -0.4131 -0.4260
 4155TIP3   OH233955   1.361   4.146  13.198  0.0475 -0.1350 -0.0320
 4155TIP3    H133956   1.400   4.193  13.124 -1.0923 -0.1831 -0.6758
 4155TIP3    H233957   1.339   4.215  13.261  1.9034 -0.1724  0.7255
 4156TIP3   OH233958   1.106   1.281   5.229 -0.1912  0.4773  0.0733
 4156TIP3    H133959   1.098   1.254   5.138  1.6422  2.3967 -0.7579
 4156TIP3    H233960   1.124   1.200   5.277 -0.1578 -0.4405 -1.4246
 4157TIP3   OH233961   3.062   5.638  15.976 -0.3101  0.5323 -0.4849
 4157TIP3    H133962   2.978   5.674  15.947 -0.8103 -0.4194 -0.2783
 4157TIP3    H233963   3.045   5.607  16.065 -0.6477 -2.4103 -1.4732
 4158TIP3   OH233964   6.183   6.419   0.889  0.1080  0.0392 -0.4419
 4158TIP3    H133965   6.265   6.378   0.863  0.4275 -0.7568  1.6189
 4158TIP3    H233966   6.141   6.354   0.946 -0.4368  1.6554  1.1003
 4159TIP3   OH233967   5.475   3.798  13.543  0.5202  0.0061  0.1297
 4159TIP3    H133968   5.520   3.716  13.524  0.4177 -0.3418  1.3230
 4159TIP3    H233969   5.384   3.781  13.518  0.8914  0.5395 -1.7885
 4160TIP3   OH233970   2.230   6.795  12.214  0.1041 -0.7897 -0.4209
 4160TIP3    H133971   2.157   6.756  12.262 -0.2913  0.1739 -0.2231
 4160TIP3    H233972   2.280   6.842  12.281 -0.9932  1.3857 -1.0466
 4161TIP3   OH233973   0.623   4.303   1.449 -0.1889 -0.3553 -0.0576
 4161TIP3    H133974   0.611   4.222   1.399  3.3976 -1.0562 -0.0334
 4161TIP3    H233975   0.678   4.277   1.523 -0.1439  1.8795  0.7605
 4162TIP3   OH233976   6.160   3.977   1.378 -0.6751  0.1503 -0.1547
 4162TIP3    H133977   6.140   4.046   1.314  4.0332  0.9467 -1.1475
 4162TIP3    H233978   6.215   3.915   1.330 -0.6317 -1.6152  2.0226
 4163TIP3   OH233979   1.309   5.722  10.889  0.2034  0.0979 -0.1844
 4163TIP3    H133980   1.363   5.753  10.962 -0.5212 -0.8944  0.8087
 4163TIP3    H233981   1.342   5.634  10.870 -0.7097 -0.3138  0.0864
 4164TIP3   OH233982   3.056   4.851   3.006  0.2538 -0.6089 -0.1853
 4164TIP3    H133983   3.080   4.901   3.085 -0.9939 -1.4101  0.7343
 4164TIP3    H233984   3.140   4.829   2.966  0.9040  0.1985  0.6725
 4165TIP3   OH233985   5.218   5.549  10.620  0.3670 -0.0306  0.6568
 4165TIP3    H133986   5.309   5.558  10.595 -0.0180 -0.9505 -1.2159
 4165TIP3    H233987   5.193   5.636  10.652  2.1235 -0.0225  2.1812
 4166TIP3   OH233988   2.435   3.517   6.034  1.0496 -0.0021  0.3156
 4166TIP3    H133989   2.415   3.584   6.099 -0.9086  0.1616 -0.3940
 4166TIP3    H233990   2.417   3.559   5.950  0.4180 -1.1913 -0.1706
 4167TIP3   OH233991   0.745   1.081   0.030 -1.0219  0.2945  0.0922
 4167TIP3    H133992   0.663   1.083  -0.019 -0.7224  2.3214 -0.4373
 4167TIP3    H233993   0.736   1.152   0.094  0.2567  0.5022  0.0720
 4168TIP3   OH233994   2.174   6.247  16.769  0.6250  0.1681  0.0541
 4168TIP3    H133995   2.178   6.166  16.819  2.7504 -0.7502 -1.4515
 4168TIP3    H233996   2.083   6.275  16.777  0.1288 -1.6544  1.6833
 4169TIP3   OH233997   2.471   0.449  12.579  0.2077  0.1893  0.2435
 4169TIP3    H133998   2.410   0.383  12.613 -1.3470  2.4657  2.2553
 4169TIP3    H233999   2.415   0.524  12.559  2.0092  1.2372 -1.1352
 4170TIP3   OH234000   1.076   3.418   2.620  0.2201 -0.0640 -0.1782
 4170TIP3    H134001   1.143   3.378   2.564  0.4112  1.1994 -0.8744
 4170TIP3    H234002   1.072   3.361   2.697 -1.7266 -3.3236 -2.3929
 4171TIP3   OH234003   6.435   6.675  15.784 -0.6887 -0.1962  0.0879
 4171TIP3    H134004   6.356   6.727  15.767 -0.5648 -0.8670 -3.2981
 4171TIP3    H234005   6.501   6.740  15.808 -1.6120  0.6936  0.3026
 4172TIP3   OH234006   0.586   0.837  15.300 -0.2482 -0.0947  0.3437
 4172TIP3    H134007   0.622   0.748  15.290  1.1901  0.5874 -0.9447
 4172TIP3    H234008   0.504   0.824  15.348  0.2627 -2.0441  0.7955
 4173TIP3   OH234009   5.572   5.384   1.687 -0.4575  0.0803  0.0734
 4173TIP3    H134010   5.589   5.433   1.607  0.1229 -0.1239  0.0708
 4173TIP3    H234011   5.644   5.408   1.746 -1.0149  0.4291  0.6284
 4174TIP3   OH234012   1.327   2.324  11.264  0.2344 -0.2354 -0.0082
 4174TIP3    H134013   1.279   2.355  11.341 -1.2692 -1.7272 -0.2865
 4174TIP3    H234014   1.374   2.402  11.233  0.4223  0.5371  2.0463
 4175TIP3   OH234015   4.131   5.915  13.777 -0.2948  0.1499 -0.5094
 4175TIP3    H134016   4.204   5.972  13.802 -0.2518 -0.0500 -0.1769
 4175TIP3    H234017   4.084   5.965  13.710 -0.1166  0.4738 -0.3964
 4176TIP3   OH234018   0.058   2.689   0.697 -0.3410 -0.3300  0.0090
 4176TIP3    H134019  -0.034   2.682   0.723 -0.5204 -1.9499 -0.9642
 4176TIP3    H234020   0.056   2.716   0.606  0.1178 -0.9510 -0.1972
 4177TIP3   OH234021   4.344   0.222   4.372  0.1079  0.0511 -0.3779
 4177TIP3    H134022   4.357   0.312   4.340  0.2455 -0.2150 -1.0841
 4177TIP3    H234023   4.382   0.222   4.460 -0.6490  0.9124 -0.0260
 4178TIP3   OH234024   1.921   6.464   5.172  0.4648  0.2783  0.4468
 4178TIP3    H134025   1.998   6.426   5.215 -0.0500 -0.6969  0.5442
 4178TIP3    H234026   1.850   6.451   5.234  0.2001  1.1016  0.3254
 4179TIP3   OH234027   3.281   5.536   4.041  0.2724 -0.2271  0.3436
 4179TIP3    H134028   3.200   5.495   4.009  0.9919 -2.6240  1.3540
 4179TIP3    H234029   3.264   5.553   4.134 -0.2109  2.5014 -0.1569
 4180TIP3   OH234030   3.892   6.024  16.794  0.3913 -0.2926  0.0774
 4180TIP3    H134031   3.982   6.051  16.777  0.9114 -1.3388  1.0030
 4180TIP3    H234032   3.855   6.094  16.848  0.9792 -0.3352  0.5399
 4181TIP3   OH234033   1.689   3.301   0.743 -0.7277 -0.1288  0.5635
 4181TIP3    H134034   1.634   3.371   0.776 -1.3636 -0.7121  0.7406
 4181TIP3    H234035   1.731   3.264   0.820 -0.5818 -0.1047  0.4962
 4182TIP3   OH234036   4.540   0.558  16.191 -0.2736  0.1850  0.0204
 4182TIP3    H134037   4.591   0.510  16.126  0.5872  0.3670  0.5433
 4182TIP3    H234038   4.601   0.623  16.226 -0.8521  0.3785  0.6973
 4183TIP3   OH234039   6.132   6.615   2.358  0.2777 -0.0515 -0.5877
 4183TIP3    H134040   6.218   6.629   2.319  0.7353  0.9432  0.7235
 4183TIP3    H234041   6.111   6.523   2.338  0.2119  0.5053 -3.6272
 4184TIP3   OH234042   6.284   3.443  14.037  0.0471 -0.0555 -0.3737
 4184TIP3    H134043   6.308   3.531  14.069  0.5621 -0.5022  0.5174
 4184TIP3    H234044   6.344   3.384  14.083  0.0483 -0.8347 -1.3539
 4185TIP3   OH234045   5.218   0.970   0.551  0.2415  1.0033 -0.3870
 4185TIP3    H134046   5.263   0.941   0.630 -0.2208 -0.6094 -0.6630
 4185TIP3    H234047   5.282   0.958   0.481 -0.0441  0.3184 -0.5427
 4186TIP3   OH234048   2.092   1.549   2.192 -0.2763  0.1806  0.5734
 4186TIP3    H134049   2.163   1.591   2.239  0.7186  0.3624 -1.0128
 4186TIP3    H234050   2.013   1.596   2.220  0.3606  0.7522  1.4643
 4187TIP3   OH234051   5.874   5.237   1.159  0.0707  0.2734  0.5816
 4187TIP3    H134052   5.834   5.252   1.245 -1.6702 -0.3492 -0.0654
 4187TIP3    H234053   5.849   5.147   1.137  4.0144 -1.2013  1.1889
 4188TIP3   OH234054   2.519   2.549  17.198  0.6184 -0.2529  0.0375
 4188TIP3    H134055   2.448   2.613  17.192 -0.7555 -1.5507  1.6442
 4188TIP3    H234056   2.511   2.498  17.117 -0.1550 -0.2326  0.0890
 4189TIP3   OH234057   1.331   0.783   0.973  0.2493  0.2910 -0.3332
 4189TIP3    H134058   1.244   0.818   0.952  0.2073  0.4554  0.1038
 4189TIP3    H234059   1.376   0.779   0.889 -0.7292 -1.3198 -0.8149
 4190TIP3   OH234060   5.579   0.037  13.099 -0.2589  0.1843  0.0617
 4190TIP3    H134061   5.503  -0.021  13.099  0.1923 -0.4332 -0.8516
 4190TIP3    H234062   5.559   0.103  13.165  0.7341 -2.9654  3.8449
 4191TIP3   OH234063   0.777   1.022  13.614  0.4049  0.2571 -0.2924
 4191TIP3    H134064   0.755   0.981  13.697  2.6921  0.7110  0.6078
 4191TIP3    H234065   0.820   0.953  13.564  0.5671  0.4491 -0.4176
 4192TIP3   OH234066   4.979   6.257  11.283 -0.2092  0.4326 -0.1443
 4192TIP3    H134067   5.059   6.268  11.232 -0.1118  0.5283  0.0292
 4192TIP3    H234068   4.941   6.344  11.289 -0.5804  0.3088 -0.6348
 4193TIP3   OH234069   6.106   2.036   2.273  0.1198 -0.3763 -0.1913
 4193TIP3    H134070   6.144   1.955   2.239 -1.7257 -1.0209 -0.8802
 4193TIP3    H234071   6.138   2.043   2.362  0.9046 -1.4673 -0.3754
 4194TIP3   OH234072   3.988   3.287   1.146  0.0529 -0.0674 -0.2719
 4194TIP3    H134073   4.008   3.201   1.183  1.4303 -0.1786 -1.2254
 4194TIP3    H234074   3.893   3.297   1.159 -0.1288 -1.7162 -0.1399
 4195TIP3   OH234075   0.470   2.209  11.459  0.3016 -0.2748  0.7408
 4195TIP3    H134076   0.470   2.294  11.416  0.0395 -0.6090  0.0600
 4195TIP3    H234077   0.529   2.219  11.533  0.6617  0.3525  0.3722
 4196TIP3   OH234078   3.369   5.128   1.802 -0.4460 -0.0914 -0.1474
 4196TIP3    H134079   3.275   5.145   1.808 -0.3493  1.0079 -1.2341
 4196TIP3    H234080   3.406   5.167   1.882 -0.9364 -0.7606  0.4082
 4197TIP3   OH234081   5.755   0.858  13.592 -0.7199  0.3514 -0.3164
 4197TIP3    H134082   5.828   0.914  13.565 -0.1410  0.8056  1.9872
 4197TIP3    H234083   5.680   0.917  13.597 -0.7500  0.3330 -0.5099
 4198TIP3   OH234084   0.009   0.967   4.807  0.2306 -0.5933 -0.4579
 4198TIP3    H134085   0.047   0.907   4.871  1.7777 -0.1638 -0.9437
 4198TIP3    H234086   0.062   1.046   4.813 -1.7189  0.7509  0.1100
 4199TIP3   OH234087   5.975   2.444   4.552  0.3654  0.3280  0.0748
 4199TIP3    H134088   5.916   2.370   4.568 -1.0805  1.5835  0.7843
 4199TIP3    H234089   5.994   2.478   4.639 -0.8179  2.1427 -0.3214
 4200TIP3   OH234090   4.605   6.791   6.472  0.0547  0.1815 -0.0149
 4200TIP3    H134091   4.680   6.817   6.418  0.1877 -0.2587 -0.0407
 4200TIP3    H234092   4.603   6.857   6.542  0.9790 -0.2829  0.4684
 4201TIP3   OH234093   2.096   2.342  15.292  0.0212  0.3999 -0.2624
 4201TIP3    H134094   2.126   2.415  15.347 -1.6032 -0.0309  1.2811
 4201TIP3    H234095   2.003   2.359  15.280 -0.0435 -0.5944 -1.2236
 4202TIP3   OH234096   5.124   3.345  14.972  0.4470  0.0394 -0.3933
 4202TIP3    H134097   5.120   3.434  14.936  0.5890 -0.7803 -2.5711
 4202TIP3    H234098   5.189   3.300  14.918 -1.2942 -2.0197 -0.9067
 4203TIP3   OH234099   2.480   0.154  17.090 -0.3897 -0.4757  0.0910
 4203TIP3    H134100   2.491   0.169  16.996  2.0192  0.0039  0.3996
 4203TIP3    H234101   2.524   0.070  17.106 -0.3644 -0.3206  0.8697
 4204TIP3   OH234102   1.294   1.566   1.341  0.3947 -0.5073  0.0761
 4204TIP3    H134103   1.323   1.521   1.262 -0.3431 -0.8433 -0.0156
 4204TIP3    H234104   1.200   1.579   1.328  0.3935  0.0611  0.5948
 4205TIP3   OH234105   2.515   2.651  13.591  0.0435 -0.1713  0.1456
 4205TIP3    H134106   2.462   2.662  13.512 -1.3125  2.1217  1.2699
 4205TIP3    H234107   2.604   2.668  13.563 -0.2817 -0.3819 -1.0626
 4206TIP3   OH234108   0.993   0.808  12.114 -0.0531 -0.5546  0.3683
 4206TIP3    H134109   1.008   0.791  12.021 -0.3813 -0.3171  0.2733
 4206TIP3    H234110   1.027   0.897  12.128 -0.4594 -0.3977  0.3667
 4207TIP3   OH234111   2.353   1.366  15.594 -0.6717 -0.0159  0.6265
 4207TIP3    H134112   2.435   1.385  15.548  0.0116 -2.2066  0.8026
 4207TIP3    H234113   2.287   1.419  15.549  0.7969  1.7655  0.4480
 4208TIP3   OH234114   5.444   4.304   5.605  0.2746 -0.2869 -0.4998
 4208TIP3    H134115   5.381   4.356   5.555  0.0573  0.5514  0.5972
 4208TIP3    H234116   5.409   4.214   5.601  0.0141 -0.1503 -1.4354
 4209TIP3   OH234117   5.428   6.717   3.176  0.6545 -0.0992  0.3050
 4209TIP3    H134118   5.522   6.722   3.157  0.7698  1.7923  1.1544
 4209TIP3    H234119   5.394   6.803   3.152 -0.3672  0.1353  2.3748
 4210TIP3   OH234120   6.325   0.807   3.461 -0.2337  0.4931  1.1041
 4210TIP3    H134121   6.333   0.837   3.552  1.9242  0.3748  1.0050
 4210TIP3    H234122   6.363   0.720   3.461 -0.9186  0.1838  0.2176
 4211TIP3   OH234123   4.442   0.534   3.243  1.0676 -0.1434 -0.2260
 4211TIP3    H134124   4.418   0.573   3.328  3.3215 -0.5849  0.7014
 4211TIP3    H234125   4.411   0.597   3.178  1.5098  1.4957  1.0766
 4212TIP3   OH234126   3.206   2.170  15.823 -0.0177  0.0034 -0.4531
 4212TIP3    H134127   3.240   2.081  15.825 -0.3565 -0.1849 -1.9333
 4212TIP3    H234128   3.111   2.160  15.814 -0.0951  0.5188 -0.2791
 4213TIP3   OH234129   3.932   5.636  13.362  0.1269 -0.1727  0.0670
 4213TIP3    H134130   3.985   5.715  13.350  0.9133 -0.6831  0.0860
 4213TIP3    H234131   3.991   5.564  13.336 -0.1024 -0.8585  1.3842
 4214TIP3   OH234132   3.350   5.496  11.597 -0.1020  0.3140 -0.5499
 4214TIP3    H134133   3.315   5.415  11.636  1.5118 -0.9795 -1.6526
 4214TIP3    H234134   3.288   5.516  11.526  0.0879 -0.6228 -1.0015
 4215TIP3   OH234135   4.731   1.038  10.494  0.1958 -0.3651  0.0632
 4215TIP3    H134136   4.680   1.111  10.529 -0.4027 -0.2032 -1.0799
 4215TIP3    H234137   4.665   0.978  10.459  0.6730 -1.5311  1.1071
 4216TIP3   OH234138   5.858   5.375   2.109 -0.6184 -0.3324 -0.9977
 4216TIP3    H134139   5.813   5.312   2.052  0.1464 -2.1386  0.3010
 4216TIP3    H234140   5.886   5.323   2.185 -0.3342  1.6811  0.3543
 4217TIP3   OH234141   5.582   6.716   6.103  0.2641  0.6654 -0.3331
 4217TIP3    H134142   5.673   6.688   6.099 -0.0120 -0.1971 -0.8078
 4217TIP3    H234143   5.567   6.735   6.196  0.5626 -0.4685 -0.0402
 4218TIP3   OH234144   0.998   2.340   0.401  0.0935 -0.1402  0.1107
 4218TIP3    H134145   0.941   2.289   0.458  0.0101  0.3915  0.5049
 4218TIP3    H234146   0.997   2.292   0.318  0.1379 -0.8627  0.5141
 4219TIP3   OH234147   2.396   1.109  15.334  0.1397  0.0948  0.1519
 4219TIP3    H134148   2.413   1.195  15.297  0.1077  0.2050  0.3874
 4219TIP3    H234149   2.300   1.100  15.330  0.1155  0.2208  0.4577
 4220TIP3   OH234150   4.672   5.516  10.458  0.2965 -0.7180  0.1653
 4220TIP3    H134151   4.737   5.527  10.388  0.6480 -0.6910  0.4918
 4220TIP3    H234152   4.700   5.438  10.505  0.3233 -0.4752  0.5578
 4221TIP3   OH234153   2.266   5.384   4.788  0.0218  0.4532 -0.2551
 4221TIP3    H134154   2.316   5.359   4.710 -1.1908 -0.8274 -0.6713
 4221TIP3    H234155   2.198   5.317   4.795  0.0003  0.6263  1.8295
 4222TIP3   OH234156   6.755   1.145  15.125 -0.3894 -0.2202 -0.0658
 4222TIP3    H134157   6.673   1.157  15.076 -1.5278  0.6300  1.9240
 4222TIP3    H234158   6.742   1.065  15.175 -0.5970  0.6228  1.2824
 4223TIP3   OH234159   3.261   4.096  15.081  0.3275 -0.4858 -0.4419
 4223TIP3    H134160   3.167   4.108  15.073  0.1695 -0.6615  0.8294
 4223TIP3    H234161   3.275   4.002  15.070  0.4361 -0.3826 -1.2279
 4224TIP3   OH234162   5.523   4.402  10.466  0.4735 -0.2082 -0.2408
 4224TIP3    H134163   5.468   4.401  10.388  0.3141  0.2936 -0.1443
 4224TIP3    H234164   5.499   4.484  10.510 -0.5888 -1.2215  1.1518
 4225TIP3   OH234165   1.580   4.092   0.174 -0.4138 -0.1647  0.0445
 4225TIP3    H134166   1.503   4.111   0.228 -0.7742  0.1552 -0.5781
 4225TIP3    H234167   1.557   4.123   0.087  1.4106  2.4796  0.3604
 4226TIP3   OH234168   0.362   4.294  12.828  0.6003 -0.5755 -0.0719
 4226TIP3    H134169   0.411   4.242  12.892  1.4271  0.0095 -0.2180
 4226TIP3    H234170   0.352   4.235  12.753 -0.2339 -1.2092  0.5185
 4227TIP3   OH234171   0.453   1.495  14.910 -0.6162 -0.1164 -0.2278
 4227TIP3    H134172   0.472   1.582  14.875 -0.1186  0.4005  1.2174
 4227TIP3    H234173   0.481   1.435  14.842 -0.8190  0.8505 -1.1933
 4228TIP3   OH234174   0.294   3.930  14.678 -0.0024 -0.0809  0.2532
 4228TIP3    H134175   0.321   3.877  14.753  1.2629 -0.2429 -0.2908
 4228TIP3    H234176   0.348   3.899  14.606  0.2657  1.4548 -0.2549
 4229TIP3   OH234177   2.238   1.223   0.607  0.5967 -0.2438  0.1420
 4229TIP3    H134178   2.232   1.288   0.678  0.7541 -0.0699 -0.0034
 4229TIP3    H234179   2.150   1.187   0.600 -0.4838  2.5010 -2.1980
 4230TIP3   OH234180   1.261   1.705   4.083 -0.2372  0.2837  0.1420
 4230TIP3    H134181   1.177   1.673   4.052  0.1845 -0.3521 -0.3506
 4230TIP3    H234182   1.324   1.636   4.062 -0.1385 -0.9909  3.7789
 4231TIP3   OH234183   5.208   3.567   4.778 -0.5367  0.3450 -0.2664
 4231TIP3    H134184   5.132   3.530   4.823  1.0127 -1.7793  0.7637
 4231TIP3    H234185   5.264   3.600   4.848  0.3304  0.2070 -0.8823
 4232TIP3   OH234186   5.652   5.052   3.602  0.2227 -0.1145 -0.3728
 4232TIP3    H134187   5.558   5.040   3.584 -0.1813  1.0294  0.8323
 4232TIP3    H234188   5.678   5.124   3.545  0.2300 -0.0734 -0.3182
 4233TIP3   OH234189   4.534   1.169  15.796  0.6681 -0.3692  0.0302
 4233TIP3    H134190   4.446   1.143  15.770  0.5148  2.6417 -3.2532
 4233TIP3    H234191   4.521   1.235  15.864  0.2558  0.7350 -1.0857
 4234TIP3   OH234192   1.587   1.098   4.472 -0.2500 -0.4886  0.3919
 4234TIP3    H134193   1.580   1.009   4.508 -0.8765 -1.4239 -1.8085
 4234TIP3    H234194   1.666   1.095   4.418 -0.3742  0.2424  0.1701
 4235TIP3   OH234195   2.236   3.772  10.501 -0.7452 -0.1073  0.3609
 4235TIP3    H134196   2.298   3.705  10.529  0.1183  0.6870  0.3773
 4235TIP3    H234197   2.152   3.726  10.496 -0.1552 -1.2065  0.2917
 4236TIP3   OH234198   2.147   4.859  17.018  0.2296 -0.0639 -0.3707
 4236TIP3    H134199   2.226   4.901  17.049  0.5034 -0.9590  0.1738
 4236TIP3    H234200   2.133   4.894  16.930 -0.0065  1.7511  0.3589
 4237TIP3   OH234201   3.337   4.293   1.461 -0.7428 -0.4654  0.1593
 4237TIP3    H134202   3.380   4.349   1.396 -1.8910  1.1608  0.7377
 4237TIP3    H234203   3.336   4.206   1.421 -2.1050  0.6161 -2.3743
 4238TIP3   OH234204   0.766   4.273   0.399 -0.0828 -0.0951  0.3701
 4238TIP3    H134205   0.751   4.218   0.323  0.1451  0.1036  0.1800
 4238TIP3    H234206   0.822   4.344   0.367  0.0716 -0.0475  0.7368
 4239TIP3   OH234207   2.465   2.586   2.106  0.7642 -0.0977 -0.9779
 4239TIP3    H134208   2.543   2.552   2.062  1.1864 -0.8366  0.2936
 4239TIP3    H234209   2.415   2.508   2.130  0.7035  0.2659  0.1315
 4240TIP3   OH234210   5.400   3.923   4.659 -0.1367  0.3836 -0.0128
 4240TIP3    H134211   5.347   3.948   4.583  0.4503 -0.2289 -0.6508
 4240TIP3    H234212   5.489   3.950   4.636  0.1039 -0.1131  0.3041
 4241TIP3   OH234213   3.856   6.567   3.730 -0.2816  0.4450 -0.9128
 4241TIP3    H134214   3.897   6.627   3.792  0.6472 -1.3186  0.3043
 4241TIP3    H234215   3.785   6.526   3.780 -2.1239  1.8022 -2.2933
 4242TIP3   OH234216   3.563   1.717   6.082  0.0284  0.4907  0.1950
 4242TIP3    H134217   3.577   1.812   6.089 -1.9383  0.8929 -0.7527
 4242TIP3    H234218   3.643   1.679   6.118  0.2431  2.4854  2.0673
 4243TIP3   OH234219   2.633   2.644   2.869  0.7133  0.2857  0.2404
 4243TIP3    H134220   2.680   2.704   2.812 -1.6193 -0.5601 -2.8078
 4243TIP3    H234221   2.566   2.698   2.912 -0.5481  0.1799 -1.5099
 4244TIP3   OH234222   6.009   2.522   5.273  0.3192 -0.1898  0.5487
 4244TIP3    H134223   6.058   2.602   5.293  0.9546  0.2194 -2.2284
 4244TIP3    H234224   5.926   2.554   5.236  0.5885 -0.7932 -0.6043
 4245TIP3   OH234225   2.827   6.690   5.323 -0.0609 -0.6854 -0.3102
 4245TIP3    H134226   2.825   6.612   5.377 -0.8554 -2.5412 -2.8216
 4245TIP3    H234227   2.759   6.676   5.257  0.2543  1.7949 -1.3020
 4246TIP3   OH234228   1.595   6.790   0.712  0.1751 -0.6228 -0.4020
 4246TIP3    H134229   1.560   6.819   0.796  0.7546 -1.3189  0.0933
 4246TIP3    H234230   1.606   6.870   0.661 -1.6732 -0.3449 -0.4028
 4247TIP3   OH234231   3.308   0.150  14.624 -0.3429  0.1157 -0.1603
 4247TIP3    H134232   3.219   0.128  14.653 -0.9577  0.7751 -1.4646
 4247TIP3    H234233   3.305   0.244  14.607  0.1679 -0.1187 -1.6627
 4248TIP3   OH234234   2.338   4.911   6.228 -0.0204 -0.4213  0.5097
 4248TIP3    H134235   2.350   4.839   6.166  0.2510  0.4269 -0.4420
 4248TIP3    H234236   2.427   4.934   6.256 -0.0707 -0.1225  0.4239
 4249TIP3   OH234237   2.476   1.242  13.047 -0.3512  0.4723  0.2461
 4249TIP3    H134238   2.477   1.168  13.108 -0.3570  1.4315  1.4598
 4249TIP3    H234239   2.527   1.310  13.092 -1.2968  1.5977 -0.3302
 4250TIP3   OH234240   0.829   6.523  17.172  0.1916  0.3023 -0.0992
 4250TIP3    H134241   0.802   6.612  17.149 -1.2208 -0.0382  0.1811
 4250TIP3    H234242   0.886   6.496  17.100  1.6013  1.8396  0.3738
 4251TIP3   OH234243   3.831   1.251  11.532  0.1183  1.0505  1.3887
 4251TIP3    H134244   3.803   1.259  11.441 -1.0661  0.3818  1.6730
 4251TIP3    H234245   3.795   1.329  11.575  0.2006  1.0869  1.3905
 4252TIP3   OH234246   2.850   3.820  13.446 -0.4949 -0.3295 -0.1031
 4252TIP3    H134247   2.915   3.751  13.430 -1.0881 -1.0850  0.6630
 4252TIP3    H234248   2.766   3.780  13.424 -0.8400  0.1895  0.2384
 4253TIP3   OH234249   5.782   5.499   5.255 -0.1475 -0.1243  0.0967
 4253TIP3    H134250   5.817   5.525   5.340  0.5156  2.0399 -0.7872
 4253TIP3    H234251   5.851   5.446   5.216 -1.3342 -3.1833  1.7199
 4254TIP3   OH234252   6.101   3.673   0.749 -0.1768 -0.1313  0.7463
 4254TIP3    H134253   6.182   3.654   0.796 -0.2721 -0.0116  0.9597
 4254TIP3    H234254   6.056   3.738   0.803 -0.3467 -0.0864  0.5547
 4255TIP3   OH234255   1.383   1.303   4.963 -0.4070  0.2101  0.0488
 4255TIP3    H134256   1.401   1.331   5.052  1.1103 -1.4143  0.3095
 4255TIP3    H234257   1.447   1.234   4.946 -2.7279 -1.7872 -1.1681
 4256TIP3   OH234258   3.495   1.384  14.028  0.3385  0.1301  0.2392
 4256TIP3    H134259   3.540   1.299  14.025  0.1165  0.0083  0.3011
 4256TIP3    H234260   3.554   1.440  14.078  0.3243 -0.0900  0.5080
 4257TIP3   OH234261   4.243   1.743  14.296 -0.0671  0.0038  0.6267
 4257TIP3    H134262   4.213   1.795  14.370 -1.0633  0.3671 -0.0106
 4257TIP3    H234263   4.318   1.791  14.262 -1.8171  1.8891 -0.8358
 4258TIP3   OH234264   5.045   3.677   6.259  0.0117  0.0245  0.2530
 4258TIP3    H134265   5.015   3.671   6.349  2.7093 -1.3757  1.1629
 4258TIP3    H234266   5.059   3.586   6.232  0.1875  0.4640 -1.2500
 4259TIP3   OH234267   4.324   6.289   6.559  0.2061 -0.2047  0.0300
 4259TIP3    H134268   4.250   6.303   6.619  0.4796 -0.1012  0.3481
 4259TIP3    H234269   4.292   6.226   6.496 -0.5822  0.7751 -0.5892
 4260TIP3   OH234270   2.548   6.588  13.056  0.2317  0.4712 -0.3342
 4260TIP3    H134271   2.605   6.626  12.989  0.3288  1.0959  0.0995
 4260TIP3    H234272   2.607   6.541  13.114  0.1987  0.3346 -0.4097
 4261TIP3   OH234273   4.378   0.485   1.900  0.0590 -0.2254 -0.3085
 4261TIP3    H134274   4.462   0.505   1.859  0.9971 -0.0116  1.5871
 4261TIP3    H234275   4.382   0.530   1.985 -2.6727  1.2426 -0.8156
 4262TIP3   OH234276   4.926   6.781  15.691  0.6069  0.0631 -0.4472
 4262TIP3    H134277   4.949   6.833  15.613  0.6482  2.0980  0.8395
 4262TIP3    H234278   4.981   6.817  15.760 -1.3311  0.1758  1.1155
 4263TIP3   OH234279   0.375   5.680   1.717  0.1578  0.4557  0.9088
 4263TIP3    H134280   0.430   5.733   1.775 -0.2531  1.2556  0.5764
 4263TIP3    H234281   0.392   5.716   1.630 -0.0864  0.0030  0.6754
 4264TIP3   OH234282   0.053   0.066  14.575 -0.1616 -0.0862  0.1985
 4264TIP3    H134283   0.148   0.054  14.577  0.3103  2.5372 -1.3918
 4264TIP3    H234284   0.038   0.119  14.497 -3.0018 -0.7310  0.2248
 4265TIP3   OH234285   1.959   6.034   4.342  0.1291 -0.3145  0.5848
 4265TIP3    H134286   1.936   6.042   4.435 -1.5704 -1.5738  0.3211
 4265TIP3    H234287   2.042   5.986   4.342  0.0492 -0.4667  1.4507
 4266TIP3   OH234288   4.152   1.139  16.852  0.2397 -0.1225  0.0919
 4266TIP3    H134289   4.177   1.067  16.909  1.2132  1.2690  1.4852
 4266TIP3    H234290   4.226   1.149  16.792  0.3781  0.1263  0.3053
 4267TIP3   OH234291   6.110   0.816  13.976 -0.1887 -0.2919  0.3846
 4267TIP3    H134292   6.074   0.738  14.019  0.8811 -1.1666 -0.2449
 4267TIP3    H234293   6.036   0.854  13.929 -0.6997 -0.9963  0.5998
 4268TIP3   OH234294   5.119   2.046   5.406 -0.4812  0.4954 -0.1153
 4268TIP3    H134295   5.024   2.048   5.414 -0.4322  1.6696  0.3696
 4268TIP3    H234296   5.148   2.125   5.451  0.5396  1.6707 -2.6404
 4269TIP3   OH234297   2.209   4.793  12.176 -0.0566 -0.0347  0.0788
 4269TIP3    H134298   2.180   4.873  12.131  0.7004  0.2498  0.0877
 4269TIP3    H234299   2.224   4.730  12.106  3.0562  1.0057 -0.3221
 4270TIP3   OH234300   2.131   2.604   2.765  0.4886 -0.0323 -0.1835
 4270TIP3    H134301   2.106   2.601   2.673 -1.1550  0.7509  0.1979
 4270TIP3    H234302   2.099   2.522   2.802 -1.8652  1.0502  0.3451
 4271TIP3   OH234303   5.723   5.712  12.656  0.3104 -0.5085 -0.2120
 4271TIP3    H134304   5.647   5.757  12.692  0.7293 -0.6122  0.8110
 4271TIP3    H234305   5.715   5.622  12.687 -0.1043 -0.9811 -1.6049
 4272TIP3   OH234306   5.707   2.664  12.190  0.6084 -0.3381 -0.3421
 4272TIP3    H134307   5.799   2.687  12.199  0.2127  1.1087  0.2807
 4272TIP3    H234308   5.664   2.745  12.163 -0.6456 -0.7045  0.4582
 4273TIP3   OH234309   3.104   0.472   6.477  0.8328  0.1346  0.2849
 4273TIP3    H134310   3.131   0.527   6.550  1.1744  1.2655 -0.6607
 4273TIP3    H234311   3.019   0.507   6.451  2.4876  2.5749 -2.4772
 4274TIP3   OH234312   1.293   2.203   6.614 -0.4780 -0.0862 -0.2254
 4274TIP3    H134313   1.311   2.168   6.527  0.0931 -0.5103  0.0513
 4274TIP3    H234314   1.373   2.186   6.664 -1.2074 -0.9547  0.7239
 4275TIP3   OH234315   1.961   4.301   1.433 -0.0972 -0.2117  0.1632
 4275TIP3    H134316   2.049   4.270   1.453 -0.0938  0.4877  1.2908
 4275TIP3    H234317   1.904   4.246   1.487 -0.0441  2.1529  2.8462
 4276TIP3   OH234318   2.127   2.815   4.697 -0.5027  0.4307 -0.1221
 4276TIP3    H134319   2.163   2.790   4.782  0.8804  1.6244 -0.3286
 4276TIP3    H234320   2.179   2.766   4.633 -0.0756  1.1743 -0.3609
 4277TIP3   OH234321   2.250   5.400  12.401  0.0227 -0.0690  0.0984
 4277TIP3    H134322   2.290   5.321  12.437 -3.5753 -0.6357  3.4039
 4277TIP3    H234323   2.294   5.472  12.446 -1.2594 -0.5958  2.3245
 4278TIP3   OH234324   2.513   6.339  16.527 -0.4329  0.5610 -0.2757
 4278TIP3    H134325   2.454   6.265  16.544  0.7190 -0.3640 -0.1988
 4278TIP3    H234326   2.481   6.409  16.585 -2.5231  0.7180 -1.4909
 4279TIP3   OH234327   4.228   1.352   6.305 -0.0836  0.2550 -0.5409
 4279TIP3    H134328   4.189   1.421   6.358  0.1487  0.7255 -0.9644
 4279TIP3    H234329   4.179   1.273   6.327 -0.1923  0.5080  0.1306
 4280TIP3   OH234330   1.359   2.009  13.730  0.3394 -0.1388 -0.4549
 4280TIP3    H134331   1.366   1.999  13.635  0.3127  0.4435 -0.5222
 4280TIP3    H234332   1.411   2.086  13.750 -3.6449  2.8989 -0.6689
 4281TIP3   OH234333   6.018   4.694  11.953  0.0144  0.0856 -0.2771
 4281TIP3    H134334   6.060   4.723  12.034 -0.2867 -1.0836  0.3281
 4281TIP3    H234335   5.927   4.676  11.979 -0.0814 -0.2965 -0.8604
 4282TIP3   OH234336   1.161   6.493  13.117  0.4811 -0.5208  0.4583
 4282TIP3    H134337   1.216   6.415  13.119  2.3896  0.7183 -0.6352
 4282TIP3    H234338   1.187   6.543  13.194  0.2722 -0.3338  0.4081
 4283TIP3   OH234339   2.359   0.966   2.468  0.2401 -0.3614 -0.0404
 4283TIP3    H134340   2.369   1.018   2.388  0.7229 -0.4369 -0.0306
 4283TIP3    H234341   2.337   1.029   2.536 -2.0307 -0.4936 -0.5818
 4284TIP3   OH234342   1.787   3.969  14.947  0.0988  0.0643  0.2326
 4284TIP3    H134343   1.853   3.936  15.008  0.2036 -0.4568 -0.1508
 4284TIP3    H234344   1.839   4.003  14.874 -0.0507 -0.2305 -0.0127
 4285TIP3   OH234345   2.196   2.011  13.663  0.2338  0.4109  0.3624
 4285TIP3    H134346   2.144   1.939  13.629  2.9561 -0.7214 -1.8877
 4285TIP3    H234347   2.133   2.072  13.701 -2.6235 -0.9462 -1.8750
 4286TIP3   OH234348   6.354   5.071   3.840  0.6202 -0.4810  0.2834
 4286TIP3    H134349   6.288   5.110   3.782  0.5384 -1.5775 -0.3839
 4286TIP3    H234350   6.384   5.144   3.894  2.7166  1.3619 -2.9648
 4287TIP3   OH234351   5.263   5.077  12.535  0.5028 -0.2897 -0.0598
 4287TIP3    H134352   5.292   5.006  12.476  2.9738 -0.0246  0.7124
 4287TIP3    H234353   5.285   5.157  12.488 -1.1314 -0.0218 -0.3954
 4288TIP3   OH234354   4.798   3.662  14.167 -0.2300  0.4822  0.3705
 4288TIP3    H134355   4.767   3.704  14.247  1.6521  1.1942  0.7911
 4288TIP3    H234356   4.853   3.589  14.198  2.0735  1.8929 -0.1354
 4289TIP3   OH234357   1.560   0.782   2.621 -0.5090 -0.2991 -0.2170
 4289TIP3    H134358   1.621   0.796   2.693 -1.9757 -1.6445  1.3655
 4289TIP3    H234359   1.575   0.857   2.563  2.4269 -0.4420  0.1944
 4290TIP3   OH234360   2.031   5.735   1.551 -0.5667 -0.5521 -0.3710
 4290TIP3    H134361   2.048   5.724   1.457  0.8172 -1.2631 -0.0661
 4290TIP3    H234362   2.105   5.693   1.594 -0.3703  1.1321  1.0465
 4291TIP3   OH234363   6.228   0.983   2.845  0.4834 -0.1774 -0.0841
 4291TIP3    H134364   6.311   0.998   2.891 -0.0838 -0.2706  0.9852
 4291TIP3    H234365   6.162   1.026   2.899 -0.3189 -1.0669 -0.3385
 4292TIP3   OH234366   4.872   6.074  16.244 -0.3476  0.1785 -0.4875
 4292TIP3    H134367   4.790   6.051  16.288 -0.0429 -0.7833 -0.3944
 4292TIP3    H234368   4.864   6.037  16.156  0.4737 -1.0367 -0.0819
 4293TIP3   OH234369   5.293   2.998  14.097 -0.4689 -0.0793  0.0966
 4293TIP3    H134370   5.385   3.021  14.109 -0.9248  1.2819  1.3035
 4293TIP3    H234371   5.278   2.927  14.159 -0.5037  0.4929  0.7525
 4294TIP3   OH234372   1.158   6.702   5.858  0.5371 -0.2097  0.5098
 4294TIP3    H134373   1.088   6.748   5.905  2.7442  2.9945  0.9834
 4294TIP3    H234374   1.190   6.638   5.922 -0.3021  0.0190  1.1907
 4295TIP3   OH234375   1.445   0.067  15.084 -0.0448  0.2944 -0.1290
 4295TIP3    H134376   1.443   0.031  15.173 -0.2522  0.1580 -0.1883
 4295TIP3    H234377   1.417  -0.006  15.028  1.0435  0.0700 -0.4092
 4296TIP3   OH234378   2.703   4.985  17.268  0.6612  0.1466 -0.9128
 4296TIP3    H134379   2.734   5.056  17.212  0.8845  0.8940  0.1267
 4296TIP3    H234380   2.693   5.025  17.354  2.4103 -1.4642  0.1016
 4297TIP3   OH234381   6.483   6.586  10.911  0.2747 -0.2786 -0.4348
 4297TIP3    H134382   6.399   6.623  10.937  0.3161 -0.7222  0.3828
 4297TIP3    H234383   6.465   6.493  10.897  1.0195 -0.8446  1.8831
 4298TIP3   OH234384   1.096   3.889   2.653  0.2797 -0.1410 -0.0431
 4298TIP3    H134385   1.039   3.857   2.722  0.5515 -2.6335 -0.8788
 4298TIP3    H234386   1.121   3.977   2.681 -1.1008 -0.3568  2.0664
 4299TIP3   OH234387   3.358   4.786   3.696  0.5360 -0.5483  0.3125
 4299TIP3    H134388   3.395   4.874   3.690 -2.3399  0.8063  0.7514
 4299TIP3    H234389   3.344   4.760   3.605  0.0749  0.0613  0.2063
 4300TIP3   OH234390   0.254   6.807  11.164 -0.0788 -0.0006 -0.1912
 4300TIP3    H134391   0.349   6.800  11.149 -0.1491 -0.0821 -0.6067
 4300TIP3    H234392   0.238   6.901  11.173  0.1118 -0.0186  0.3587
 4301TIP3   OH234393   6.784   5.701   0.298 -0.4781  0.2142  0.1799
 4301TIP3    H134394   6.736   5.665   0.372  0.4079 -1.6085 -0.0688
 4301TIP3    H234395   6.743   5.663   0.220 -1.4932  2.2186 -0.3284
 4302TIP3   OH234396   4.352   4.490  11.398  0.5101 -0.4514  0.8206
 4302TIP3    H134397   4.316   4.554  11.459 -0.0668 -0.0380  0.0599
 4302TIP3    H234398   4.438   4.525  11.373 -1.0219  1.6965 -1.9689
 4303TIP3   OH234399   6.496   6.085   4.580  0.1883 -0.5365 -0.3073
 4303TIP3    H134400   6.407   6.058   4.557  0.1563 -1.2162  0.5638
 4303TIP3    H234401   6.502   6.176   4.549 -1.1696 -0.1212  0.5457
 4304TIP3   OH234402   1.104   2.315   2.058  0.1193  0.2177  0.2415
 4304TIP3    H134403   1.109   2.409   2.046  1.1541  0.1160 -0.2147
 4304TIP3    H234404   1.112   2.279   1.970 -2.8146 -0.2527  0.0652
 4305TIP3   OH234405   3.286   5.332  15.056  0.0457 -0.6684 -0.0308
 4305TIP3    H134406   3.202   5.308  15.015  0.1302 -0.5542 -0.2729
 4305TIP3    H234407   3.339   5.365  14.984 -0.3783  1.0937  0.4234
 4306TIP3   OH234408   2.157   2.784   0.301  0.0439 -0.1747 -0.4556
 4306TIP3    H134409   2.099   2.806   0.374 -0.0233  0.0588 -0.5769
 4306TIP3    H234410   2.121   2.834   0.227  0.6544  0.3152 -0.4263
 4307TIP3   OH234411   4.404   5.573  10.854  0.2535  0.2450 -0.0329
 4307TIP3    H134412   4.313   5.585  10.828 -0.0686  0.6480  1.2084
 4307TIP3    H234413   4.409   5.482  10.884  0.9576 -0.6689 -2.6699
 4308TIP3   OH234414   6.469   0.054   3.300 -0.1513  0.4004  0.2052
 4308TIP3    H134415   6.510  -0.014   3.247  0.9041  0.3614  1.0402
 4308TIP3    H234416   6.537   0.081   3.362 -1.4035  0.3144  1.6802
 4309TIP3   OH234417   3.627   3.873  14.428  0.5542  0.3292 -0.5480
 4309TIP3    H134418   3.557   3.839  14.372  0.8340 -0.4431 -0.4341
 4309TIP3    H234419   3.588   3.950  14.470 -0.5791 -0.6598  0.2802
 4310TIP3   OH234420   2.600   0.487   1.018  0.5876 -0.1431  0.6205
 4310TIP3    H134421   2.667   0.508   1.083  0.0990  1.4543  0.6526
 4310TIP3    H234422   2.579   0.571   0.977 -0.5311 -0.8081 -0.2335
 4311TIP3   OH234423   3.253   0.152   4.377 -0.4947  0.4369 -0.3977
 4311TIP3    H134424   3.320   0.208   4.416 -0.4210 -0.2800  0.5209
 4311TIP3    H234425   3.171   0.183   4.415 -0.5144  0.2858 -0.3171
 4312TIP3   OH234426   4.043   1.728   6.621 -0.4511  0.0434 -0.3083
 4312TIP3    H134427   4.032   1.808   6.673 -0.1486  1.0186 -1.7026
 4312TIP3    H234428   4.017   1.658   6.680  0.3049  1.0692  1.3213
 4313TIP3   OH234429   4.864   3.309  14.782 -0.1902  0.0814  0.6625
 4313TIP3    H134430   4.880   3.308  14.876  1.1476  0.4427  0.4592
 4313TIP3    H234431   4.803   3.381  14.769  0.7352  0.9610  1.1015
 4314TIP3   OH234432   1.747   0.076  14.195 -0.2935 -0.3089 -0.0272
 4314TIP3    H134433   1.665   0.029  14.205  0.5930 -1.8293  0.3787
 4314TIP3    H234434   1.725   0.152  14.141 -1.7556 -1.2265 -0.7678
 4315TIP3   OH234435   2.238   2.428   0.994  0.3767  0.2666 -0.6782
 4315TIP3    H134436   2.328   2.453   1.011  0.5191 -1.6225  2.1007
 4315TIP3    H234437   2.191   2.452   1.073 -1.1113 -0.6511 -1.2326
 4316TIP3   OH234438   2.804   2.966  11.770  0.4376  0.2094 -0.2996
 4316TIP3    H134439   2.795   2.872  11.789 -0.6445  0.5005  0.7188
 4316TIP3    H234440   2.887   2.972  11.724  0.8856 -1.1648  0.2508
 4317TIP3   OH234441   4.577   0.301   1.675 -0.3695 -0.5654 -0.5481
 4317TIP3    H134442   4.572   0.255   1.758 -0.2764 -1.0344 -0.7983
 4317TIP3    H234443   4.496   0.278   1.629 -0.8669  0.4536 -0.2030
 4318TIP3   OH234444   2.843   6.084  15.480  0.6671 -0.1440 -0.0309
 4318TIP3    H134445   2.829   6.028  15.556  0.8961 -0.6299 -0.3366
 4318TIP3    H234446   2.787   6.046  15.412  0.3486  0.3752 -0.0649
 4319TIP3   OH234447   5.425   1.036   3.065 -0.0803  0.3892 -0.9208
 4319TIP3    H134448   5.507   1.044   3.114  0.4547  0.0869 -1.7520
 4319TIP3    H234449   5.386   1.124   3.069 -0.5118  0.1470  0.8213
 4320TIP3   OH234450   1.672   4.056   5.647 -0.4325 -0.3684 -0.2042
 4320TIP3    H134451   1.679   3.992   5.718  0.7622  1.2205  1.2054
 4320TIP3    H234452   1.628   4.009   5.576  0.0535 -2.6136  0.8859
 4321TIP3   OH234453   6.805   1.282   2.060  0.1640  0.5990  0.4033
 4321TIP3    H134454   6.733   1.345   2.052 -0.0599  0.3567  0.4662
 4321TIP3    H234455   6.884   1.334   2.055 -0.0202  0.8804  0.4134
 4322TIP3   OH234456   3.618   1.378  15.613  0.6007 -0.7992  0.0310
 4322TIP3    H134457   3.594   1.467  15.587 -0.6209 -1.5395 -1.5628
 4322TIP3    H234458   3.688   1.353  15.554  1.5523 -0.6109  1.0548
 4323TIP3   OH234459   4.871   5.786   2.875  0.4479  0.2576  0.4585
 4323TIP3    H134460   4.844   5.839   2.801  1.0333  0.2986  0.2690
 4323TIP3    H234461   4.826   5.824   2.950  1.0740  1.1970  0.3695
 4324TIP3   OH234462   2.024   4.102  15.265 -0.7893 -0.0744 -0.6887
 4324TIP3    H134463   2.033   4.174  15.327  0.7456 -1.5701  0.9682
 4324TIP3    H234464   1.931   4.079  15.267 -1.1887  1.4736 -0.8204
 4325TIP3   OH234465   0.385   0.894  12.918  0.2689 -0.3376  0.3909
 4325TIP3    H134466   0.300   0.894  12.961  0.0133 -0.6435 -0.1029
 4325TIP3    H234467   0.424   0.978  12.941 -0.8764  0.5372 -0.7615
 4326TIP3   OH234468   2.158   4.299  13.663 -0.1102 -0.3453  0.0098
 4326TIP3    H134469   2.151   4.225  13.723 -0.3794 -0.8396 -0.6133
 4326TIP3    H234470   2.110   4.370  13.706 -0.5841 -0.7962  0.2311
 4327TIP3   OH234471   2.856   0.098   4.658  0.5385 -0.2138 -0.3763
 4327TIP3    H134472   2.888   0.189   4.653 -2.2677  0.7965 -2.1618
 4327TIP3    H234473   2.926   0.051   4.705  2.0760  2.8347  0.6756
 4328TIP3   OH234474   1.759   4.711  11.214  0.2902  0.0805 -0.3261
 4328TIP3    H134475   1.694   4.776  11.189  0.2458  0.0016 -0.4171
 4328TIP3    H234476   1.832   4.762  11.250  0.0323  0.1539  0.1096
 4329TIP3   OH234477   5.868   0.193   2.226 -0.2276 -0.8433 -0.0663
 4329TIP3    H134478   5.788   0.150   2.195  0.5182  0.2337 -3.9110
 4329TIP3    H234479   5.870   0.277   2.180  1.0295  1.1391  3.2127
 4330TIP3   OH234480   4.129   0.538  16.699 -0.3340  0.5012 -0.5820
 4330TIP3    H134481   4.203   0.486  16.730 -0.7900  0.5981  0.7325
 4330TIP3    H234482   4.062   0.527  16.767 -1.5262  0.4383 -1.7297
 4331TIP3   OH234483   2.677   1.118  14.991  0.2009  0.0615 -0.0688
 4331TIP3    H134484   2.645   1.208  14.999 -2.3491 -0.6813 -0.9123
 4331TIP3    H234485   2.646   1.089  14.905 -2.2498 -2.7184  1.5625
 4332TIP3   OH234486   6.576   5.847   2.219 -0.1939  0.1715  0.1162
 4332TIP3    H134487   6.594   5.841   2.313  1.3600  0.0496 -0.1662
 4332TIP3    H234488   6.510   5.780   2.203 -0.7078  0.4003  1.1574
 4333TIP3   OH234489   0.299   2.462   3.666  0.0365  0.3425 -0.0602
 4333TIP3    H134490   0.227   2.456   3.729  0.6969  0.3501  0.7144
 4333TIP3    H234491   0.375   2.490   3.718  0.7830 -0.3970 -0.7061
 4334TIP3   OH234492   4.006   1.295   3.424  0.1856 -0.5504 -0.1263
 4334TIP3    H134493   4.015   1.201   3.441  0.4500 -0.3744  0.7442
 4334TIP3    H234494   4.085   1.318   3.375 -0.6250 -1.0773 -1.7737
 4335TIP3   OH234495   5.270   2.107  13.925 -0.3822 -0.6513 -0.2689
 4335TIP3    H134496   5.314   2.025  13.903  0.2905 -0.0817 -1.1321
 4335TIP3    H234497   5.180   2.081  13.945 -0.4802 -1.4848 -1.6455
 4336TIP3   OH234498   3.339   1.345   0.817 -0.1584  0.3363 -0.0491
 4336TIP3    H134499   3.394   1.351   0.738 -0.9320  0.4773 -0.5855
 4336TIP3    H234500   3.378   1.274   0.867  0.2314  0.1112 -0.6526
 4337TIP3   OH234501   0.127   1.196  14.154 -0.1235  0.1008 -0.8168
 4337TIP3    H134502   0.199   1.255  14.132  0.3757  0.4217  1.3505
 4337TIP3    H234503   0.171   1.118  14.188 -0.7713  0.0407 -0.0871
 4338TIP3   OH234504   0.868   6.392   4.779 -0.2391 -0.5843  0.1975
 4338TIP3    H134505   0.849   6.317   4.723  0.0472 -2.0212  1.9234
 4338TIP3    H234506   0.783   6.417   4.817 -0.2866 -0.2233 -0.1412
 4339TIP3   OH234507   4.438   1.348  15.973 -0.5347 -0.0650  0.1819
 4339TIP3    H134508   4.440   1.439  16.001 -1.7600 -0.5473  1.9452
 4339TIP3    H234509   4.356   1.313  16.007 -0.2240 -1.7634 -0.6905
 4340TIP3   OH234510   0.458   5.246   3.711 -0.1281 -0.0499  0.0264
 4340TIP3    H134511   0.499   5.284   3.788  2.1198 -0.5470 -0.8438
 4340TIP3    H234512   0.451   5.319   3.649  1.8368 -0.4370 -0.7197
 4341TIP3   OH234513   4.639   5.184   2.171 -0.2770 -0.3863  0.1788
 4341TIP3    H134514   4.626   5.108   2.227 -0.8599  0.0600  0.6699
 4341TIP3    H234515   4.730   5.210   2.185 -0.7874  0.6022  2.0902
 4342TIP3   OH234516   5.463   4.119  16.214 -0.2880 -0.2700  0.3758
 4342TIP3    H134517   5.449   4.153  16.126  0.4893  1.5450  0.8932
 4342TIP3    H234518   5.548   4.075  16.210  0.2809  0.8006  0.4660
 4343TIP3   OH234519   2.824   2.146   0.093  0.4839 -0.6765  0.2620
 4343TIP3    H134520   2.862   2.223   0.051 -2.5761  0.0443 -1.5060
 4343TIP3    H234521   2.821   2.080   0.023 -1.3678 -0.6881  0.3016
 4344TIP3   OH234522   4.929   0.945  16.705 -0.6612  0.1905 -0.3677
 4344TIP3    H134523   4.992   1.002  16.749  0.3603  0.0748 -1.6531
 4344TIP3    H234524   4.922   0.979  16.616 -0.7238 -1.1409 -0.8955
 4345TIP3   OH234525   6.239   0.760   4.363  0.2982  0.2878 -0.4446
 4345TIP3    H134526   6.218   0.703   4.437  1.0870 -0.8378 -1.0411
 4345TIP3    H234527   6.276   0.839   4.402  1.1017 -0.4703  0.3665
 4346TIP3   OH234528   5.011   5.295  10.980  0.7756  0.4945  0.2741
 4346TIP3    H134529   4.930   5.248  11.001  0.4897  0.5138 -0.7446
 4346TIP3    H234530   4.983   5.381  10.950  1.2195  0.7449  0.5493
 4347TIP3   OH234531   3.377   2.148  13.255  0.7707 -0.7238 -0.2495
 4347TIP3    H134532   3.372   2.221  13.317 -0.2655 -0.2430 -0.8730
 4347TIP3    H234533   3.395   2.189  13.171  0.9502 -1.2602 -0.4711
 4348TIP3   OH234534   4.762   5.878   6.419 -0.1820 -0.0241  0.2599
 4348TIP3    H134535   4.836   5.916   6.373 -1.1630  0.2785 -1.1284
 4348TIP3    H234536   4.789   5.788   6.438  0.2900 -0.1335 -0.8433
 4349TIP3   OH234537   2.119   0.298   1.515 -0.5325  0.1606  0.3192
 4349TIP3    H134538   2.049   0.363   1.525  0.0888  1.3095 -1.9922
 4349TIP3    H234539   2.199   0.346   1.538 -0.3277 -0.7161  1.5296
 4350TIP3   OH234540   3.012   3.658  16.329  0.2262 -1.0347 -0.2460
 4350TIP3    H134541   3.025   3.751  16.350 -0.7808 -1.0183  0.3950
 4350TIP3    H234542   3.001   3.616  16.415 -1.2403 -1.4179 -0.5958
 4351TIP3   OH234543   6.781   3.322   0.001  0.1808  0.5525  0.2625
 4351TIP3    H134544   6.862   3.295   0.044  0.6700  1.0291 -0.3561
 4351TIP3    H234545   6.802   3.405  -0.041 -0.5555  0.5553 -0.1174
 4352TIP3   OH234546   1.762   4.209   2.359 -0.0836  0.3646  0.2415
 4352TIP3    H134547   1.684   4.264   2.363 -1.6690 -1.5794 -1.4828
 4352TIP3    H234548   1.729   4.119   2.365  1.6101 -0.6968 -3.2841
 4353TIP3   OH234549   2.910   5.467  14.253 -0.2229  0.6243 -0.2506
 4353TIP3    H134550   2.920   5.372  14.261 -1.6186  0.4172 -0.6493
 4353TIP3    H234551   2.828   5.486  14.300 -1.9412  1.0965 -3.2088
 4354TIP3   OH234552   0.904   1.929   5.121  0.5260 -0.0495 -0.3234
 4354TIP3    H134553   0.834   1.864   5.124 -1.7156  2.2427  0.6853
 4354TIP3    H234554   0.978   1.886   5.164 -1.7866 -0.9667  3.1507
 4355TIP3   OH234555   1.201   5.751  11.755  0.3222  0.3247  0.4886
 4355TIP3    H134556   1.296   5.755  11.741  0.4811  0.3240  1.4956
 4355TIP3    H234557   1.171   5.841  11.740  0.4501  0.2994  0.0398
 4356TIP3   OH234558   1.806   1.912  14.104  0.6359 -0.1812  0.7578
 4356TIP3    H134559   1.861   1.866  14.167 -0.5440 -2.8749 -0.0378
 4356TIP3    H234560   1.841   1.889  14.019 -1.1148 -1.2373  0.2704
 4357TIP3   OH234561   2.764   1.954  15.508 -0.0246 -0.4480  0.1520
 4357TIP3    H134562   2.796   1.992  15.427 -2.5217  0.5354 -0.4519
 4357TIP3    H234563   2.675   1.988  15.518  0.1373 -0.6278  3.2512
 4358TIP3   OH234564   1.234   6.516   3.607  0.1719 -0.8361  0.0119
 4358TIP3    H134565   1.250   6.497   3.514  0.6125 -1.4510  0.2047
 4358TIP3    H234566   1.213   6.431   3.645  0.4494 -0.6612  0.5678
 4359TIP3   OH234567   4.168   1.106  12.009  0.2695 -0.3537  0.1230
 4359TIP3    H134568   4.118   1.035  11.969  0.1886 -0.0589 -0.3011
 4359TIP3    H234569   4.249   1.064  12.040 -0.5804 -1.0095  1.5725
 4360TIP3   OH234570   4.172   3.342   2.439 -0.3644 -0.2977 -0.0189
 4360TIP3    H134571   4.240   3.382   2.492 -1.4623  1.3381  0.2159
 4360TIP3    H234572   4.217   3.312   2.360  0.5612  1.2167 -0.1013
 4361TIP3   OH234573   2.956   5.281   4.107  0.0362 -0.5193  0.1173
 4361TIP3    H134574   2.972   5.190   4.082 -0.6292 -0.4914 -0.4256
 4361TIP3    H234575   2.981   5.285   4.200 -0.2569 -1.3440  0.2396
 4362TIP3   OH234576   4.285   6.677   3.555  0.1870 -0.9291  0.0424
 4362TIP3    H134577   4.320   6.761   3.584  0.1312 -0.9733  0.2396
 4362TIP3    H234578   4.191   6.683   3.570  0.2286 -1.1750  0.4464
 4363TIP3   OH234579   1.655   4.240  12.797  0.6971  0.3164 -0.7186
 4363TIP3    H134580   1.730   4.217  12.742 -0.0547  0.1867 -1.7062
 4363TIP3    H234581   1.602   4.299  12.743  0.8918  1.7215  0.5572
 4364TIP3   OH234582   6.305   5.585  15.784 -0.7627 -0.0365  0.0328
 4364TIP3    H134583   6.393   5.553  15.803 -1.0570  0.0030  1.6567
 4364TIP3    H234584   6.316   5.677  15.763 -0.2058 -0.5175 -1.9426
 4365TIP3   OH234585   4.341   5.709  13.415  0.5130  0.4390 -0.1759
 4365TIP3    H134586   4.380   5.664  13.490 -0.9609  0.6739  0.7875
 4365TIP3    H234587   4.319   5.796  13.449 -0.5153  0.4239 -0.7668
 4366TIP3   OH234588   3.908   3.983   5.083 -0.2203 -0.0719  0.2419
 4366TIP3    H134589   3.870   4.071   5.081  2.8369  1.5138  2.6915
 4366TIP3    H234590   3.856   3.936   5.148  0.0027  1.0250  1.2533
 4367TIP3   OH234591   1.804   2.506  15.696 -0.1965 -0.0229  0.5146
 4367TIP3    H134592   1.855   2.495  15.776 -0.5608  0.3923  0.8052
 4367TIP3    H234593   1.854   2.569  15.644  0.6557 -1.1774 -0.1152
 4368TIP3   OH234594   2.120   1.391   0.340 -0.0127 -0.3762 -0.5743
 4368TIP3    H134595   2.089   1.437   0.418  2.3932 -0.2638  0.4090
 4368TIP3    H234596   2.085   1.442   0.267 -4.0818 -1.6435  0.2204
 4369TIP3   OH234597   2.932   2.330  17.025 -0.3400  0.6336  0.1895
 4369TIP3    H134598   2.943   2.251  16.972 -0.5980  1.3004 -0.8820
 4369TIP3    H234599   2.981   2.312  17.106  1.5489  0.2824 -0.9804
 4370TIP3   OH234600   5.480   4.551   1.631  0.3716  0.0311  0.1091
 4370TIP3    H134601   5.504   4.484   1.695 -1.0317 -0.3981  0.2226
 4370TIP3    H234602   5.425   4.612   1.680 -0.9976 -0.4855 -0.7161
 4371TIP3   OH234603   0.836   2.462   3.166 -0.3011 -0.3864  0.2617
 4371TIP3    H134604   0.810   2.401   3.235 -0.1704 -0.0519  0.6091
 4371TIP3    H234605   0.783   2.436   3.090  1.6137 -2.6217 -0.4098
 4372TIP3   OH234606   5.184   4.738  17.175  0.5362  0.2044  0.0436
 4372TIP3    H134607   5.212   4.647  17.169  2.4600  0.7805 -0.4138
 4372TIP3    H234608   5.261   4.785  17.206 -0.2257  1.7754 -0.3426
 4373TIP3   OH234609   6.329   1.857  11.486  0.3245 -0.7527  0.6377
 4373TIP3    H134610   6.367   1.878  11.401 -1.8877  1.0984  0.0150
 4373TIP3    H234611   6.330   1.761  11.490  3.2635 -0.8208 -0.0665
 4374TIP3   OH234612   5.411   1.584   5.921 -0.0417  0.0002 -0.2062
 4374TIP3    H134613   5.325   1.545   5.940  0.2859  0.2456  1.9810
 4374TIP3    H234614   5.399   1.678   5.934  0.2571  0.1799 -1.1636
 4375TIP3   OH234615   5.514   3.925  14.338 -0.2985  0.0507 -0.5074
 4375TIP3    H134616   5.444   3.989  14.327 -0.4406  0.2186  1.1088
 4375TIP3    H234617   5.527   3.920  14.432  0.4533 -1.5111 -0.6610
 4376TIP3   OH234618   0.661   2.818  13.692 -0.4407 -0.1991  0.1306
 4376TIP3    H134619   0.665   2.782  13.780  0.9519  0.5792  0.4178
 4376TIP3    H234620   0.689   2.909  13.702 -0.0878 -0.1506 -1.1371
 4377TIP3   OH234621   0.817   4.937  17.060 -0.0480  0.1593  0.0980
 4377TIP3    H134622   0.865   4.958  16.980  1.8772 -0.6201  1.0058
 4377TIP3    H234623   0.786   4.848  17.047  1.6602 -0.5764  0.8232
 4378TIP3   OH234624   0.142   0.327   4.737  0.0949 -0.6387 -0.1230
 4378TIP3    H134625   0.201   0.372   4.677  0.7460 -0.6417  0.5028
 4378TIP3    H234626   0.106   0.395   4.793 -1.4779 -0.4634 -1.2957
 4379TIP3   OH234627   5.690   3.695  16.885 -0.4879 -0.2398 -0.7668
 4379TIP3    H134628   5.686   3.599  16.888  1.7368 -0.3915 -0.6223
 4379TIP3    H234629   5.783   3.715  16.895 -0.9993  1.9951  0.1342
 4380TIP3   OH234630   1.256   5.102  13.983 -0.0989 -0.5231 -0.0662
 4380TIP3    H134631   1.294   5.074  13.900  0.3363 -1.1975  0.3479
 4380TIP3    H234632   1.168   5.131  13.961  1.2366  3.1413 -1.4376
 4381TIP3   OH234633   3.303   2.813  15.370 -0.1525 -0.3967  0.2640
 4381TIP3    H134634   3.243   2.740  15.381 -1.0702  0.4765  1.3640
 4381TIP3    H234635   3.284   2.871  15.444 -2.2343  2.8805 -2.5261
 4382TIP3   OH234636   4.713   2.393  15.563 -0.0006 -0.1655  0.2237
 4382TIP3    H134637   4.705   2.457  15.492 -0.3076  1.3375  1.5582
 4382TIP3    H234638   4.777   2.431  15.622  0.2007 -1.3596  0.7961
 4383TIP3   OH234639   1.544   1.155   3.342  0.0115 -0.4343  0.6024
 4383TIP3    H134640   1.601   1.092   3.387 -1.6328 -0.4485  2.8019
 4383TIP3    H234641   1.487   1.101   3.287  1.8526 -0.4336 -1.4496
 4384TIP3   OH234642   6.509   1.372   5.708  0.0712 -0.7301 -0.0187
 4384TIP3    H134643   6.422   1.349   5.741  0.3585  0.0308  1.3500
 4384TIP3    H234644   6.543   1.290   5.671 -1.7186 -0.7359 -1.8216
 4385TIP3   OH234645   2.633   0.311  13.965  0.4833  0.2811 -0.0031
 4385TIP3    H134646   2.675   0.256  14.030  1.4090  0.2713 -0.5927
 4385TIP3    H234647   2.705   0.355  13.920 -0.2028  1.4840  0.0179
 4386TIP3   OH234648   2.191   6.434  13.016  0.4074 -0.5853 -0.6768
 4386TIP3    H134649   2.214   6.470  12.931  1.3934 -2.3133 -1.1644
 4386TIP3    H234650   2.264   6.378  13.040 -1.2155 -2.5922 -0.1370
 4387TIP3   OH234651   1.350   2.441   5.990  0.2284  0.1273  0.1464
 4387TIP3    H134652   1.418   2.376   5.969  1.3634  0.8894  1.2860
 4387TIP3    H234653   1.382   2.523   5.951 -0.8718  0.1662 -0.7249
 4388TIP3   OH234654   6.574   2.056   2.813 -0.1378 -0.0496 -0.1921
 4388TIP3    H134655   6.487   2.093   2.825  0.2527  1.4533 -1.5662
 4388TIP3    H234656   6.567   1.965   2.842 -1.8187  0.3963  0.8946
 4389TIP3   OH234657   1.633   4.882  13.754 -0.4272 -0.3379 -0.2179
 4389TIP3    H134658   1.572   4.883  13.827  1.2839  1.0082  1.2801
 4389TIP3    H234659   1.623   4.795  13.715 -1.3060 -1.1341  1.6748
 4390TIP3   OH234660   4.396   5.343  10.994 -0.1313  0.3975 -0.4494
 4390TIP3    H134661   4.318   5.296  11.022 -0.2190  1.2914  0.9335
 4390TIP3    H234662   4.468   5.297  11.037 -0.3218  2.1942  2.0639
 4391TIP3   OH234663   3.026   2.235   4.868 -0.5731  0.0602  0.1311
 4391TIP3    H134664   3.073   2.179   4.807 -0.4596 -0.6472  0.8577
 4391TIP3    H234665   3.094   2.275   4.921 -0.8006 -2.2644  2.3160
 4392TIP3   OH234666   0.237   2.006   5.867 -0.4549 -0.1902 -0.0507
 4392TIP3    H134667   0.287   2.078   5.829 -0.3267 -0.6435 -0.7560
 4392TIP3    H234668   0.229   2.029   5.960  2.1711 -0.7265  0.3841
 4393TIP3   OH234669   1.673   4.247   1.415  0.1935 -0.1005  0.0577
 4393TIP3    H134670   1.686   4.225   1.323 -0.5250  1.4538 -0.4569
 4393TIP3    H234671   1.630   4.333   1.413 -0.6587 -0.4405  1.8243
 4394TIP3   OH234672   2.831   5.728  12.905  0.5687  0.4901 -0.0268
 4394TIP3    H134673   2.771   5.670  12.952  0.7048  1.3069  1.2049
 4394TIP3    H234674   2.890   5.761  12.972 -1.2929  4.3824  0.0191
 4395TIP3   OH234675   4.884   1.947  11.103 -0.1719 -0.0493  0.5544
 4395TIP3    H134676   4.975   1.966  11.078 -0.9239  1.5077 -1.2388
 4395TIP3    H234677   4.839   1.930  11.020 -1.3712 -1.6999  1.4769
 4396TIP3   OH234678   5.857   1.306  13.677  0.1674  0.5619 -0.3130
 4396TIP3    H134679   5.937   1.297  13.729 -0.6130  0.7869  0.9897
 4396TIP3    H234680   5.884   1.287  13.587  1.5736  0.1388  0.1691
 4397TIP3   OH234681   2.675   1.984   4.850  0.3750  0.4778  0.3043
 4397TIP3    H134682   2.619   2.058   4.874  0.0734 -0.0517  1.3016
 4397TIP3    H234683   2.742   1.981   4.919  0.6505  0.0926  0.0297
 4398TIP3   OH234684   5.315   5.935  12.575  0.1853  0.2657  0.3872
 4398TIP3    H134685   5.289   6.027  12.566 -0.2874  0.3502  2.2449
 4398TIP3    H234686   5.309   5.917  12.669 -0.5257 -1.8836  0.0019
 4399TIP3   OH234687   0.360   5.970   2.369  0.1291 -0.0211  0.3288
 4399TIP3    H134688   0.387   5.898   2.311  0.8792 -2.2854  3.2372
 4399TIP3    H234689   0.269   5.986   2.346 -0.2421 -2.3325 -0.0854
 4400TIP3   OH234690   2.988   1.547  16.414 -0.1566  0.1330 -0.0898
 4400TIP3    H134691   2.893   1.552  16.416 -0.2769 -1.5904 -0.0170
 4400TIP3    H234692   3.017   1.638  16.405 -1.7712  0.7772  0.7798
 4401TIP3   OH234693   3.255   2.790   6.061 -0.1558  0.1355 -0.3684
 4401TIP3    H134694   3.212   2.871   6.089  1.8359  0.7884  1.0565
 4401TIP3    H234695   3.293   2.811   5.976  0.4505  0.7856  0.0442
 4402TIP3   OH234696   6.701   3.680  14.158 -0.7456  0.2903 -0.2614
 4402TIP3    H134697   6.663   3.768  14.161  1.2957  1.2647 -0.8944
 4402TIP3    H234698   6.686   3.650  14.069  1.2154  1.3516 -1.0253
 4403TIP3   OH234699   5.894   2.656   5.917 -0.5511  0.2882 -0.0935
 4403TIP3    H134700   5.839   2.674   5.841 -0.2710 -1.0901 -0.6607
 4403TIP3    H234701   5.964   2.722   5.912  0.9943 -1.3515 -2.6392
 4404TIP3   OH234702   4.091   6.487  12.001 -0.5391 -0.1584  0.0374
 4404TIP3    H134703   4.059   6.408  11.958 -0.2980  0.4597 -1.3004
 4404TIP3    H234704   4.131   6.539  11.932  1.7664 -0.0769  1.3239
 4405TIP3   OH234705   5.512   6.509  14.236 -0.2565  0.2236 -0.2778
 4405TIP3    H134706   5.486   6.495  14.145 -1.0898 -0.1275  0.0028
 4405TIP3    H234707   5.571   6.584  14.233 -0.1030  0.0803 -1.1342
 4406TIP3   OH234708   4.182   3.772   2.672 -0.1503 -0.2905  0.0614
 4406TIP3    H134709   4.269   3.778   2.710 -0.4316  0.4029  0.6187
 4406TIP3    H234710   4.196   3.777   2.577  0.7129 -3.6423 -0.1235
 4407TIP3   OH234711   2.904   3.202  14.193 -0.1459 -0.4959 -0.1411
 4407TIP3    H134712   2.813   3.213  14.222 -0.2591  1.3801 -1.1100
 4407TIP3    H234713   2.914   3.262  14.119  1.3209 -2.1460 -1.3738
 4408TIP3   OH234714   0.083   2.384  12.141 -0.0993  0.1606  0.0617
 4408TIP3    H134715   0.056   2.421  12.057  1.2178 -0.2593 -0.5712
 4408TIP3    H234716   0.021   2.312  12.156  1.0453 -1.3057 -1.7483
 4409TIP3   OH234717   1.225   5.426   0.646  0.5252  0.1150 -0.1450
 4409TIP3    H134718   1.194   5.441   0.557  1.2805  1.5807 -0.1804
 4409TIP3    H234719   1.162   5.470   0.702  0.6382  0.1164 -0.0180
 4410TIP3   OH234720   4.790   5.197  13.530  0.1608  0.1824 -0.4934
 4410TIP3    H134721   4.746   5.232  13.452 -0.5237 -1.7577 -1.0288
 4410TIP3    H234722   4.844   5.270  13.561  0.1980  1.1194 -2.5756
 4411TIP3   OH234723   0.680   1.043   2.686  0.0640 -0.1072 -0.6808
 4411TIP3    H134724   0.621   1.067   2.615 -0.7528  0.8518  0.2858
 4411TIP3    H234725   0.644   0.961   2.720  0.4728 -0.5822 -1.3673
 4412TIP3   OH234726   3.390   3.918   4.503 -0.0130  0.1282  0.3630
 4412TIP3    H134727   3.373   3.846   4.442  1.8821 -0.1111  0.0389
 4412TIP3    H234728   3.348   3.891   4.585  0.1139 -1.0415  0.0631
 4413TIP3   OH234729   2.252   4.988   4.512 -0.5168 -0.2131  0.0371
 4413TIP3    H134730   2.172   5.010   4.561 -0.5643  0.2503 -0.2493
 4413TIP3    H234731   2.226   4.914   4.457  0.1391 -2.3490  2.3745
 4414TIP3   OH234732   5.211   6.511  15.057  0.4330 -0.0648  0.2053
 4414TIP3    H134733   5.203   6.596  15.014  0.1651 -0.0949  0.1929
 4414TIP3    H234734   5.194   6.530  15.150  1.1259  0.0191  0.3196
 4415TIP3   OH234735   2.773   0.393  14.827 -0.3456 -0.2731 -0.1959
 4415TIP3    H134736   2.707   0.460  14.811 -1.6252 -0.9161  1.8758
 4415TIP3    H234737   2.810   0.416  14.913  0.9995 -0.8312 -0.5950
 4416TIP3   OH234738   6.694   3.946  14.519  0.1532  0.2726 -0.2010
 4416TIP3    H134739   6.686   3.983  14.607 -0.4274 -1.2777  0.4193
 4416TIP3    H234740   6.604   3.923  14.494  0.6126 -1.7914 -0.0726
 4417TIP3   OH234741   0.743   2.910   5.433  0.3290 -0.0818 -0.0262
 4417TIP3    H134742   0.656   2.943   5.408 -0.6413 -1.2046  1.7053
 4417TIP3    H234743   0.802   2.983   5.413 -1.5468  2.3826  2.4974
 4418TIP3   OH234744   0.555   1.365  10.624  0.3002  0.2840  0.5844
 4418TIP3    H134745   0.539   1.400  10.536  0.1083 -0.7747  0.1871
 4418TIP3    H234746   0.468   1.343  10.657  0.5426 -1.6829  0.0237
 4419TIP3   OH234747   5.668   2.376  17.145 -0.4001  0.0123 -0.3653
 4419TIP3    H134748   5.747   2.378  17.091 -0.0145 -0.0191  0.1843
 4419TIP3    H234749   5.597   2.404  17.087  0.3002  1.8880 -0.3812
 4420TIP3   OH234750   1.775   6.146  16.004  0.7980  0.5627 -0.0915
 4420TIP3    H134751   1.798   6.062  15.964  0.0544 -0.1065  0.8457
 4420TIP3    H234752   1.757   6.125  16.095  0.5859  1.7451  0.1540
 4421TIP3   OH234753   1.294   2.970   3.733 -0.0997  0.0461 -0.1046
 4421TIP3    H134754   1.306   2.877   3.751  0.7430  0.1949  0.1804
 4421TIP3    H234755   1.242   3.003   3.806  2.0230  0.3440  1.3538
 4422TIP3   OH234756   4.848   6.510  11.259 -0.8343  0.0401 -0.0295
 4422TIP3    H134757   4.890   6.562  11.328  0.0462  0.5345 -0.9304
 4422TIP3    H234758   4.815   6.575  11.197 -1.4503 -0.4140 -0.1796
 4423TIP3   OH234759   1.586   1.238  11.316  0.0493  0.5721 -0.5226
 4423TIP3    H134760   1.533   1.307  11.275 -2.0201  0.7112  2.1259
 4423TIP3    H234761   1.639   1.203  11.244 -1.9384  2.0323 -2.8665
 4424TIP3   OH234762   2.401   4.129  11.814 -0.0317  0.1482  0.3639
 4424TIP3    H134763   2.392   4.209  11.763  1.1268  0.3414  0.4285
 4424TIP3    H234764   2.405   4.058  11.749 -0.9213  0.1459  0.3022
 4425TIP3   OH234765   2.723   1.412   0.031  1.3994 -0.0758  0.6285
 4425TIP3    H134766   2.731   1.497  -0.013  0.8049 -0.1502  0.3656
 4425TIP3    H234767   2.690   1.434   0.118  1.1764 -0.0399  0.5362
 4426TIP3   OH234768   1.002   1.538  15.089  0.0368 -0.1217 -0.6351
 4426TIP3    H134769   0.929   1.588  15.053  0.4743  0.3515 -0.8721
 4426TIP3    H234770   0.961   1.471  15.143 -0.5601  0.6917 -0.0491
 4427TIP3   OH234771   5.791   5.547   2.567  0.2257 -0.6408  0.1933
 4427TIP3    H134772   5.717   5.507   2.521 -0.3550  0.3309  0.2487
 4427TIP3    H234773   5.751   5.614   2.623  1.2748  1.4015 -1.3657
 4428TIP3   OH234774   1.677   2.412  10.989 -0.0002  0.2244 -0.1970
 4428TIP3    H134775   1.759   2.377  11.025 -0.4393  1.5505  2.3192
 4428TIP3    H234776   1.705   2.481  10.929  0.7457 -0.1443 -0.2893
 4429TIP3   OH234777   6.670   2.459  14.494 -0.2093 -0.4850  0.1755
 4429TIP3    H134778   6.708   2.514  14.425  0.9652 -0.0879  1.1028
 4429TIP3    H234779   6.712   2.374  14.482  1.1704  0.0018  1.3085
 4430TIP3   OH234780   1.820   4.499  12.361 -0.2210  0.4376 -0.3055
 4430TIP3    H134781   1.734   4.533  12.333 -0.5692  0.1605  0.4244
 4430TIP3    H234782   1.879   4.573  12.349 -1.0532  1.5126  1.6877
 4431TIP3   OH234783   6.490   3.871  13.101 -0.2033  0.0005 -0.1433
 4431TIP3    H134784   6.456   3.829  13.021 -0.2106  1.0700 -0.7145
 4431TIP3    H234785   6.577   3.833  13.112  0.7481  1.4776 -1.9761
 4432TIP3   OH234786   1.940   0.954  15.348 -0.2649 -0.1135  0.0698
 4432TIP3    H134787   1.896   1.024  15.396  0.6176 -0.2995  1.2009
 4432TIP3    H234788   1.932   0.877  15.405 -0.8888 -0.8675 -0.9794
 4433TIP3   OH234789   6.302   2.215   3.169 -0.4479 -0.6571  0.3621
 4433TIP3    H134790   6.340   2.142   3.119  0.6361 -0.7613  1.3104
 4433TIP3    H234791   6.344   2.293   3.133  0.1989 -0.7169  0.9746
 4434TIP3   OH234792   2.678   2.162  13.121  0.5752 -0.4087  0.2540
 4434TIP3    H134793   2.689   2.246  13.165 -0.2154  1.2605 -2.4187
 4434TIP3    H234794   2.587   2.137  13.140  0.7035 -0.4917  0.7710
 4435TIP3   OH234795   3.331   1.672  15.646 -0.2011  0.2230 -0.2511
 4435TIP3    H134796   3.266   1.727  15.601  0.1363  2.6189  1.9553
 4435TIP3    H234797   3.414   1.695  15.606 -0.2957 -0.2571 -0.7322
 4436TIP3   OH234798   0.359   4.652   5.576  0.4281 -0.2648  0.1930
 4436TIP3    H134799   0.293   4.617   5.516  1.0099 -0.4428 -0.3520
 4436TIP3    H234800   0.314   4.660   5.660 -0.1573 -0.8129 -0.0677
 4437TIP3   OH234801   4.016   4.815  13.404 -0.0643  0.0190 -0.7412
 4437TIP3    H134802   4.094   4.765  13.428 -0.1112  0.0591 -0.5032
 4437TIP3    H234803   4.042   4.907  13.414  0.4879  0.1006 -2.5959
 4438TIP3   OH234804   3.769   5.913   0.587  0.0105 -0.4995  0.4946
 4438TIP3    H134805   3.797   5.940   0.499  0.6269  1.1632  1.1509
 4438TIP3    H234806   3.674   5.904   0.580  0.0688 -0.5513 -0.3851
 4439TIP3   OH234807   4.118   3.574  10.845 -0.3021  0.3289 -0.3801
 4439TIP3    H134808   4.122   3.559  10.751  0.8719 -1.1077 -0.1528
 4439TIP3    H234809   4.057   3.508  10.877 -1.0375  1.0998 -0.1660
 4440TIP3   OH234810   4.315   4.193  16.213 -0.2195 -0.2018 -0.0853
 4440TIP3    H134811   4.395   4.186  16.265 -0.0944  0.2255 -0.2162
 4440TIP3    H234812   4.309   4.109  16.166 -1.0295 -1.1447  1.6038
 4441TIP3   OH234813   2.822   4.313   2.365 -0.1932 -0.2835 -0.4399
 4441TIP3    H134814   2.770   4.350   2.294 -1.3348 -0.4896  0.2558
 4441TIP3    H234815   2.861   4.389   2.408 -0.5088 -0.0616 -0.5380
 4442TIP3   OH234816   3.005   6.804  15.734  0.5205  0.0466  0.0905
 4442TIP3    H134817   3.002   6.740  15.806  3.2836  0.4410  0.7014
 4442TIP3    H234818   3.047   6.756  15.662 -1.6691 -0.1564 -1.1449
 4443TIP3   OH234819   2.782   5.437  15.836  0.5233  0.2762  0.0091
 4443TIP3    H134820   2.830   5.406  15.913  0.0129  0.6482  0.4867
 4443TIP3    H234821   2.732   5.512  15.868 -0.8462 -0.4754 -0.3261
 4444TIP3   OH234822   2.017   0.368  11.324  0.1504  0.5418  0.5809
 4444TIP3    H134823   1.980   0.424  11.256  0.9833 -0.0626 -0.3854
 4444TIP3    H234824   1.992   0.279  11.299  0.0470  0.3458  1.3425
 4445TIP3   OH234825   4.893   3.210   2.036 -0.2798  0.0422  0.1870
 4445TIP3    H134826   4.816   3.154   2.026 -1.1063  1.4631 -2.0167
 4445TIP3    H234827   4.858   3.296   2.056  0.7444  0.6130 -0.3823
 4446TIP3   OH234828   3.567   1.671  11.736  0.0899 -0.3062  0.4755
 4446TIP3    H134829   3.596   1.686  11.646 -1.1364  1.2214  0.2961
 4446TIP3    H234830   3.492   1.612  11.727  0.6587 -1.0637  0.6087
 4447TIP3   OH234831   2.962   2.825  12.038 -0.1727  0.1137 -0.0352
 4447TIP3    H134832   2.941   2.904  12.088 -1.5089 -0.6733  0.7036
 4447TIP3    H234833   3.022   2.855  11.970 -2.4562  2.2579 -1.2642
 4448TIP3   OH234834   3.173   0.246  16.775  0.7207 -0.1724 -0.0218
 4448TIP3    H134835   3.134   0.333  16.785  0.2745 -0.0390 -2.3618
 4448TIP3    H234836   3.126   0.191  16.838 -0.1081  0.9294  0.3480
 4449TIP3   OH234837   1.150   3.884   6.545  0.3344 -0.1222  0.6362
 4449TIP3    H134838   1.204   3.878   6.466 -0.4348 -1.8299  0.1869
 4449TIP3    H234839   1.081   3.947   6.521  0.7304  0.2002  0.3357
 4450TIP3   OH234840   1.477   0.335   0.155  0.1948 -0.0973 -0.5234
 4450TIP3    H134841   1.415   0.262   0.159  0.1124 -0.0709 -1.3074
 4450TIP3    H234842   1.558   0.299   0.192 -0.0445 -0.3743 -0.2596
 4451TIP3   OH234843   4.339   0.692   2.098  0.0061  0.5746 -0.3011
 4451TIP3    H134844   4.363   0.761   2.036  0.9212  0.7583  0.2440
 4451TIP3    H234845   4.395   0.707   2.173 -0.2674 -0.3656  0.0991
 4452TIP3   OH234846   0.140   2.282   3.503  0.9455 -0.1436  0.1160
 4452TIP3    H134847   0.207   2.342   3.537 -0.7087  1.0321  1.4548
 4452TIP3    H234848   0.184   2.197   3.499  2.4513  0.5453  1.1229
 4453TIP3   OH234849   0.283   1.980  16.231 -0.2009 -0.0374  0.0268
 4453TIP3    H134850   0.297   2.073  16.249 -1.1325  0.1856 -0.3477
 4453TIP3    H234851   0.345   1.959  16.162 -2.0805  1.1123 -2.1471
 4454TIP3   OH234852   3.120   2.023   0.297  0.0453  0.8122 -0.5977
 4454TIP3    H134853   3.187   2.078   0.257  1.0133 -1.3568 -2.1071
 4454TIP3    H234854   3.108   1.950   0.237 -1.9189 -0.1524  0.8288
 4455TIP3   OH234855   5.322   4.987   3.825  0.0957  0.1689  0.1281
 4455TIP3    H134856   5.262   5.022   3.891  1.7781  1.1580  1.2255
 4455TIP3    H234857   5.291   5.024   3.742 -2.2018 -1.2939  0.2622
 4456TIP3   OH234858   2.519   1.146   4.309  0.6916  0.6256 -0.0893
 4456TIP3    H134859   2.527   1.067   4.255  2.0414  0.7437 -0.0935
 4456TIP3    H234860   2.600   1.148   4.359  0.3137  1.5923  0.4917
 4457TIP3   OH234861   0.323   2.891   4.006 -0.4235  0.0390  0.1296
 4457TIP3    H134862   0.359   2.854   3.926  0.3121 -0.8960  0.8719
 4457TIP3    H234863   0.333   2.986   3.996  1.2314 -0.1465 -0.1481
 4458TIP3   OH234864   0.946   2.719   0.907  0.2726 -0.7851 -0.3968
 4458TIP3    H134865   0.869   2.765   0.874  0.0922 -1.0750 -0.3887
 4458TIP3    H234866   0.973   2.769   0.984  0.6524 -0.1458 -0.9368
 4459TIP3   OH234867   3.658   6.393  11.496 -0.3579 -0.6342  0.1680
 4459TIP3    H134868   3.604   6.331  11.546  1.0854 -2.4492 -0.3876
 4459TIP3    H234869   3.744   6.350  11.491  0.2047  0.6052 -1.8177
 4460TIP3   OH234870   3.855   2.447   3.546  0.4101  0.3527 -0.2580
 4460TIP3    H134871   3.933   2.414   3.502  0.1492  0.9915 -1.2379
 4460TIP3    H234872   3.820   2.513   3.486 -0.3741  0.7225  0.5831
 4461TIP3   OH234873   1.891   0.804  16.013  0.9069  0.0091 -0.2410
 4461TIP3    H134874   1.840   0.737  16.058  2.0139 -1.2391 -0.7660
 4461TIP3    H234875   1.830   0.876  15.999  0.0827 -0.2720  1.6706
 4462TIP3   OH234876   3.052   6.484   4.756  0.3658  0.0721  0.3437
 4462TIP3    H134877   3.144   6.460   4.767 -0.1264 -1.6112  1.1516
 4462TIP3    H234878   3.024   6.435   4.679  0.3536  1.2677 -0.4240
 4463TIP3   OH234879   2.542   1.756  14.373 -0.8728  0.3903  0.4962
 4463TIP3    H134880   2.485   1.684  14.401  0.1857 -0.9535 -0.6679
 4463TIP3    H234881   2.624   1.741  14.420 -0.6631  0.8826  0.2880
 4464TIP3   OH234882   5.875   2.370   1.772 -0.7941 -0.3562  0.1966
 4464TIP3    H134883   5.814   2.391   1.842 -0.5909  0.0444  0.2544
 4464TIP3    H234884   5.857   2.434   1.703 -0.1720  0.0223  0.3752
 4465TIP3   OH234885   2.572   0.243  15.745 -0.3041 -0.4141  0.3333
 4465TIP3    H134886   2.517   0.184  15.694  1.8623 -0.0104 -2.7245
 4465TIP3    H234887   2.658   0.202  15.746  0.4767  1.1456  0.9606
 4466TIP3   OH234888   4.497   3.160   5.241  0.1882 -0.4293  0.1057
 4466TIP3    H134889   4.531   3.073   5.264 -1.9288 -1.6207 -1.0186
 4466TIP3    H234890   4.453   3.190   5.320  0.0289 -0.8365  0.1737
 4467TIP3   OH234891   6.493   6.308   0.169 -0.1441  0.3752 -1.1034
 4467TIP3    H134892   6.498   6.388   0.118 -1.4023  1.4345  0.3640
 4467TIP3    H234893   6.402   6.301   0.196  0.2300 -0.7548  0.0173
 4468TIP3   OH234894   2.121   5.245  16.955 -0.4115  0.3246  0.1214
 4468TIP3    H134895   2.136   5.325  16.904  0.3110  0.1190 -0.0035
 4468TIP3    H234896   2.189   5.247  17.022 -1.0723  0.3592  0.7950
 4469TIP3   OH234897   4.028   4.196  15.644 -0.1218 -0.6258 -0.2455
 4469TIP3    H134898   4.067   4.134  15.705  0.1414  0.1945  0.4301
 4469TIP3    H234899   3.982   4.259  15.699  1.6977  1.2388 -0.7527
 4470TIP3   OH234900   2.666   5.325  12.068  0.1570 -0.1143  0.6295
 4470TIP3    H134901   2.660   5.351  11.976 -1.8719  0.6045  0.9165
 4470TIP3    H234902   2.717   5.394  12.109  1.9595 -0.9576 -0.1062
 4471TIP3   OH234903   6.462   3.488   6.692  0.0429  0.4454  0.2496
 4471TIP3    H134904   6.400   3.544   6.740 -0.5381  0.7131 -0.7887
 4471TIP3    H234905   6.548   3.518   6.721 -0.2806  1.2653  0.3861
 4472TIP3   OH234906   5.547   6.708  13.838  0.0975  0.7341  0.5877
 4472TIP3    H134907   5.611   6.743  13.899 -0.1380  3.0180 -0.3768
 4472TIP3    H234908   5.571   6.747  13.753 -0.2391 -1.4639 -0.5925
 4473TIP3   OH234909   6.060   0.339  14.447 -0.0923 -0.5608  0.3578
 4473TIP3    H134910   6.089   0.404  14.383 -0.5411  0.0537  0.7756
 4473TIP3    H234911   6.128   0.271  14.444  0.2274 -0.2255 -0.2940
 4474TIP3   OH234912   5.599   4.681  11.813  0.4174  0.3014  0.4401
 4474TIP3    H134913   5.639   4.637  11.888  1.0622 -2.4292 -1.3902
 4474TIP3    H234914   5.644   4.645  11.737 -1.3381  1.7367 -1.3708
 4475TIP3   OH234915   5.096   0.898  13.233 -0.0346  1.2996  0.0957
 4475TIP3    H134916   5.124   0.855  13.314 -1.7339  1.2725  0.7106
 4475TIP3    H234917   5.175   0.902  13.179  0.3853 -1.9670  0.2751
 4476TIP3   OH234918   0.380   3.528   0.481 -0.6576 -0.5186  0.7548
 4476TIP3    H134919   0.287   3.544   0.498 -0.6106  0.3911  0.2358
 4476TIP3    H234920   0.395   3.565   0.394  0.4209  0.3587  1.2866
 4477TIP3   OH234921   0.041   2.055   0.512  0.0910  0.0953 -0.0296
 4477TIP3    H134922  -0.022   2.075   0.443 -1.8327 -1.3093  1.2235
 4477TIP3    H234923   0.072   2.141   0.541 -1.6713  0.8840 -0.3184
 4478TIP3   OH234924   4.710   0.517  14.546  0.0094 -0.3488 -0.4116
 4478TIP3    H134925   4.677   0.477  14.465 -1.1073  1.5474 -0.9897
 4478TIP3    H234926   4.789   0.564  14.519  0.6145 -1.1210 -0.0101
 4479TIP3   OH234927   1.214   4.404  13.202  0.0723 -0.1258  0.1851
 4479TIP3    H134928   1.244   4.471  13.140 -0.3816 -0.5831 -0.5532
 4479TIP3    H234929   1.151   4.352  13.151  0.8843 -1.4971  0.5466
 4480TIP3   OH234930   6.591   3.084   4.571  0.0414  0.1554  0.3883
 4480TIP3    H134931   6.567   3.162   4.522  3.0479  0.9194 -0.0766
 4480TIP3    H234932   6.655   3.039   4.516  1.0904 -0.6875  2.2007
 4481TIP3   OH234933   1.710   2.233  16.897  0.1396  0.6645 -0.2649
 4481TIP3    H134934   1.678   2.165  16.956 -0.7360  0.7211 -0.6595
 4481TIP3    H234935   1.650   2.307  16.911  1.3502  1.5452  0.5007
 4482TIP3   OH234936   6.805   2.520   2.533 -0.3780  0.5322  0.0974
 4482TIP3    H134937   6.729   2.462   2.544 -0.5225  0.8066  0.5771
 4482TIP3    H234938   6.775   2.605   2.565 -0.4292  1.0902 -1.3589
 4483TIP3   OH234939   4.485   2.301  10.980 -0.2878 -0.2510  0.4802
 4483TIP3    H134940   4.441   2.385  10.970  1.0602  0.7212  2.1970
 4483TIP3    H234941   4.430   2.239  10.931 -1.1509  1.6472 -1.0753
 4484TIP3   OH234942   5.458   0.874   6.170 -0.2845 -0.1759  0.4381
 4484TIP3    H134943   5.551   0.880   6.193 -0.6789  0.2875  2.0573
 4484TIP3    H234944   5.437   0.781   6.178  0.6013 -0.7492 -2.5572
 4485TIP3   OH234945   3.105   2.948   4.828  0.6055  0.2379  0.1329
 4485TIP3    H134946   3.147   3.021   4.783 -0.0816 -0.1260 -1.1481
 4485TIP3    H234947   3.059   2.901   4.759 -2.2699  0.8398  1.5205
 4486TIP3   OH234948   2.125   5.800   3.797 -0.6195 -0.0639 -0.2182
 4486TIP3    H134949   2.192   5.805   3.865  0.9993  0.2158 -1.7529
 4486TIP3    H234950   2.103   5.707   3.791  0.3401 -0.2942 -0.3111
 4487TIP3   OH234951   5.963   0.080   5.324 -0.0448 -0.2374 -0.6354
 4487TIP3    H134952   6.034   0.138   5.295  2.0979 -1.4550  1.8237
 4487TIP3    H234953   5.891   0.140   5.344  1.1334  1.3034 -0.7858
 4488TIP3   OH234954   1.741   0.446   3.429  0.4881  0.4035  0.1580
 4488TIP3    H134955   1.683   0.460   3.354 -0.1180 -0.7003  0.3998
 4488TIP3    H234956   1.828   0.440   3.391 -0.1376 -4.0537 -1.0452
 4489TIP3   OH234957   2.572   3.739  15.858 -0.0650 -0.6096  0.1293
 4489TIP3    H134958   2.645   3.793  15.828  1.5062 -1.9862  1.3168
 4489TIP3    H234959   2.556   3.768  15.948 -1.8613  0.5151 -0.4824
 4490TIP3   OH234960   0.940   4.764   0.082  0.2012 -0.4645 -0.0626
 4490TIP3    H134961   0.871   4.710   0.121  0.7921 -1.4544 -0.3474
 4490TIP3    H234962   0.924   4.758  -0.012  1.7180 -2.2058 -0.2594
 4491TIP3   OH234963   4.496   5.799   4.574 -0.2939 -0.0506 -0.7603
 4491TIP3    H134964   4.539   5.729   4.527  2.6485  1.9294 -1.2591
 4491TIP3    H234965   4.494   5.770   4.665  2.4578 -0.1555 -0.6652
 4492TIP3   OH234966   2.333   1.015  13.379 -0.0100 -0.0837  1.0474
 4492TIP3    H134967   2.346   0.923  13.356  1.0390  0.2752  0.1117
 4492TIP3    H234968   2.288   1.052  13.304 -0.6075  0.1344  1.5080
 4493TIP3   OH234969   4.089   0.928   2.264 -0.4351  0.0125  0.1612
 4493TIP3    H134970   4.074   0.833   2.271 -2.0085  0.2248 -0.1124
 4493TIP3    H234971   4.082   0.946   2.170  0.7934  0.2764  0.1049
 4494TIP3   OH234972   1.597   0.018  14.619  0.1670 -0.6904  0.1783
 4494TIP3    H134973   1.681   0.056  14.644  0.3251 -1.0857  0.2531
 4494TIP3    H234974   1.584  -0.055  14.680 -0.3987 -0.4173  0.4017
 4495TIP3   OH234975   1.538   2.035   2.778 -0.4624 -0.0036  0.1421
 4495TIP3    H134976   1.570   1.982   2.705  1.8374  1.9727 -0.4175
 4495TIP3    H234977   1.508   2.117   2.737  1.8879  1.5878  1.3873
 4496TIP3   OH234978   0.852   5.740   2.705  0.8093  0.0583 -0.3180
 4496TIP3    H134979   0.779   5.740   2.767  0.1251  2.5837 -1.0042
 4496TIP3    H234980   0.886   5.650   2.707 -3.0230 -1.5780 -0.8407
 4497TIP3   OH234981   4.843   1.523  16.812  0.6613  0.0956 -0.6812
 4497TIP3    H134982   4.848   1.564  16.898  0.7552  0.4089 -0.8367
 4497TIP3    H234983   4.779   1.575  16.764 -0.9478 -1.2746 -0.1534
 4498TIP3   OH234984   4.964   2.527   5.651  0.1493 -0.0698  0.3957
 4498TIP3    H134985   5.026   2.546   5.722  0.9967 -1.4697  0.0744
 4498TIP3    H234986   5.017   2.531   5.572 -0.6749  0.9418 -0.1224
 4499TIP3   OH234987   1.807   5.666  14.658  0.0172 -0.4371  0.3147
 4499TIP3    H134988   1.888   5.702  14.694  0.0194  1.5917 -1.5062
 4499TIP3    H234989   1.834   5.616  14.581 -0.2005 -2.8006  1.6661
 4500TIP3   OH234990   0.419   3.116   4.163 -0.2308  0.0002 -0.2380
 4500TIP3    H134991   0.390   3.124   4.072  1.2258  2.6491 -0.5682
 4500TIP3    H234992   0.492   3.053   4.159 -0.6045 -0.4172 -0.7599
 4501TIP3   OH234993   6.181   3.889  16.514 -0.2385 -0.4109 -0.2510
 4501TIP3    H134994   6.186   3.794  16.510 -0.7563 -0.4150 -1.1619
 4501TIP3    H234995   6.112   3.907  16.578  0.6764 -0.6079  0.8235
 4502TIP3   OH234996   1.418   0.512   2.018  0.5019 -0.0397  0.6530
 4502TIP3    H134997   1.390   0.502   1.927 -0.7223  2.6229  0.6290
 4502TIP3    H234998   1.494   0.570   2.013  0.4447  0.1009  1.3269
 4503TIP3   OH234999   2.565   0.413   6.075 -0.0515  0.5949 -0.1276
 4503TIP3    H135000   2.519   0.330   6.066  0.2816  0.2901  0.9353
 4503TIP3    H235001   2.526   0.469   6.007 -0.5400 -0.2965 -0.5997
 4504TIP3   OH235002   0.594   1.665  12.968  0.0650 -0.6272  0.3878
 4504TIP3    H135003   0.502   1.675  12.946  0.3030  0.5736 -0.1413
 4504TIP3    H235004   0.620   1.581  12.930 -0.3451 -0.0850 -1.1187
 4505TIP3   OH235005   1.190   1.018  10.379 -0.0369  0.0334  0.2925
 4505TIP3    H135006   1.191   0.957  10.306  0.3325  1.5190 -1.0039
 4505TIP3    H235007   1.166   1.102  10.340 -1.4551  0.5785  2.1529
 4506TIP3   OH235008   4.929   3.941   4.130  0.1169 -0.0926 -0.0918
 4506TIP3    H135009   4.938   3.955   4.224 -3.0025  0.4574  0.2478
 4506TIP3    H235010   4.911   3.848   4.121  0.8848 -0.2350 -0.2201
 4507TIP3   OH235011   1.250   1.484  15.292  0.3158 -0.3764 -0.0441
 4507TIP3    H135012   1.310   1.511  15.362 -0.6433 -1.3750  1.2088
 4507TIP3    H235013   1.212   1.565  15.259 -1.2082 -0.0050  2.4375
 4508TIP3   OH235014   4.239   6.617  11.571 -0.0979 -0.1445  0.1839
 4508TIP3    H135015   4.251   6.561  11.648 -4.4094 -2.0389 -0.2459
 4508TIP3    H235016   4.182   6.687  11.601  1.1042  1.2087 -0.5498
 4509TIP3   OH235017   2.327   0.934   6.122  0.0548 -0.3891  0.1935
 4509TIP3    H135018   2.357   0.861   6.177 -0.0073 -0.3070  0.3366
 4509TIP3    H235019   2.370   1.011   6.159  1.8511 -0.6231 -1.2757
 4510TIP3   OH235020   2.560   1.237  17.190 -0.0922  0.0552  0.0582
 4510TIP3    H135021   2.625   1.287  17.239  0.8369  0.8359 -1.8448
 4510TIP3    H235022   2.608   1.204  17.114 -2.4307  3.2498 -3.1339
 4511TIP3   OH235023   5.123   4.315  12.356  0.0813 -0.4017  0.6350
 4511TIP3    H135024   5.127   4.274  12.442 -0.6928 -0.3999  0.6773
 4511TIP3    H235025   5.045   4.277  12.314  0.7629 -0.8227 -0.2847
 4512TIP3   OH235026   6.573   2.631   0.030 -0.2005  0.7375 -0.5595
 4512TIP3    H135027   6.561   2.664  -0.059  0.4988  0.7957 -0.6388
 4512TIP3    H235028   6.546   2.539   0.026  1.0396  0.3844 -1.1470
 4513TIP3   OH235029   4.720   2.073  14.221 -0.3587 -0.1062  0.5454
 4513TIP3    H135030   4.682   2.128  14.152  0.8179  1.7474  1.2807
 4513TIP3    H235031   4.732   2.133  14.295  0.2238 -1.5842  1.6880
 4514TIP3   OH235032   2.824   1.548  13.135 -0.4024 -0.0158 -0.2046
 4514TIP3    H135033   2.773   1.486  13.186 -0.2546 -0.3652 -0.4782
 4514TIP3    H235034   2.788   1.542  13.047  0.4537 -0.6587 -0.5269
 4515TIP3   OH235035   4.373   4.422  13.558  0.7837 -0.2065  0.5363
 4515TIP3    H135036   4.391   4.329  13.571  1.5238 -0.1473  0.0079
 4515TIP3    H235037   4.428   4.447  13.483  0.8845  0.7402  0.9105
 4516TIP3   OH235038   6.628   3.836   1.025 -0.1139  0.4418 -0.0423
 4516TIP3    H135039   6.608   3.797   0.939  0.3065  1.0664 -0.4277
 4516TIP3    H235040   6.689   3.774   1.065 -2.5036 -1.3612  1.0391
 4517TIP3   OH235041   4.075   0.808   4.626 -0.0391 -0.1795  0.3553
 4517TIP3    H135042   4.143   0.752   4.663 -1.4173 -3.0499 -1.1360
 4517TIP3    H235043   4.000   0.797   4.684 -0.2595  0.2891  0.1648
 4518TIP3   OH235044   3.501   3.722  11.188  0.6706  0.0178 -0.3922
 4518TIP3    H135045   3.447   3.774  11.129  1.5241  0.4633 -0.8041
 4518TIP3    H235046   3.591   3.747  11.166  1.0394 -0.5948  0.3754
 4519TIP3   OH235047   0.345   6.637   2.507  0.4874  0.1588 -0.4964
 4519TIP3    H135048   0.399   6.582   2.565  0.3643 -1.5485 -1.9167
 4519TIP3    H235049   0.300   6.574   2.450 -1.4116  1.6539 -0.7295
 4520TIP3   OH235050   0.300   0.323  14.097  0.1004  0.1242  0.1981
 4520TIP3    H135051   0.227   0.265  14.075  0.8928 -1.1662  0.8442
 4520TIP3    H235052   0.317   0.372  14.017  0.5326 -1.7884 -0.9468
 4521TIP3   OH235053   2.537   6.201   5.971  0.0955 -0.1693 -0.0992
 4521TIP3    H135054   2.528   6.229   6.062  0.7278 -0.0802 -0.0592
 4521TIP3    H235055   2.579   6.116   5.976 -1.1796 -0.8236 -0.2529
 4522TIP3   OH235056   3.888   6.670   6.688 -0.4359 -0.0329  0.1754
 4522TIP3    H135057   3.850   6.733   6.627  0.5265  0.9720  0.5756
 4522TIP3    H235058   3.891   6.588   6.639  0.0112  0.6732 -1.0298
 4523TIP3   OH235059   6.097   3.570   5.071  0.3133  0.4963  0.2459
 4523TIP3    H135060   6.112   3.476   5.057  1.7924  0.8846 -1.0443
 4523TIP3    H235061   6.178   3.602   5.109 -0.0379  1.3213  0.3065
 4524TIP3   OH235062   1.600   5.651  13.644 -0.3646  0.2776  0.3241
 4524TIP3    H135063   1.562   5.670  13.730 -0.6642  0.4146  0.1656
 4524TIP3    H235064   1.534   5.597  13.601  0.1878 -0.5586  0.5156
 4525TIP3   OH235065   5.333   0.966   0.295  0.0150 -0.5241 -0.1103
 4525TIP3    H135066   5.417   0.971   0.249 -0.3741 -0.6236 -0.8502
 4525TIP3    H235067   5.328   0.876   0.326  1.9149  0.3762  3.3570
 4526TIP3   OH235068   4.120   4.689   1.169  0.2879 -0.6062 -0.5464
 4526TIP3    H135069   4.069   4.619   1.209  0.1444  0.0136  0.3771
 4526TIP3    H235070   4.210   4.656   1.170  0.0042 -1.4430 -1.6128
 4527TIP3   OH235071   2.170   2.189   3.381  0.2026  0.1590  0.1519
 4527TIP3    H135072   2.229   2.259   3.352  1.3957 -0.2203  1.5151
 4527TIP3    H235073   2.161   2.204   3.475 -0.3095 -0.9455  0.2887
 4528TIP3   OH235074   3.479   5.710  14.514  0.0688 -0.0182  0.4499
 4528TIP3    H135075   3.429   5.631  14.533  1.0470 -0.8595 -0.3745
 4528TIP3    H235076   3.544   5.683  14.449  0.0744  1.5860 -0.2657
 4529TIP3   OH235077   6.356   3.022   5.430 -0.2557 -0.2387  0.2320
 4529TIP3    H135078   6.336   2.993   5.341 -1.5154 -0.5775  0.6089
 4529TIP3    H235079   6.299   3.097   5.445 -0.8606 -0.8469  1.1175
 4530TIP3   OH235080   1.905   0.700   4.667 -0.5117 -0.6749 -0.3386
 4530TIP3    H135081   1.974   0.677   4.605 -0.6734 -0.7696 -0.4843
 4530TIP3    H235082   1.952   0.723   4.747 -0.1314  1.7518 -1.1586
 4531TIP3   OH235083   0.149   5.066  11.935  0.0622 -0.2331  0.3999
 4531TIP3    H135084   0.142   5.153  11.895 -1.0321  0.0616  1.1930
 4531TIP3    H235085   0.073   5.018  11.901 -0.3768 -0.2680  1.4096
 4532TIP3   OH235086   4.782   4.558  12.485  0.4377 -0.4053 -0.7523
 4532TIP3    H135087   4.709   4.599  12.437  2.0872  2.4394 -1.0535
 4532TIP3    H235088   4.771   4.588  12.575  0.6047 -0.8938 -0.5694
 4533TIP3   OH235089   0.263   2.050   2.316 -0.7589  0.0671 -0.0078
 4533TIP3    H135090   0.243   1.983   2.381 -0.5139  0.3284  0.3370
 4533TIP3    H235091   0.336   2.099   2.353  0.5940 -0.9031 -1.2413
 4534TIP3   OH235092   4.032   0.189  16.507 -0.0241  0.0036  0.3945
 4534TIP3    H135093   4.066   0.130  16.575 -0.6912 -0.4581  0.3352
 4534TIP3    H235094   3.937   0.172  16.506 -0.3372  1.6053  0.8919
 4535TIP3   OH235095   2.331   1.613  13.270  0.1338 -0.7523 -0.5745
 4535TIP3    H135096   2.303   1.521  13.277  1.2853 -1.1129 -0.4939
 4535TIP3    H235097   2.249   1.662  13.260 -0.6325 -1.6201  0.9906
 4536TIP3   OH235098   3.040   3.358  12.136  0.8449 -0.1380  0.4194
 4536TIP3    H135099   2.954   3.396  12.155  0.8410  0.5421 -0.8371
 4536TIP3    H235100   3.101   3.431  12.148  1.2089 -0.5296  0.9752
 4537TIP3   OH235101   5.263   1.028   6.033 -0.0562 -0.2018 -0.1492
 4537TIP3    H135102   5.199   0.973   6.076 -0.6087  0.0196 -0.6741
 4537TIP3    H235103   5.346   0.980   6.040 -0.5340 -1.1240 -0.6405
 4538TIP3   OH235104   5.632   2.511  10.691  0.2114  0.7589  0.6453
 4538TIP3    H135105   5.612   2.553  10.608 -0.3497  2.6144  1.6586
 4538TIP3    H235106   5.709   2.457  10.673  1.0819  2.3654 -0.7393
 4539TIP3   OH235107   0.126   0.411  14.554  0.5526  0.0254  0.1323
 4539TIP3    H135108   0.035   0.440  14.547 -0.0531 -1.1940  2.0257
 4539TIP3    H235109   0.142   0.361  14.474 -0.6476 -0.2401  0.0357
 4540TIP3   OH235110   4.677   6.142  13.200  0.1242 -0.2323 -0.0862
 4540TIP3    H135111   4.617   6.073  13.174  0.5072 -0.1128 -1.3794
 4540TIP3    H235112   4.642   6.221  13.159  1.5596 -0.2988 -1.5439
 4541TIP3   OH235113   5.562   4.668  16.547  0.0336 -0.1960 -0.3690
 4541TIP3    H135114   5.475   4.693  16.515  0.1687  0.4057 -0.2710
 4541TIP3    H235115   5.614   4.748  16.541  0.4313 -0.4167  0.0868
 4542TIP3   OH235116   5.221   2.713   1.274 -0.6867  0.5512 -0.0406
 4542TIP3    H135117   5.195   2.641   1.217  1.4026 -0.7717  0.5440
 4542TIP3    H235118   5.289   2.760   1.226  0.9419 -0.4450  1.1788
 4543TIP3   OH235119   2.006   0.229  13.256 -0.1461  0.4830  0.1244
 4543TIP3    H135120   2.018   0.175  13.333  0.9354  1.8517  0.9757
 4543TIP3    H235121   1.930   0.192  13.211 -0.3530 -0.7723  1.4586
 4544TIP3   OH235122   0.603   5.408   2.063 -0.5659  0.0434  0.9225
 4544TIP3    H135123   0.585   5.445   2.150 -0.3556 -1.4847  1.6479
 4544TIP3    H235124   0.519   5.408   2.019 -0.7288  0.5652  1.2170
 4545TIP3   OH235125   2.032   2.206  15.582  0.3978 -0.2942 -0.2212
 4545TIP3    H135126   1.977   2.242  15.651  0.2365  0.0996 -0.5434
 4545TIP3    H235127   1.999   2.247  15.502  0.3461 -1.0132 -0.5787
 4546TIP3   OH235128   4.474   5.685   5.421 -0.3435  0.3063 -0.4539
 4546TIP3    H135129   4.418   5.726   5.487 -2.0970  0.6295 -2.0856
 4546TIP3    H235130   4.494   5.756   5.360  2.0351  0.2475  0.1197
 4547TIP3   OH235131   0.914   4.133   1.905 -0.0562  0.2594  0.0453
 4547TIP3    H135132   0.971   4.209   1.892  1.5970 -0.0928  3.7939
 4547TIP3    H235133   0.841   4.166   1.958 -1.7259 -0.0010 -1.9356
 4548TIP3   OH235134   6.449   3.421   0.630 -0.2352  0.3937 -0.2239
 4548TIP3    H135135   6.529   3.415   0.683 -0.9306 -1.2221  0.7471
 4548TIP3    H235136   6.469   3.371   0.551 -0.2847 -0.0324  0.0305
 4549TIP3   OH235137   4.765   3.061  10.736 -0.7083  0.2909 -0.1070
 4549TIP3    H135138   4.752   2.971  10.763  1.1082  0.2428  0.7636
 4549TIP3    H235139   4.716   3.069  10.654 -2.6611 -0.8377  0.8765
 4550TIP3   OH235140   4.651   4.577   0.544 -0.2621 -0.0257 -0.3848
 4550TIP3    H135141   4.565   4.598   0.507  0.2237 -1.0916 -2.2578
 4550TIP3    H235142   4.710   4.575   0.469  0.7947 -2.3317  0.3910
 4551TIP3   OH235143   6.395   5.499  13.664 -0.2150 -0.6693 -0.2428
 4551TIP3    H135144   6.366   5.452  13.586 -0.2599  0.4467 -0.9147
 4551TIP3    H235145   6.476   5.542  13.639 -0.1766 -0.3713  0.3580
 4552TIP3   OH235146   3.817   3.260   4.673  0.5504 -0.4702 -0.4171
 4552TIP3    H135147   3.829   3.177   4.719  2.8681 -0.2932 -0.6264
 4552TIP3    H235148   3.758   3.310   4.730 -1.2437 -2.3499 -0.4866
 4553TIP3   OH235149   4.025   1.503  15.540 -0.4941  0.1175 -0.4635
 4553TIP3    H135150   4.117   1.530  15.536 -0.3471 -0.1601  0.7627
 4553TIP3    H235151   3.976   1.582  15.521 -0.0255  0.7208  0.7721
 4554TIP3   OH235152   1.811   5.275   0.646  0.5084  1.2253 -0.3888
 4554TIP3    H135153   1.733   5.320   0.615  0.3614 -0.5196 -2.8467
 4554TIP3    H235154   1.802   5.185   0.613  2.8197  0.5412  0.5980
 4555TIP3   OH235155   1.063   2.720   3.386 -0.2079  0.0752 -0.1398
 4555TIP3    H135156   1.054   2.625   3.392  0.9061  0.0125  1.0427
 4555TIP3    H235157   1.149   2.738   3.424 -0.6225  1.6047  0.1305
 4556TIP3   OH235158   3.080   0.213  12.161 -0.2858  0.6327 -0.0646
 4556TIP3    H135159   3.129   0.148  12.212  2.7372  1.4463 -1.6784
 4556TIP3    H235160   3.103   0.297  12.201 -0.7239  1.0138 -0.6002
 4557TIP3   OH235161   6.065   0.892  15.076  0.1681 -1.0086  0.3007
 4557TIP3    H135162   5.998   0.881  15.143 -1.0629 -0.3095 -0.7531
 4557TIP3    H235163   6.045   0.824  15.012 -0.8451  0.4443 -1.0096
 4558TIP3   OH235164   3.317   4.480  13.335  0.4694  0.1018 -0.0251
 4558TIP3    H135165   3.313   4.387  13.354  1.5208 -0.0160 -0.3347
 4558TIP3    H235166   3.386   4.489  13.270 -0.5761  0.9314 -1.0774
 4559TIP3   OH235167   4.356   1.680  13.614  0.1248  0.1043  0.5780
 4559TIP3    H135168   4.271   1.674  13.571 -0.5908 -1.4800  2.0893
 4559TIP3    H235169   4.364   1.773  13.636 -0.9115  0.3941 -0.1587
 4560TIP3   OH235170   2.129   1.997  16.076 -0.0810 -0.2614 -0.4028
 4560TIP3    H135171   2.133   2.043  16.160 -1.8430 -0.8591  0.0510
 4560TIP3    H235172   2.147   1.906  16.098 -3.5811 -1.0221 -0.0458
 4561TIP3   OH235173   0.217   6.088  16.386 -0.0617 -0.2585 -0.0008
 4561TIP3    H135174   0.285   6.150  16.411 -0.1856 -0.0312 -0.2208
 4561TIP3    H235175   0.143   6.143  16.359 -0.6491 -0.5011  1.0711
 4562TIP3   OH235176   0.160   2.229  10.906  0.1158 -0.0652 -0.0940
 4562TIP3    H135177   0.250   2.242  10.879  0.4461  1.0651  1.3856
 4562TIP3    H235178   0.114   2.306  10.871  0.1569  0.3868  0.8007
 4563TIP3   OH235179   5.403   0.065  12.286 -0.1986  0.7473  0.7629
 4563TIP3    H135180   5.368   0.011  12.357 -1.5331  0.8480  0.2028
 4563TIP3    H235181   5.380   0.018  12.206  2.0908  0.1610  0.3778
 4564TIP3   OH235182   1.319   4.484   2.177 -0.0269 -0.2723 -0.8776
 4564TIP3    H135183   1.245   4.528   2.134 -0.0187  0.4372 -0.1844
 4564TIP3    H235184   1.310   4.393   2.151 -0.8072 -0.0916 -1.2888
 4565TIP3   OH235185   5.055   2.263  11.188 -0.0635  0.1601 -0.4615
 4565TIP3    H135186   5.115   2.295  11.256  1.1665 -0.9499 -0.9663
 4565TIP3    H235187   5.103   2.279  11.106 -1.4226  1.2649 -1.0797
 4566TIP3   OH235188   3.165   3.113  14.905 -0.5607  0.1740 -0.2101
 4566TIP3    H135189   3.195   3.065  14.828 -0.7260 -1.1932  0.5563
 4566TIP3    H235190   3.121   3.048  14.959  1.1660  0.6564  1.9376
 4567TIP3   OH235191   1.918   0.921   3.003  0.1408 -0.1698  0.1275
 4567TIP3    H135192   1.844   0.897   3.058 -1.6880  1.0910 -1.5965
 4567TIP3    H235193   1.980   0.964   3.062 -0.4247 -1.3683  1.6410
 4568TIP3   OH235194   6.540   0.817  14.921 -0.1258 -0.4368 -0.1768
 4568TIP3    H135195   6.526   0.895  14.976 -0.0700 -1.2057  0.9723
 4568TIP3    H235196   6.566   0.852  14.836 -1.8544  0.8488 -0.2322
 4569TIP3   OH235197   2.896   1.846  16.733 -0.0161 -0.2468  0.1399
 4569TIP3    H135198   2.972   1.802  16.771  0.3430  0.6366  0.4795
 4569TIP3    H235199   2.820   1.805  16.775  0.2291 -1.5015 -0.5855
 4570TIP3   OH235200   2.624   2.565   6.332  0.1649  0.4308 -0.1690
 4570TIP3    H135201   2.622   2.618   6.412 -1.8311 -0.7590  0.6348
 4570TIP3    H235202   2.581   2.483   6.356  1.6982 -0.9409 -1.8326
 4571TIP3   OH235203   0.833   3.630   3.059 -0.3221  0.9262 -0.5478
 4571TIP3    H135204   0.762   3.578   3.021 -0.5893  0.2707  0.7921
 4571TIP3    H235205   0.805   3.648   3.149  1.3546  0.3260  0.1474
 4572TIP3   OH235206   2.142   3.204  15.476  0.0653  0.2060  0.9575
 4572TIP3    H135207   2.106   3.166  15.556 -1.2734  1.8916  1.2039
 4572TIP3    H235208   2.177   3.289  15.504  2.0582 -0.3299  0.2426
 4573TIP3   OH235209   5.859   0.103  15.412 -0.5078 -1.0735 -0.0638
 4573TIP3    H135210   5.769   0.121  15.384 -0.9948 -1.3465  1.2679
 4573TIP3    H235211   5.873   0.161  15.486  1.5135  1.2322 -2.0831
 4574TIP3   OH235212   2.558   0.381   5.645 -0.1280  0.1014 -0.7830
 4574TIP3    H135213   2.581   0.423   5.728  0.6113  0.3277 -1.0959
 4574TIP3    H235214   2.533   0.453   5.587 -1.5475 -0.1240 -0.5013
 4575TIP3   OH235215   5.102   2.486  15.579  0.1439 -0.3401  0.0341
 4575TIP3    H135216   5.170   2.491  15.645  0.4525 -1.3145 -0.1887
 4575TIP3    H235217   5.118   2.403  15.534 -0.7737 -0.2593 -0.4774
 4576TIP3   OH235218   5.841   2.943  14.095  0.5139  0.0037 -0.8603
 4576TIP3    H135219   5.887   2.917  14.175  0.7410  0.9374 -0.6755
 4576TIP3    H235220   5.756   2.900  14.102  0.7343 -0.3713 -0.3877
 4577TIP3   OH235221   4.304   4.500  15.143  0.2394 -0.1083  0.3146
 4577TIP3    H135222   4.397   4.478  15.150  0.2974 -0.4016 -0.9879
 4577TIP3    H235223   4.275   4.455  15.063 -0.4341  1.9240 -0.6535
 4578TIP3   OH235224   5.588   2.454   3.304  0.2357  0.3637 -0.0285
 4578TIP3    H135225   5.660   2.407   3.344 -0.1257 -0.7417 -0.6476
 4578TIP3    H235226   5.519   2.389   3.293 -0.3104  1.0462 -0.8370
 4579TIP3   OH235227   6.647   1.875   0.927 -0.1237  0.1622  0.8270
 4579TIP3    H135228   6.678   1.834   0.846 -0.7574  0.9874  0.1533
 4579TIP3    H235229   6.667   1.811   0.995 -0.6896 -1.0671 -0.1368
 4580TIP3   OH235230   1.418   3.441  15.143 -0.0146 -0.3325 -0.3456
 4580TIP3    H135231   1.508   3.465  15.121  0.0880  0.1600  0.5440
 4580TIP3    H235232   1.373   3.435  15.059  1.1434 -1.8676 -0.9090
 4581TIP3   OH235233   1.588   2.405   1.781  0.7662 -0.0890  0.1652
 4581TIP3    H135234   1.628   2.475   1.833  0.3112  0.3541 -0.0612
 4581TIP3    H235235   1.654   2.336   1.778  1.3833  0.4945  0.0581
 4582TIP3   OH235236   2.481   5.795   5.378 -0.0022  0.0652 -0.0494
 4582TIP3    H135237   2.430   5.751   5.445 -0.1027 -0.8898 -0.7309
 4582TIP3    H235238   2.421   5.804   5.304  0.4307  0.0697 -0.4076
 4583TIP3   OH235239   0.167   0.218  15.515  0.6999  0.0868 -0.1492
 4583TIP3    H135240   0.099   0.262  15.567 -0.1252 -0.2518 -0.9077
 4583TIP3    H235241   0.242   0.276  15.521 -0.3637  1.6364 -1.1175
 4584TIP3   OH235242   3.101   6.579  15.274 -0.7919 -0.1333  0.1192
 4584TIP3    H135243   3.096   6.620  15.187 -0.2219 -2.1545 -0.9536
 4584TIP3    H235244   3.044   6.502  15.267  0.2797 -1.0598  1.0649
 4585TIP3   OH235245   4.543   2.340  13.113  0.9604 -0.1410 -0.1456
 4585TIP3    H135246   4.508   2.355  13.201  0.4236  0.3386 -0.4385
 4585TIP3    H235247   4.637   2.334  13.126  0.8005 -1.3661  0.6451
 4586TIP3   OH235248   4.946   5.507   3.201  0.4925 -0.7367  0.1675
 4586TIP3    H135249   4.862   5.495   3.247 -0.9566 -2.0049 -2.6032
 4586TIP3    H235250   4.978   5.419   3.186  2.6298 -0.2613  1.5281
 4587TIP3   OH235251   1.642   6.484  13.041 -0.3313  0.1348  0.5949
 4587TIP3    H135252   1.582   6.468  13.114 -0.0396  1.4495  1.1410
 4587TIP3    H235253   1.728   6.464  13.077 -0.4059 -1.9590 -0.2488
 4588TIP3   OH235254   1.565   0.131  12.287 -0.0832  0.0796 -0.1563
 4588TIP3    H135255   1.641   0.075  12.272 -1.5544 -1.5630 -1.9476
 4588TIP3    H235256   1.558   0.137  12.382  0.5849 -2.1590  0.0928
 4589TIP3   OH235257   5.831   6.346  12.618  0.1703  0.2948 -0.4823
 4589TIP3    H135258   5.748   6.305  12.642 -0.0761  1.5903  1.0980
 4589TIP3    H235259   5.885   6.338  12.697  0.0134  3.1124  0.0138
 4590TIP3   OH235260   3.836   6.148   4.671 -0.0586  0.3532  0.1824
 4590TIP3    H135261   3.839   6.212   4.600  2.0574 -0.8819 -0.9551
 4590TIP3    H235262   3.874   6.194   4.746 -1.5103  1.3912  0.3137
 4591TIP3   OH235263   6.450   0.630  17.039 -0.1057 -0.6867 -0.1026
 4591TIP3    H135264   6.419   0.601  17.125 -0.2485  0.3792  0.2241
 4591TIP3    H235265   6.543   0.650  17.053 -0.0647 -0.7737 -0.2592
 4592TIP3   OH235266   1.697   0.854  15.698  0.0727 -0.3736 -0.2163
 4592TIP3    H135267   1.780   0.852  15.650  0.1411  3.0973 -0.5155
 4592TIP3    H235268   1.632   0.876  15.632 -0.3441  1.2264  0.6722
 4593TIP3   OH235269   4.841   2.240   2.938  0.1086 -0.3397  0.0507
 4593TIP3    H135270   4.770   2.294   2.906  1.5666 -0.3128 -3.6146
 4593TIP3    H235271   4.881   2.292   3.008 -1.0392  1.4509 -0.5568
 4594TIP3   OH235272   1.574   4.715   4.323 -0.1437  0.0078  0.3874
 4594TIP3    H135273   1.635   4.697   4.251 -0.0977 -0.7505  0.6170
 4594TIP3    H235274   1.629   4.716   4.401  0.1262  2.6421  0.2634
 4595TIP3   OH235275   2.445   4.522   4.900  0.0173  0.2809 -0.3318
 4595TIP3    H135276   2.405   4.479   4.824  2.7425  0.8286 -2.2116
 4595TIP3    H235277   2.447   4.615   4.876  1.6538  0.3613  0.0391
 4596TIP3   OH235278   3.542   4.461   2.191 -0.4057 -0.2831  0.2173
 4596TIP3    H135279   3.533   4.375   2.149 -0.3636 -0.3859  0.4176
 4596TIP3    H235280   3.475   4.515   2.149  0.3177 -0.0876 -0.7343
 4597TIP3   OH235281   0.846   3.404   5.511  0.7578 -0.3476  0.4066
 4597TIP3    H135282   0.941   3.397   5.522  0.7106 -0.9793  0.4639
 4597TIP3    H235283   0.814   3.424   5.599  0.5830 -3.1784  1.1035
 4598TIP3   OH235284   5.756   0.763  14.661 -0.5444  0.3547  0.5035
 4598TIP3    H135285   5.824   0.818  14.701 -0.1187 -0.3715  0.7808
 4598TIP3    H235286   5.795   0.732  14.579 -0.2830 -0.6123  0.9867
 4599TIP3   OH235287   4.887   0.580  16.837 -0.0810 -0.3006 -0.3210
 4599TIP3    H135288   4.882   0.487  16.859 -0.8447 -0.6810 -1.9687
 4599TIP3    H235289   4.981   0.600  16.841 -0.0345 -0.6909  1.6292
 4600TIP3   OH235290   0.377   3.901  15.138  0.1550  0.4784 -0.0820
 4600TIP3    H135291   0.408   3.974  15.085 -0.5349  0.6971 -0.1928
 4600TIP3    H235292   0.316   3.941  15.201 -5.6739 -0.5836 -4.2595
 4601TIP3   OH235293   1.121   6.687   4.506  0.3484 -0.3748 -0.2738
 4601TIP3    H135294   1.123   6.747   4.432  0.9427 -1.0017 -0.7771
 4601TIP3    H235295   1.213   6.673   4.528  0.1899 -0.5373  0.3038
 4602TIP3   OH235296   4.493   3.186   2.036  0.0619 -0.1649  0.3382
 4602TIP3    H135297   4.452   3.145   1.960 -1.4837 -0.0370  1.0818
 4602TIP3    H235298   4.555   3.120   2.067 -1.8198 -1.6779  1.0383
 4603TIP3   OH235299   6.685   0.669  13.139  0.9852 -0.1175  0.9485
 4603TIP3    H135300   6.619   0.655  13.207 -0.3999 -0.2206 -0.3678
 4603TIP3    H235301   6.730   0.585  13.131 -0.2550 -0.7341  0.3077
 4604TIP3   OH235302   1.512   3.071  14.375 -0.4536 -0.7851 -0.0543
 4604TIP3    H135303   1.443   3.123  14.416  0.3652  1.7323 -1.6661
 4604TIP3    H235304   1.488   3.066  14.283  2.2042  1.6377 -1.0215
 4605TIP3   OH235305   0.974   3.614  12.416  0.4934  0.1652  0.2234
 4605TIP3    H135306   0.952   3.584  12.504  0.8155 -0.7513  0.0002
 4605TIP3    H235307   1.008   3.536  12.372  0.6035  0.6823 -0.6220
 4606TIP3   OH235308   0.477   0.521  12.253  0.1242  0.5862 -0.0461
 4606TIP3    H135309   0.549   0.492  12.197 -0.1531  0.9523 -0.6017
 4606TIP3    H235310   0.464   0.449  12.314  1.3224  0.7345  0.4173
 4607TIP3   OH235311   2.259   0.575  10.618  0.0791 -0.2273  0.1635
 4607TIP3    H135312   2.342   0.584  10.665 -1.0804 -1.1193  2.5938
 4607TIP3    H235313   2.266   0.490  10.574  0.5274 -0.1969  0.1685
 4608TIP3   OH235314   4.448   2.492   3.908  0.4831  0.0719 -0.3583
 4608TIP3    H135315   4.378   2.536   3.859  0.0263  2.4628  2.1543
 4608TIP3    H235316   4.407   2.465   3.990  2.4893  2.1449  1.4918
 4609TIP3   OH235317   1.732   6.484   0.333  0.0666  0.3442  0.9137
 4609TIP3    H135318   1.710   6.577   0.343 -2.4205 -0.4052  4.0131
 4609TIP3    H235319   1.692   6.458   0.250  2.7857  2.4041 -1.2267
 4610TIP3   OH235320   1.999   5.966   5.397  0.0256  0.4458  0.7056
 4610TIP3    H135321   2.067   6.034   5.396 -0.6569  1.1413 -0.2657
 4610TIP3    H235322   2.023   5.908   5.325 -0.4936  0.7927  0.2461
 4611TIP3   OH235323   3.694   4.344  13.879  0.1422  0.0668  0.0107
 4611TIP3    H135324   3.628   4.404  13.843  2.5139  1.8306 -1.7304
 4611TIP3    H235325   3.691   4.268  13.822  0.0416  0.4222 -0.4667
 4612TIP3   OH235326   3.943   2.187   5.110  0.2182 -0.3484 -0.2065
 4612TIP3    H135327   4.027   2.227   5.133  0.9005 -2.0884  0.5039
 4612TIP3    H235328   3.880   2.259   5.113  1.5786  0.8901 -0.2168
 4613TIP3   OH235329   1.601   1.352  12.969  0.4197 -0.0398  0.1664
 4613TIP3    H135330   1.574   1.388  12.885  0.6355 -1.3235 -0.4731
 4613TIP3    H235331   1.538   1.281  12.986  0.6721 -0.1078  0.8551
 4614TIP3   OH235332   5.551   3.321  10.496 -0.4575  0.2977  0.1604
 4614TIP3    H135333   5.606   3.286  10.566 -2.4202 -1.4600  0.9186
 4614TIP3    H235334   5.500   3.390  10.537 -0.2355  0.5846 -0.0430
 4615TIP3   OH235335   1.157   4.733  15.691  0.0419  0.0358  0.0448
 4615TIP3    H135336   1.093   4.686  15.637  0.7298 -0.5734 -0.2441
 4615TIP3    H235337   1.118   4.732  15.779 -0.9783  0.8478 -0.3788
 4616TIP3   OH235338   1.138   3.731  11.033 -0.1835 -0.0141  0.2018
 4616TIP3    H135339   1.230   3.729  11.007  0.6677 -1.1168  2.9138
 4616TIP3    H235340   1.115   3.824  11.029  1.7100  0.5818  1.4049
 4617TIP3   OH235341   0.703   3.763   3.620 -0.0511 -0.4952  0.1439
 4617TIP3    H135342   0.657   3.847   3.627 -0.6435 -0.8615  0.8071
 4617TIP3    H235343   0.693   3.738   3.528 -0.0054  0.0791 -0.0257
 4618TIP3   OH235344   4.824   3.676  13.035  1.0510 -0.2898 -0.1091
 4618TIP3    H135345   4.819   3.738  12.962  0.6425 -0.3798 -0.1600
 4618TIP3    H235346   4.757   3.706  13.097  1.4282 -0.1837  0.2551
 4619TIP3   OH235347   3.086   4.191   1.260  0.3084 -0.1331  0.0857
 4619TIP3    H135348   3.177   4.162   1.262  0.6742  1.0029  0.5270
 4619TIP3    H235349   3.089   4.276   1.216 -0.5405 -0.0834  0.1118
 4620TIP3   OH235350   2.304   5.626   4.954  0.0996 -0.0078  0.1234
 4620TIP3    H135351   2.239   5.664   4.895  1.1444 -0.8514 -1.6582
 4620TIP3    H235352   2.262   5.546   4.987 -0.3441  0.2620  0.2264
 4621TIP3   OH235353   5.285   5.088  13.519 -0.1834 -0.0074  0.1305
 4621TIP3    H135354   5.374   5.103  13.489 -0.5196 -0.3542 -1.0626
 4621TIP3    H235355   5.295   5.038  13.601  0.7116  0.0919  0.0851
 4622TIP3   OH235356   6.595   1.600   5.582  0.0059  0.4030 -0.0075
 4622TIP3    H135357   6.560   1.522   5.625 -0.1252  0.2862 -0.3260
 4622TIP3    H235358   6.562   1.673   5.634 -2.5837  0.4434 -1.5619
 4623TIP3   OH235359   6.499   4.833   2.923  0.1938 -0.3591  0.0104
 4623TIP3    H135360   6.404   4.834   2.910  0.0662 -1.1288  0.7278
 4623TIP3    H235361   6.512   4.770   2.995  1.1259  0.7930  0.8970
 4624TIP3   OH235362   5.282   6.299  13.241 -0.9848  0.1481  0.1969
 4624TIP3    H135363   5.275   6.322  13.149 -1.6373  1.3196  0.5218
 4624TIP3    H235364   5.243   6.373  13.288  0.1326 -0.0263  1.4563
 4625TIP3   OH235365   1.507   4.172  13.826 -0.1254  0.1738  0.3662
 4625TIP3    H135366   1.600   4.158  13.842  0.1174 -0.6536 -1.5566
 4625TIP3    H235367   1.464   4.143  13.907  1.1048 -2.3210  0.2263
 4626TIP3   OH235368   6.214   5.533   0.345 -0.2456  0.3274  0.5143
 4626TIP3    H135369   6.118   5.531   0.355 -0.2685  1.5961  0.7651
 4626TIP3    H235370   6.237   5.445   0.318 -1.7362  0.5162 -1.6935
 4627TIP3   OH235371   6.049   2.430  13.353  0.3775 -0.2862  0.3296
 4627TIP3    H135372   6.054   2.521  13.381 -0.0961 -0.0677 -0.2836
 4627TIP3    H235373   6.138   2.397  13.363  0.1144 -0.4616  2.8577
 4628TIP3   OH235374   5.552   6.057   6.516  0.9141 -0.6475  0.2397
 4628TIP3    H135375   5.550   5.963   6.499  0.1603 -0.7642  0.9136
 4628TIP3    H235376   5.472   6.091   6.475  1.8519 -0.0570 -1.2117
 4629TIP3   OH235377   5.298   1.292  14.539  0.0077  0.0031 -0.0269
 4629TIP3    H135378   5.242   1.345  14.482 -0.4140 -1.0977 -0.6879
 4629TIP3    H235379   5.372   1.266  14.484  1.1006  1.2761  0.7836
 4630TIP3   OH235380   2.585   1.790  16.842  0.4620 -0.0186 -0.4665
 4630TIP3    H135381   2.624   1.869  16.879 -4.2621  2.5619 -0.2270
 4630TIP3    H235382   2.564   1.736  16.918 -0.4600  0.7393 -0.1599
 4631TIP3   OH235383   4.690   5.584   3.579 -0.4257 -0.2324  0.1524
 4631TIP3    H135384   4.632   5.659   3.594 -1.2835 -0.8910  0.2210
 4631TIP3    H235385   4.669   5.523   3.650  0.7166 -0.2740  0.4620
 4632TIP3   OH235386   5.642   1.006   4.993  0.5947 -0.0460 -0.5984
 4632TIP3    H135387   5.667   1.098   4.979  0.5142  0.2651  1.0004
 4632TIP3    H235388   5.709   0.973   5.053  0.7408 -1.1084 -1.3310
 4633TIP3   OH235389   6.260   2.982  16.252  0.2148  0.6380  0.4273
 4633TIP3    H135390   6.220   2.914  16.199 -1.4075  1.1902  0.8697
 4633TIP3    H235391   6.336   2.940  16.291 -0.0607 -0.5516 -0.2592
 4634TIP3   OH235392   5.415   0.845  14.696  0.1295  0.1620  0.4229
 4634TIP3    H135393   5.494   0.858  14.644  0.3440 -0.3020  0.6265
 4634TIP3    H235394   5.345   0.880  14.642  0.6139  1.6946  0.7411
 4635TIP3   OH235395   4.574   1.093  11.134  0.3654  0.1862  0.4007
 4635TIP3    H135396   4.590   1.173  11.185 -0.7516 -0.2689  1.5485
 4635TIP3    H235397   4.660   1.064  11.106  1.1861 -0.1108  2.9833
 4636TIP3   OH235398   6.599   0.460   2.795 -0.0117  1.0343 -0.2520
 4636TIP3    H135399   6.668   0.419   2.744 -0.5751  0.9974 -0.9945
 4636TIP3    H235400   6.518   0.438   2.750 -0.5715  0.6331  0.8995
 4637TIP3   OH235401   4.788   2.579   0.093 -0.2125 -0.6598  0.1595
 4637TIP3    H135402   4.721   2.516   0.120 -1.2766  0.7223  0.8278
 4637TIP3    H235403   4.786   2.577  -0.003 -1.7965 -0.0558  0.1537
 4638TIP3   OH235404   3.292   5.126   3.134 -0.8158 -0.2845  0.1590
 4638TIP3    H135405   3.371   5.107   3.185 -0.3573  1.6788  0.2581
 4638TIP3    H235406   3.270   5.043   3.092  0.1440 -1.3730  1.6990
 4639TIP3   OH235407   3.603   5.698  11.343 -0.3023 -0.2965  0.3701
 4639TIP3    H135408   3.653   5.719  11.264  0.8423 -0.9008  0.9048
 4639TIP3    H235409   3.517   5.673  11.311 -0.8436  2.3233 -0.4774
 4640TIP3   OH235410   4.505   1.559   5.424  0.2558  0.0044 -0.0960
 4640TIP3    H135411   4.516   1.634   5.482 -0.0971 -1.4133  1.8862
 4640TIP3    H235412   4.429   1.512   5.459 -0.2514 -0.7018 -1.9791
 4641TIP3   OH235413   5.304   3.067   3.038 -0.0133 -0.1540  0.2767
 4641TIP3    H135414   5.270   2.987   3.079  0.5488 -1.4284 -1.6411
 4641TIP3    H235415   5.331   3.121   3.112 -0.0070 -1.8974  1.6322
 4642TIP3   OH235416   0.734   4.224   1.716 -0.0583  0.4641 -0.5366
 4642TIP3    H135417   0.805   4.184   1.666  0.2848 -1.2007  1.1544
 4642TIP3    H235418   0.767   4.311   1.739  0.5714  0.4912 -1.4918
 4643TIP3   OH235419   4.757   0.726  16.213  0.5085 -0.2510 -0.8898
 4643TIP3    H135420   4.791   0.808  16.178 -2.6742  0.5764 -2.4281
 4643TIP3    H235421   4.784   0.726  16.305  1.2535  2.1339 -1.0376
 4644TIP3   OH235422   1.529   0.857   1.808  0.3602 -0.0332  0.1850
 4644TIP3    H135423   1.535   0.781   1.865  1.7258 -0.6938 -0.7995
 4644TIP3    H235424   1.444   0.848   1.765  0.4098 -0.8966  0.2475
 4645TIP3   OH235425   0.787   3.398  14.122 -0.4334  0.1545  0.1849
 4645TIP3    H135426   0.808   3.312  14.159  0.0617  0.5181  0.7498
 4645TIP3    H235427   0.872   3.440  14.109 -0.6630  0.4753 -0.3082
 4646TIP3   OH235428   3.680   2.344   2.633  0.1454  0.5431 -0.0888
 4646TIP3    H135429   3.625   2.384   2.700  1.1963  3.6961 -0.9231
 4646TIP3    H235430   3.622   2.331   2.558 -0.7017 -1.6423  0.8958
 4647TIP3   OH235431   3.146   2.356   1.811  0.0435 -0.3944  0.3337
 4647TIP3    H135432   3.177   2.443   1.784  0.1333 -0.8727 -1.1609
 4647TIP3    H235433   3.204   2.332   1.883  0.3723  0.5460  0.4049
 4648TIP3   OH235434   6.278   0.865  12.193  0.3253  0.3356  0.3391
 4648TIP3    H135435   6.194   0.821  12.202  1.9051 -2.6872  2.0613
 4648TIP3    H235436   6.319   0.855  12.279  2.3680  1.9520 -0.3675
 4649TIP3   OH235437   3.927   3.737   2.331 -0.2473  0.0201  0.0504
 4649TIP3    H135438   3.858   3.779   2.383 -1.0061 -1.3776  0.2231
 4649TIP3    H235439   3.927   3.785   2.248  0.5181  1.8535  1.0354
 4650TIP3   OH235440   2.044   2.672  16.022  0.1116  0.2450 -0.1018
 4650TIP3    H135441   1.966   2.728  16.025 -1.8127 -2.2579  2.1161
 4650TIP3    H235442   2.023   2.606  15.955 -0.2261 -1.0624  1.2422
 4651TIP3   OH235443   2.912   4.689  13.654  0.4626 -0.2074  0.4450
 4651TIP3    H135444   2.981   4.725  13.598 -0.1043 -1.7187 -1.3280
 4651TIP3    H235445   2.861   4.765  13.681  0.6432  0.5825 -1.2893
 4652TIP3   OH235446   0.680   2.477  16.221 -0.2509  0.0969  0.1303
 4652TIP3    H135447   0.610   2.446  16.164  0.5750 -0.2444 -0.7218
 4652TIP3    H235448   0.749   2.410  16.214 -0.3792 -0.2991  2.0480
 4653TIP3   OH235449   2.234   3.455  11.670  0.0379  0.0683  0.0529
 4653TIP3    H135450   2.235   3.360  11.657 -0.8478 -0.1166  1.1458
 4653TIP3    H235451   2.186   3.467  11.752  1.1087  1.4038  0.5119
 4654TIP3   OH235452   3.515   0.827  12.950 -0.4452 -0.6755 -0.2406
 4654TIP3    H135453   3.457   0.868  12.885  0.4473 -0.3901 -0.8775
 4654TIP3    H235454   3.458   0.767  12.997 -1.4335  0.1442 -0.3421
 4655TIP3   OH235455   2.489   1.543  10.860  0.3392 -0.4926 -0.4600
 4655TIP3    H135456   2.583   1.531  10.854  0.1513 -1.7546 -1.2416
 4655TIP3    H235457   2.478   1.620  10.917  1.8593  0.7968 -1.7929
 4656TIP3   OH235458   3.613   6.479   5.033  0.1050  0.1126  0.1552
 4656TIP3    H135459   3.664   6.398   5.035  1.5997  1.0069  0.9739
 4656TIP3    H235460   3.619   6.509   4.942 -0.7803 -0.8654 -0.2374
 4657TIP3   OH235461   5.518   4.778  12.513  0.0362  0.3983  0.3476
 4657TIP3    H135462   5.523   4.820  12.599  3.8951 -1.2572  1.1216
 4657TIP3    H235463   5.582   4.825  12.459 -2.1269  1.2330 -1.6679
 4658TIP3   OH235464   5.268   1.624   3.229 -0.4983 -0.0847  0.3475
 4658TIP3    H135465   5.333   1.695   3.227 -0.1899 -0.3641 -1.5814
 4658TIP3    H235466   5.286   1.578   3.311  0.8552  0.6519  0.5005
 4659TIP3   OH235467   4.853   6.771   4.612  0.6742 -0.1014 -0.3575
 4659TIP3    H135468   4.937   6.817   4.610  0.3550  0.4862 -0.8847
 4659TIP3    H235469   4.865   6.698   4.551  0.1844  1.1534 -2.0510
 4660TIP3   OH235470   5.923   3.822   2.074 -0.5120  0.5092 -0.4386
 4660TIP3    H135471   5.951   3.897   2.126  1.2449 -0.3124 -0.1413
 4660TIP3    H235472   5.911   3.751   2.138 -1.4921  0.3282 -0.7959
 4661TIP3   OH235473   4.485   2.931  16.920 -0.2564  0.4977 -0.0911
 4661TIP3    H135474   4.571   2.962  16.892  0.0759 -1.4124 -1.3224
 4661TIP3    H235475   4.432   2.932  16.841 -0.7173 -0.3986  0.1935
 4662TIP3   OH235476   0.023   5.273   0.991  0.9108  0.0460  0.1690
 4662TIP3    H135477   0.092   5.311   1.045 -0.9238  1.1133  1.9023
 4662TIP3    H235478   0.017   5.182   1.021  0.8211  0.2652  0.8433
 4663TIP3   OH235479   6.775   1.864   5.519 -0.2726 -0.6373  0.1846
 4663TIP3    H135480   6.776   1.927   5.591 -2.3555  1.2138 -1.2703
 4663TIP3    H235481   6.682   1.850   5.502  0.0882 -4.1048  0.3312
 4664TIP3   OH235482   4.056   2.265  15.842 -0.3805 -0.2789  0.5331
 4664TIP3    H135483   4.110   2.328  15.889  0.7824 -0.6339 -0.2912
 4664TIP3    H235484   3.980   2.317  15.813  0.4423  0.7007  0.0652
 4665TIP3   OH235485   5.396   0.470  11.533 -0.3576 -0.1474 -0.4594
 4665TIP3    H135486   5.461   0.519  11.583 -1.7106  0.7190  0.5132
 4665TIP3    H235487   5.340   0.536  11.493 -1.2053 -0.8735 -0.5187
 4666TIP3   OH235488   2.869   4.322   3.704 -0.2577 -0.4342 -0.0410
 4666TIP3    H135489   2.812   4.357   3.772 -1.2639 -0.0685 -1.0349
 4666TIP3    H235490   2.815   4.257   3.658 -0.0863  0.2950 -1.3325
 4667TIP3   OH235491   5.074   6.148  12.299  0.0807  0.2655  0.0370
 4667TIP3    H135492   5.134   6.155  12.224 -1.2675 -1.4936 -1.2728
 4667TIP3    H235493   5.006   6.213  12.282  0.2575  0.5015  0.2213
 4668TIP3   OH235494   2.013   3.349  14.078 -0.6127  0.1120 -0.3844
 4668TIP3    H135495   1.962   3.279  14.118  0.4602 -0.6779 -0.3467
 4668TIP3    H235496   2.099   3.309  14.062 -0.1244  1.2895 -0.7716
 4669TIP3   OH235497   0.608   5.119  14.078  0.4967 -0.0940 -0.1797
 4669TIP3    H135498   0.582   5.027  14.089  2.6395 -0.5462  2.0543
 4669TIP3    H235499   0.703   5.115  14.064  0.6769  1.7934  0.2701
 4670TIP3   OH235500   0.583   3.125   1.269  0.2128  0.4888  0.3245
 4670TIP3    H135501   0.558   3.189   1.202 -0.2471  1.0943  1.0598
 4670TIP3    H235502   0.612   3.178   1.343 -0.2246 -0.1538  0.9673
 4671TIP3   OH235503   2.077   0.384   2.171 -1.0680  0.4756  0.0926
 4671TIP3    H135504   2.153   0.441   2.162  1.1118 -2.0690  0.8484
 4671TIP3    H235505   2.071   0.367   2.265 -1.0985 -1.1321 -0.1675
 4672TIP3   OH235506   0.892   5.884   4.216  0.3759 -0.0936  0.0670
 4672TIP3    H135507   0.937   5.885   4.300 -1.1812  1.6908  0.9550
 4672TIP3    H235508   0.807   5.924   4.234 -1.0483 -2.0476 -1.8225
 4673TIP3   OH235509   2.016   1.867   6.536  0.0492 -0.9354 -0.3660
 4673TIP3    H135510   1.997   1.961   6.541  0.1748 -0.7434 -2.4065
 4673TIP3    H235511   2.112   1.863   6.540  0.0069 -1.0675  0.6240
 4674TIP3   OH235512   5.357   2.284   4.243  0.3081 -0.9913  0.0614
 4674TIP3    H135513   5.417   2.212   4.262 -0.0555 -0.7598  2.4268
 4674TIP3    H235514   5.411   2.362   4.248  0.3531 -0.9717 -0.6884
 4675TIP3   OH235515   5.566   4.358   1.797 -0.3801 -0.5390  0.0292
 4675TIP3    H135516   5.551   4.275   1.751 -3.0420  0.6334 -1.5015
 4675TIP3    H235517   5.520   4.348   1.880 -2.1996 -0.1244 -0.8577
 4676TIP3   OH235518   1.696   2.400   5.292  0.3869  0.1323  0.1776
 4676TIP3    H135519   1.724   2.309   5.286  0.6392  0.2092  0.1579
 4676TIP3    H235520   1.607   2.401   5.256  1.0117  0.1823 -1.4779
 4677TIP3   OH235521   0.053   6.712   1.640  0.5103  0.1430  0.0311
 4677TIP3    H135522   0.047   6.745   1.730  2.6174  1.1148 -0.1287
 4677TIP3    H235523   0.147   6.705   1.623  0.2052  1.0110 -2.4499
 4678TIP3   OH235524   6.543   5.870   4.359 -0.6293 -0.6071  0.2460
 4678TIP3    H135525   6.561   5.924   4.436 -0.9896 -1.3798  0.8776
 4678TIP3    H235526   6.508   5.789   4.394  0.2282 -1.4039 -0.6867
 4679TIP3   OH235527   5.498   0.066   4.001  0.1853 -0.1015  0.0391
 4679TIP3    H135528   5.546   0.139   4.040  1.5443  0.1019 -1.8736
 4679TIP3    H235529   5.555   0.035   3.931 -1.6592 -1.1185 -1.0800
 4680TIP3   OH235530   0.156   5.140   6.133 -0.3638 -0.2759  0.3744
 4680TIP3    H135531   0.088   5.171   6.194  0.2972 -0.8200  1.4221
 4680TIP3    H235532   0.224   5.206   6.138 -0.2037 -0.4436  0.4136
 4681TIP3   OH235533   4.620   3.994  16.962  0.7134  0.4604  0.1326
 4681TIP3    H135534   4.584   4.076  16.930 -0.0974  0.1811  0.3129
 4681TIP3    H235535   4.702   4.018  17.005  0.1938  1.2395  0.6928
 4682TIP3   OH235536   1.895   2.130   6.271 -0.4328  0.4690 -0.4937
 4682TIP3    H135537   1.807   2.120   6.308 -0.4521  1.3135 -0.3074
 4682TIP3    H235538   1.942   2.183   6.334  0.7139 -1.2768  0.1781
 4683TIP3   OH235539   0.811   3.356  16.416  0.2076 -0.3816 -0.0935
 4683TIP3    H135540   0.833   3.267  16.391  1.4919 -1.0468  2.8705
 4683TIP3    H235541   0.723   3.371  16.383  0.1354 -2.5929 -1.0056
 4684TIP3   OH235542   1.246   6.799   6.633 -0.1700 -0.7352 -0.7399
 4684TIP3    H135543   1.190   6.814   6.557 -0.3185  1.5951 -0.2501
 4684TIP3    H235544   1.219   6.866   6.696  2.0014 -0.6555  0.1871
 4685TIP3   OH235545   6.520   0.267   5.325  0.4160 -0.4957  0.3919
 4685TIP3    H135546   6.445   0.238   5.273  0.7597 -0.0118 -0.3795
 4685TIP3    H235547   6.594   0.268   5.264  0.8143  0.1090  0.8668
 4686TIP3   OH235548   2.131   5.105  11.437 -0.3538 -0.9379 -0.8186
 4686TIP3    H135549   2.057   5.144  11.390  1.3100  1.2825 -1.7728
 4686TIP3    H235550   2.134   5.152  11.520  0.0049 -0.9859 -0.8009
 4687TIP3   OH235551   4.785   0.915  15.492 -0.2302  0.3387 -0.4341
 4687TIP3    H135552   4.741   0.868  15.421 -0.6409  1.3791 -0.8952
 4687TIP3    H235553   4.877   0.919  15.465  0.2314 -1.9639  0.5997
 4688TIP3   OH235554   6.064   0.479  10.549 -0.9103  0.1682  0.2589
 4688TIP3    H135555   6.040   0.470  10.641 -0.6157 -0.7713  0.2557
 4688TIP3    H235556   5.997   0.430  10.502 -0.4421 -0.2786  0.0558
 4689TIP3   OH235557   2.096   4.917  16.739  0.4290 -0.0548  0.1738
 4689TIP3    H135558   2.010   4.940  16.702  0.6749  3.4974  1.3945
 4689TIP3    H235559   2.156   4.922  16.665  0.1634  1.9212  0.0225
 4690TIP3   OH235560   0.739   6.219  17.141 -0.3077 -0.4803 -0.8002
 4690TIP3    H135561   0.741   6.304  17.186 -0.6676 -1.4472  1.1463
 4690TIP3    H235562   0.650   6.214  17.106  0.0465  0.3857 -1.8931
 4691TIP3   OH235563   4.410   6.680  12.895  0.1177  0.1466  0.3797
 4691TIP3    H135564   4.492   6.720  12.868  0.0011  0.2006  0.0902
 4691TIP3    H235565   4.414   6.676  12.990  0.2482  0.5890  0.3924
 4692TIP3   OH235566   0.752   0.864  12.980  0.3902  0.0885  0.2695
 4692TIP3    H135567   0.750   0.883  12.886  0.9557 -1.7638 -0.1731
 4692TIP3    H235568   0.692   0.927  13.019 -0.7635  0.1638 -1.4961
 4693TIP3   OH235569   1.682   4.615   0.223  0.3899 -0.0193  0.0186
 4693TIP3    H135570   1.649   4.682   0.282 -0.5085  0.0752 -0.5526
 4693TIP3    H235571   1.776   4.629   0.219  0.0164  2.8693 -2.0076
 4694TIP3   OH235572   6.169   3.542  16.740  0.8166 -0.4429 -0.0952
 4694TIP3    H135573   6.128   3.571  16.658  0.7204  1.6400  0.6123
 4694TIP3    H235574   6.257   3.514  16.714  1.4719  1.9288 -0.7521
 4695TIP3   OH235575   6.376   5.079   0.780  0.3201  1.1941  0.0070
 4695TIP3    H135576   6.324   5.159   0.775 -0.3836  0.6860 -1.1756
 4695TIP3    H235577   6.463   5.104   0.750 -0.0948  1.3655 -1.0880
 4696TIP3   OH235578   3.000   2.691  16.029 -0.2740  0.1352  0.0363
 4696TIP3    H135579   3.028   2.629  16.097 -1.0842  2.0542  2.2477
 4696TIP3    H235580   3.063   2.763  16.034 -0.9549  0.7907 -0.5463
 4697TIP3   OH235581   4.264   0.743   4.022 -0.8076  0.3481 -0.2337
 4697TIP3    H135582   4.279   0.728   4.115  3.3424 -0.5893 -0.8589
 4697TIP3    H235583   4.239   0.657   3.987  1.1124 -0.1777 -0.4298
 4698TIP3   OH235584   2.996   4.865   5.293 -0.5272 -0.0108 -0.4588
 4698TIP3    H135585   2.970   4.928   5.360 -2.5049  0.4877 -1.6243
 4698TIP3    H235586   3.087   4.845   5.314 -0.8378  0.7017  1.9005
 4699TIP3   OH235587   3.648   3.996   3.375  0.2978 -0.9069  0.0610
 4699TIP3    H135588   3.603   4.072   3.337  0.0912 -1.7991 -1.5409
 4699TIP3    H235589   3.709   4.034   3.438 -0.3199  0.5430 -0.1687
 4700TIP3   OH235590   0.628   1.170  16.058 -0.3912  0.2874  0.5638
 4700TIP3    H135591   0.575   1.239  16.018 -1.6226  0.0498  1.7267
 4700TIP3    H235592   0.590   1.089  16.026 -0.4564  0.1186  1.0622
 4701TIP3   OH235593   2.881   5.318   3.492 -0.0885  0.2685 -1.0902
 4701TIP3    H135594   2.829   5.240   3.513 -1.0434  0.6476 -1.9515
 4701TIP3    H235595   2.926   5.295   3.411  0.5329  0.2101 -0.7349
 4702TIP3   OH235596   1.417   3.627   5.848  0.6261  0.3203  0.1454
 4702TIP3    H135597   1.372   3.708   5.871  2.0771  1.2227 -0.0442
 4702TIP3    H235598   1.501   3.634   5.894  0.5894 -1.3120  0.5118
 4703TIP3   OH235599   2.379   5.028   4.196 -0.0614  0.2465  0.4926
 4703TIP3    H135600   2.288   5.009   4.219 -0.5369  1.1598 -0.5369
 4703TIP3    H235601   2.380   5.121   4.174  1.1276  0.2527  0.4897
 4704TIP3   OH235602   3.905   2.008   5.299  0.4863 -0.1035 -0.1723
 4704TIP3    H135603   3.841   2.047   5.359 -0.1025 -1.6081  0.2211
 4704TIP3    H235604   3.906   2.067   5.224 -0.6384  0.4776  0.2394
 4705TIP3   OH235605   2.727   4.133   5.497 -0.4100 -0.1717  1.0028
 4705TIP3    H135606   2.728   4.215   5.447 -0.1238 -0.9391 -0.3072
 4705TIP3    H235607   2.634   4.112   5.505 -0.4359 -0.7124 -0.4078
 4706TIP3   OH235608   3.723   1.329  17.274  0.0848  0.2259 -0.5441
 4706TIP3    H135609   3.657   1.297  17.335 -0.4448  1.7080 -0.2813
 4706TIP3    H235610   3.769   1.251  17.244 -0.2275 -0.6106  1.0700
 4707TIP3   OH235611   6.442   5.021   0.085  0.8310  0.0125  0.0822
 4707TIP3    H135612   6.362   5.048   0.041 -0.6288 -2.7180  0.8344
 4707TIP3    H235613   6.464   5.094   0.143 -3.0649 -0.3632  2.3523
 4708TIP3   OH235614   0.998   4.034   5.714  0.3207  0.3707 -0.7609
 4708TIP3    H135615   1.076   4.044   5.660  0.2314  0.5234 -0.8628
 4708TIP3    H235616   0.934   4.094   5.675  0.2486  0.4629 -0.5047
 4709TIP3   OH235617   2.007   4.991  11.187  0.1910 -0.2056 -0.2209
 4709TIP3    H135618   1.933   5.038  11.226 -0.1597  0.1176 -1.2236
 4709TIP3    H235619   2.043   4.939  11.258  0.0228  0.9031  0.6983
 4710TIP3   OH235620   6.239   1.143   0.927 -0.2160 -0.7179  0.6149
 4710TIP3    H135621   6.322   1.102   0.953  1.5038  0.8504 -2.0009
 4710TIP3    H235622   6.197   1.079   0.871  0.3218 -0.6524  0.1302
 4711TIP3   OH235623   2.105   4.698  16.532 -0.1989 -0.2563 -0.2683
 4711TIP3    H135624   2.115   4.656  16.617 -0.4833 -0.9741 -0.5782
 4711TIP3    H235625   2.089   4.625  16.471  0.2384  0.2243 -0.9716
 4712TIP3   OH235626   1.693   2.986  14.137 -0.0671  0.1388  0.2497
 4712TIP3    H135627   1.750   2.924  14.091 -0.9740 -0.4494 -0.1101
 4712TIP3    H235628   1.752   3.052  14.171  0.6755  0.4649 -1.5568
 4713TIP3   OH235629   5.497   0.274  13.246  0.0024  0.8890  0.1883
 4713TIP3    H135630   5.581   0.307  13.214 -0.0132 -0.3844 -1.2638
 4713TIP3    H235631   5.451   0.352  13.276  1.0812  1.8104 -0.4672
 4714TIP3   OH235632   2.669   1.745  12.672 -0.4423  0.0949 -0.0632
 4714TIP3    H135633   2.701   1.822  12.625 -0.5368 -0.1031 -0.4583
 4714TIP3    H235634   2.581   1.732  12.637 -1.3760  1.2317  1.7256
 4715TIP3   OH235635   5.013   3.170   0.274  0.1810  0.4145  0.5482
 4715TIP3    H135636   4.988   3.098   0.217  0.2007  1.2843 -0.5988
 4715TIP3    H235637   5.066   3.228   0.219  1.0536  0.7901  1.7266
 4716TIP3   OH235638   0.349   1.675  14.658 -0.1520 -0.4862  0.4493
 4716TIP3    H135639   0.257   1.655  14.644 -0.5276  0.3284  1.6098
 4716TIP3    H235640   0.396   1.608  14.607 -1.3580 -0.4017 -0.8486
 4717TIP3   OH235641   5.371   0.581  15.912 -0.2766 -0.2646  0.2375
 4717TIP3    H135642   5.464   0.571  15.891 -0.5539 -0.7911 -0.8148
 4717TIP3    H235643   5.367   0.657  15.970  0.6217  0.9449 -1.2106
 4718TIP3   OH235644   1.511   2.301  15.345 -0.2379  0.5199  0.2951
 4718TIP3    H135645   1.513   2.275  15.437  0.5993  1.7407  0.6530
 4718TIP3    H235646   1.441   2.366  15.339 -0.3287  0.4019  0.0640
 4719TIP3   OH235647   4.092   0.763  15.894  0.5197 -0.1060  0.3730
 4719TIP3    H135648   4.064   0.853  15.873  1.4569  0.2000  0.3768
 4719TIP3    H235649   4.017   0.709  15.870  0.6855  0.4623 -1.6133
 4720TIP3   OH235650   6.315   2.534  12.621 -0.0967 -0.6156 -0.5140
 4720TIP3    H135651   6.342   2.503  12.707 -0.1332 -0.2635 -0.3739
 4720TIP3    H235652   6.391   2.519  12.565  0.8680  1.4525  0.1250
 4721TIP3   OH235653   5.187   3.279  15.912 -0.4216  0.1049 -0.3952
 4721TIP3    H135654   5.265   3.332  15.896 -0.4963  0.3233 -0.0471
 4721TIP3    H235655   5.178   3.278  16.007 -1.0582  0.3892 -0.4476
 4722TIP3   OH235656   6.677   6.784   2.794  0.1653 -0.5080 -0.2364
 4722TIP3    H135657   6.612   6.798   2.863 -1.0416 -1.2459 -1.1727
 4722TIP3    H235658   6.745   6.732   2.834 -0.3562 -0.6426  0.4912
 4723TIP3   OH235659   3.130   3.904   5.256 -0.0268  0.0642 -0.2625
 4723TIP3    H135660   3.075   3.849   5.311  0.2136  1.7896  1.8284
 4723TIP3    H235661   3.218   3.870   5.267 -0.1863 -0.5976 -0.9269
 4724TIP3   OH235662   4.484   0.204   1.013 -0.0345  0.3588  0.2336
 4724TIP3    H135663   4.420   0.275   1.008 -0.4861  0.0730  1.5468
 4724TIP3    H235664   4.494   0.188   1.107  0.9268 -0.5406 -0.0098
 4725TIP3   OH235665   4.629   2.059  16.759 -0.0448  0.3379  0.5129
 4725TIP3    H135666   4.638   1.987  16.820 -0.9292  0.4282  0.7660
 4725TIP3    H235667   4.703   2.117  16.778  2.0570 -1.5836 -1.2586
 4726TIP3   OH235668   0.524   0.226   0.280 -0.1380 -0.5634 -0.0065
 4726TIP3    H135669   0.583   0.205   0.352  0.7437 -0.5527 -0.7082
 4726TIP3    H235670   0.548   0.164   0.210  0.8143  1.0983 -1.2203
 4727TIP3   OH235671   4.444   4.521  15.671 -0.6738 -0.7402  0.2662
 4727TIP3    H135672   4.355   4.521  15.708 -0.3626 -1.7094  1.0503
 4727TIP3    H235673   4.498   4.482  15.739  0.0302 -2.0684 -1.0119
 4728TIP3   OH235674   6.257   5.900   5.667  0.4015 -0.3354  0.3962
 4728TIP3    H135675   6.283   5.906   5.759  0.9123 -1.0972  0.3076
 4728TIP3    H235676   6.248   5.992   5.640 -0.1885 -0.1020  1.3139
 4729TIP3   OH235677   1.841   5.054  16.182 -0.2779  0.0402  0.5788
 4729TIP3    H135678   1.901   5.003  16.128 -2.2596 -1.4534 -0.3124
 4729TIP3    H235679   1.864   5.030  16.272  1.5680  0.8533  0.3704
 4730TIP3   OH235680   3.546   0.729   4.423  0.1528  0.0393  0.6880
 4730TIP3    H135681   3.511   0.686   4.345  1.0896 -1.8363  1.2629
 4730TIP3    H235682   3.640   0.714   4.419  0.3964  1.2119  1.4368
 4731TIP3   OH235683   5.839   3.596  12.189  0.1467 -1.0269  0.3474
 4731TIP3    H135684   5.924   3.636  12.202 -1.1588  2.1688 -0.0721
 4731TIP3    H235685   5.781   3.642  12.250 -1.8752 -0.8496 -1.5791
 4732TIP3   OH235686   1.013   5.414  11.365  0.0220 -0.1911 -0.1018
 4732TIP3    H135687   0.951   5.448  11.300 -1.1619  0.1210  1.1300
 4732TIP3    H235688   1.015   5.481  11.434 -0.0317 -1.2353  0.9527
 4733TIP3   OH235689   3.379   6.521  14.111  0.0541 -0.0200 -0.0457
 4733TIP3    H135690   3.294   6.554  14.139 -0.6703 -1.2196 -0.7444
 4733TIP3    H235691   3.401   6.453  14.175  0.6381  0.4770  0.2972
 4734TIP3   OH235692   6.199   3.116   2.917  0.6456  0.2547 -0.4433
 4734TIP3    H135693   6.283   3.155   2.891  1.2643 -1.0506 -0.5197
 4734TIP3    H235694   6.223   3.028   2.948 -0.9287 -1.0092 -2.5833
 4735TIP3   OH235695   5.795   1.375   1.483 -0.3200 -0.1972 -0.3171
 4735TIP3    H135696   5.822   1.283   1.480 -0.0365 -0.0979 -1.6155
 4735TIP3    H235697   5.766   1.394   1.394  1.5839  1.5242 -0.6568
 4736TIP3   OH235698   1.661   1.312  17.111 -0.0558 -0.4429 -0.3370
 4736TIP3    H135699   1.621   1.396  17.136  0.3092 -0.2490 -0.4013
 4736TIP3    H235700   1.599   1.246  17.143 -0.0040 -0.1726  0.3411
 4737TIP3   OH235701   1.015   3.271  16.991  0.0953  0.2742 -0.2223
 4737TIP3    H135702   1.008   3.311  16.904 -0.2786 -1.4799 -1.0485
 4737TIP3    H235703   1.104   3.235  16.994  0.3830  1.0003  0.4562
 4738TIP3   OH235704   2.192   2.665   3.654 -0.5982  0.0302  0.7844
 4738TIP3    H135705   2.227   2.717   3.582  0.9619 -2.7850 -0.6150
 4738TIP3    H235706   2.242   2.694   3.731 -0.2048  0.9966  0.1850
 4739TIP3   OH235707   6.678   0.396  16.909  0.2883 -0.3690 -0.0123
 4739TIP3    H135708   6.587   0.369  16.921 -0.1152  0.5612 -0.8150
 4739TIP3    H235709   6.673   0.491  16.897  1.1027 -0.5544 -2.3530
 4740TIP3   OH235710   3.223   1.969  14.739  0.2150  0.0097  0.0926
 4740TIP3    H135711   3.181   1.883  14.741  0.2683 -0.0152  2.0587
 4740TIP3    H235712   3.262   1.979  14.826  1.1138  1.5889 -0.4487
 4741TIP3   OH235713   0.556   1.530  12.332  0.1117  0.0913 -0.2131
 4741TIP3    H135714   0.520   1.615  12.359 -1.0755  0.2581 -2.1997
 4741TIP3    H235715   0.644   1.550  12.301 -0.5746  0.8378 -1.7733
 4742TIP3   OH235716   5.492   1.870  16.419 -0.5651 -0.1565  0.0171
 4742TIP3    H135717   5.533   1.954  16.397  1.3125 -0.6975  1.1671
 4742TIP3    H235718   5.501   1.817  16.340  1.2058 -0.3064  0.2737
 4743TIP3   OH235719   1.546   4.452   6.597  0.3674  0.1985  0.9418
 4743TIP3    H135720   1.601   4.407   6.533  0.1860  1.4030 -0.0971
 4743TIP3    H235721   1.456   4.440   6.565  0.3149  1.2729  0.6188
 4744TIP3   OH235722   5.360   6.650   1.569  0.0692 -0.0846 -0.4640
 4744TIP3    H135723   5.338   6.730   1.617  1.3747  0.1877 -0.2946
 4744TIP3    H235724   5.411   6.680   1.493  1.1516 -0.7974 -0.0385
 4745TIP3   OH235725   5.908   4.104   6.058 -0.1576 -0.6763  1.0661
 4745TIP3    H135726   5.944   4.087   5.971 -2.0804 -1.5774  0.3848
 4745TIP3    H235727   5.929   4.195   6.075  1.6183 -0.9131  0.3543
 4746TIP3   OH235728   4.832   2.149   2.191 -0.0966  0.2414  0.0571
 4746TIP3    H135729   4.782   2.230   2.202 -0.8897 -0.2765  0.4029
 4746TIP3    H235730   4.913   2.176   2.148 -1.1456  0.9500 -1.5525
 4747TIP3   OH235731   3.310   3.753   1.935 -0.1854 -0.4706 -0.3006
 4747TIP3    H135732   3.257   3.789   2.006 -0.4787 -0.0126 -0.7490
 4747TIP3    H235733   3.262   3.776   1.855  0.5247 -0.3322 -0.6948
 4748TIP3   OH235734   6.772   5.569  13.852  0.8387 -0.0775 -0.2291
 4748TIP3    H135735   6.695   5.551  13.798  0.3631  0.7410  0.1667
 4748TIP3    H235736   6.818   5.485  13.856  1.0441 -0.0923 -2.1391
 4749TIP3   OH235737   4.919   2.607  10.740 -0.4635 -0.3636 -0.1335
 4749TIP3    H135738   4.840   2.661  10.742 -0.1036  0.1862 -0.4161
 4749TIP3    H235739   4.892   2.523  10.778 -1.4220 -0.5027 -1.0691
 4750TIP3   OH235740   6.787   1.765   3.449 -0.1580  0.3095 -0.8573
 4750TIP3    H135741   6.747   1.702   3.389  1.5048 -0.0951 -1.6009
 4750TIP3    H235742   6.879   1.739   3.452 -0.0147  0.9233  1.1314
 4751TIP3   OH235743   5.629   3.241  13.467 -0.0404 -0.2720  0.4775
 4751TIP3    H135744   5.705   3.253  13.409  0.1382 -1.0513  0.5404
 4751TIP3    H235745   5.591   3.329  13.475 -0.4628 -0.2446 -1.3659
 4752TIP3   OH235746   0.535   0.938   2.258 -0.3663  0.1450 -0.6317
 4752TIP3    H135747   0.541   0.957   2.165 -1.1832  0.1604 -0.6878
 4752TIP3    H235748   0.625   0.944   2.290  0.2101 -1.6698 -1.7557
 4753TIP3   OH235749   3.716   3.550  16.749  0.9170  0.3851  0.3534
 4753TIP3    H135750   3.701   3.496  16.671 -0.1249  1.3584 -0.1421
 4753TIP3    H235751   3.629   3.566  16.785  1.0026  3.1250 -0.4667
 4754TIP3   OH235752   4.095   2.738  12.482 -0.3470  0.2184  0.1927
 4754TIP3    H135753   4.022   2.797  12.502 -1.4862 -0.5815 -1.3530
 4754TIP3    H235754   4.164   2.796  12.448 -0.9905  0.7894 -0.1685
 4755TIP3   OH235755   4.412   5.227  13.457 -0.9972  0.5160 -0.0511
 4755TIP3    H135756   4.490   5.273  13.428 -0.1247 -1.2152 -0.5689
 4755TIP3    H235757   4.355   5.296  13.493  0.4356  1.8933 -0.3370
 4756TIP3   OH235758   4.931   2.143   0.864 -0.5949  0.0194 -0.6713
 4756TIP3    H135759   4.988   2.200   0.814  2.1032 -1.0070  0.9863
 4756TIP3    H235760   4.859   2.122   0.805  0.9780  1.0272 -3.0788
 4757TIP3   OH235761   6.079   3.588   6.347 -0.1924 -0.3742 -0.3574
 4757TIP3    H135762   6.172   3.608   6.338 -0.3993 -0.0817 -2.3012
 4757TIP3    H235763   6.040   3.667   6.384  0.1689 -0.0288 -0.7051
 4758TIP3   OH235764   0.360   4.700   2.429 -0.3403  0.0366  0.0328
 4758TIP3    H135765   0.382   4.793   2.430 -0.2084  0.0025  0.6696
 4758TIP3    H235766   0.353   4.676   2.522 -2.1947 -0.1563 -0.1068
 4759TIP3   OH235767   0.012   3.199  11.205 -0.1311 -0.5463 -0.0261
 4759TIP3    H135768  -0.041   3.129  11.167 -0.6077 -0.6918  0.8959
 4759TIP3    H235769   0.094   3.157  11.230 -0.7360 -0.9849  1.3087
 4760TIP3   OH235770   0.581   0.480  14.444  0.8858 -0.2765  0.0112
 4760TIP3    H135771   0.566   0.398  14.396  0.1435 -0.7470  1.0293
 4760TIP3    H235772   0.557   0.460  14.534 -0.1280  1.2939  0.1243
 4761TIP3   OH235773   6.420   1.508  10.806 -0.0231  0.3788 -0.1394
 4761TIP3    H135774   6.500   1.560  10.809 -0.3229  0.9369 -1.2581
 4761TIP3    H235775   6.361   1.558  10.749 -1.0002 -0.2498  0.2925
 4762TIP3   OH235776   5.320   3.960  12.110 -0.3435  0.0322 -0.2398
 4762TIP3    H135777   5.415   3.943  12.110 -0.2360  0.6239 -0.2782
 4762TIP3    H235778   5.282   3.877  12.138  0.3502  0.6495  2.9457
 4763TIP3   OH235779   2.400   5.332  17.263 -0.1461 -0.1102  0.0173
 4763TIP3    H135780   2.339   5.401  17.290  0.9438  0.1775  1.8659
 4763TIP3    H235781   2.364   5.252  17.302  0.3088 -0.0468  0.5692
 4764TIP3   OH235782   4.384   2.823  14.850  0.2434  0.1230  0.4087
 4764TIP3    H135783   4.334   2.892  14.893 -0.2953  0.4441 -0.6883
 4764TIP3    H235784   4.418   2.769  14.921  1.1269  1.8097  1.3340
 4765TIP3   OH235785   2.820   1.553  17.015  0.4234 -0.7301  0.2111
 4765TIP3    H135786   2.762   1.522  16.946 -0.6191 -0.4079  0.9047
 4765TIP3    H235787   2.773   1.628  17.053  1.4397 -0.2711  0.6010
 4766TIP3   OH235788   5.818   0.037  15.862 -0.1709 -0.1027  0.2026
 4766TIP3    H135789   5.849   0.001  15.779  0.9563 -0.1051  0.6145
 4766TIP3    H235790   5.755  -0.028  15.894 -2.5476  1.0355 -1.7975
 4767TIP3   OH235791   6.370   4.585   0.106 -0.2444 -0.0304  0.0808
 4767TIP3    H135792   6.358   4.642   0.182  1.5352 -0.7470  0.9715
 4767TIP3    H235793   6.307   4.514   0.118 -0.6035  0.3354  0.3857
 4768TIP3   OH235794   0.560   3.985   3.344 -0.3699 -0.1686 -0.6576
 4768TIP3    H135795   0.529   4.076   3.350  3.3837  1.2635  0.1073
 4768TIP3    H235796   0.646   3.992   3.301 -1.1907 -3.7971 -3.3899
 4769TIP3   OH235797   0.572   5.109  13.354 -0.8714 -0.1788 -0.0232
 4769TIP3    H135798   0.588   5.038  13.416  1.3817 -1.1049 -1.5340
 4769TIP3    H235799   0.565   5.187  13.409  0.1585 -1.0764  1.4821
 4770TIP3   OH235800   4.792   1.321  11.780  0.0720 -0.1599  0.2996
 4770TIP3    H135801   4.788   1.380  11.855 -2.6459 -0.1372  0.2405
 4770TIP3    H235802   4.700   1.306  11.757  0.7485  0.7451 -3.7474
 4771TIP3   OH235803   0.562   3.860   0.445 -0.3597  0.4421  0.3540
 4771TIP3    H135804   0.651   3.896   0.434 -0.0067 -0.9599 -2.0548
 4771TIP3    H235805   0.506   3.938   0.448  0.6525  1.3446 -1.7052
 4772TIP3   OH235806   3.739   5.769  17.088 -0.7476 -0.2585  0.0581
 4772TIP3    H135807   3.831   5.785  17.065 -0.7794  0.0983  0.1766
 4772TIP3    H235808   3.689   5.821  17.026 -0.9606 -2.1788 -1.4867
 4773TIP3   OH235809   6.622   3.354   4.166 -0.1250  0.0733  0.7338
 4773TIP3    H135810   6.659   3.292   4.229  0.1318  0.0736  0.5842
 4773TIP3    H235811   6.684   3.354   4.094 -1.2489 -1.1909 -0.2884
 4774TIP3   OH235812   3.760   1.750   3.558  0.5230  0.5625 -0.6528
 4774TIP3    H135813   3.825   1.704   3.505  0.2258  1.3814 -1.7649
 4774TIP3    H235814   3.702   1.681   3.591  0.6148  0.0561 -1.5433
 4775TIP3   OH235815   4.140   1.452   0.908  0.0357  0.0818 -0.3914
 4775TIP3    H135816   4.058   1.403   0.917  0.8617 -1.1638  0.7973
 4775TIP3    H235817   4.131   1.497   0.824 -1.7369 -0.2473 -0.4326
 4776TIP3   OH235818   6.010   4.986   2.841 -0.1215  0.2243 -0.2162
 4776TIP3    H135819   5.977   4.964   2.754 -0.9455 -0.8915  0.3460
 4776TIP3    H235820   5.942   5.041   2.880 -0.8758 -1.1873  0.5464
 4777TIP3   OH235821   3.802   5.363  15.497  0.1120  0.1230  0.7031
 4777TIP3    H135822   3.728   5.423  15.499 -0.0939 -0.1032  0.1464
 4777TIP3    H235823   3.803   5.323  15.584 -0.6763 -0.1755  0.5817
 4778TIP3   OH235824   0.836   6.815  15.904  0.1273  0.6616  0.7920
 4778TIP3    H135825   0.764   6.801  15.965 -0.2376  0.1423  0.2633
 4778TIP3    H235826   0.884   6.731  15.903  0.0751  0.6309  0.3098
 4779TIP3   OH235827   4.118   3.678  16.919 -0.0286 -0.2439 -0.0830
 4779TIP3    H135828   4.109   3.583  16.926 -2.3022 -0.1792 -1.2304
 4779TIP3    H235829   4.206   3.696  16.952  0.4712 -2.7299  0.1509
 4780TIP3   OH235830   5.315   4.318  15.429 -0.7089  0.3135  0.5009
 4780TIP3    H135831   5.324   4.413  15.437  1.6343  0.2277 -0.2317
 4780TIP3    H235832   5.282   4.305  15.340  0.6371  0.4419 -0.0502
 4781TIP3   OH235833   2.791   4.778  12.530 -1.3313 -0.1536 -0.4939
 4781TIP3    H135834   2.772   4.858  12.481 -2.0100  1.3279  1.9812
 4781TIP3    H235835   2.706   4.750  12.564 -0.6570  0.2177  1.6653
 4782TIP3   OH235836   6.304   4.137  12.930  0.1216 -0.4223  1.1976
 4782TIP3    H135837   6.270   4.151  13.018  0.9919  1.1646  1.3070
 4782TIP3    H235838   6.399   4.142  12.940  0.1912  1.1872 -0.0392
 4783TIP3   OH235839   2.584   0.174   4.591 -0.7443 -0.0934 -0.8076
 4783TIP3    H135840   2.659   0.116   4.599  0.2787  1.1388 -1.1200
 4783TIP3    H235841   2.565   0.201   4.681 -1.9599 -1.7576 -0.5218
 4784TIP3   OH235842   0.027   5.135  13.546  0.5962  0.0501 -1.1162
 4784TIP3    H135843  -0.062   5.124  13.511 -0.1083  1.3196  0.1673
 4784TIP3    H235844   0.056   5.045  13.565 -1.2790 -0.3100  0.3995
 4785TIP3   OH235845   2.184   0.201  16.695 -0.6156 -0.2074  0.0238
 4785TIP3    H135846   2.212   0.121  16.652 -0.3534  0.4941 -1.1555
 4785TIP3    H235847   2.148   0.255  16.625 -1.3572  0.4683  0.8941
 4786TIP3   OH235848   5.056   1.462   0.885 -0.2699 -0.2060 -0.2136
 4786TIP3    H135849   5.123   1.405   0.922 -0.7267  0.1290  1.1978
 4786TIP3    H235850   4.994   1.477   0.957 -0.8648  0.9916 -0.9283
 4787TIP3   OH235851   2.920   4.174  15.901  0.3871  0.1283 -0.1724
 4787TIP3    H135852   3.014   4.182  15.913  0.6241  0.0267 -1.7318
 4787TIP3    H235853   2.907   4.176  15.806 -1.1108 -0.6025 -0.0239
 4788TIP3   OH235854   1.714   0.213   5.414  0.1958  0.2861  0.0506
 4788TIP3    H135855   1.781   0.159   5.455 -0.2616  0.7007  1.3810
 4788TIP3    H235856   1.763   0.273   5.357  1.0969  1.2909  1.7957
 4789TIP3   OH235857   6.659   5.610  15.011 -0.4321 -0.2403  0.0456
 4789TIP3    H135858   6.614   5.562  15.080  0.7497 -0.4890  0.6782
 4789TIP3    H235859   6.752   5.589  15.024  0.4597  3.7234  1.6491
 4790TIP3   OH235860   2.920   2.351   3.215  0.1375 -0.2195  0.0411
 4790TIP3    H135861   2.854   2.380   3.279  0.8724  1.1786  0.1937
 4790TIP3    H235862   2.896   2.396   3.134  0.7348  0.0807  0.0268
 4791TIP3   OH235863   1.135   5.494   0.413 -0.6621  0.0043  0.0858
 4791TIP3    H135864   1.171   5.475   0.327 -0.8095  0.6328 -0.1139
 4791TIP3    H235865   1.060   5.551   0.397 -1.6121 -1.0763  0.5186
 4792TIP3   OH235866   2.798   2.012  13.368  0.2857 -0.2126 -0.0023
 4792TIP3    H135867   2.829   2.091  13.324  2.1596 -1.3463 -0.8567
 4792TIP3    H235868   2.759   1.960  13.298 -1.0145 -0.0345  0.5705
 4793TIP3   OH235869   5.499   0.331   6.074  0.0659  0.4514 -0.5384
 4793TIP3    H135870   5.533   0.341   5.985 -1.1704  1.2740 -0.9423
 4793TIP3    H235871   5.458   0.415   6.094 -0.8208 -0.1556  0.3050
 4794TIP3   OH235872   5.735   0.471  11.523 -0.6599 -0.5264  0.0360
 4794TIP3    H135873   5.801   0.473  11.592 -0.9297 -0.8234  0.3045
 4794TIP3    H235874   5.669   0.533  11.551 -0.0838  0.4242 -0.6580
 4795TIP3   OH235875   1.941   3.810  15.132 -0.1281  0.4675 -0.9056
 4795TIP3    H135876   1.947   3.729  15.182 -0.7268 -0.4195 -2.2184
 4795TIP3    H235877   1.986   3.791  15.050  1.3811  2.0940 -0.5056
 4796TIP3   OH235878   2.387   5.032  14.318  0.0397  0.2017 -0.4411
 4796TIP3    H135879   2.341   5.073  14.245 -0.2399 -0.1913 -0.4881
 4796TIP3    H235880   2.319   4.986  14.367  0.4317 -0.7299 -0.7456
 4797TIP3   OH235881   0.340   5.735  14.820  0.6592 -0.3610 -0.2665
 4797TIP3    H135882   0.265   5.698  14.774  0.9166  0.8573 -1.7550
 4797TIP3    H235883   0.416   5.701  14.774  1.0380 -1.2344  0.9576
 4798TIP3   OH235884   6.564   4.094  11.294  0.4350 -0.1647  0.1004
 4798TIP3    H135885   6.636   4.101  11.356 -0.5141  0.3776  1.1534
 4798TIP3    H235886   6.564   4.177  11.247  1.2654 -0.6425 -0.7824
 4799TIP3   OH235887   4.362   3.455   2.617  0.0650  0.4521 -0.1522
 4799TIP3    H135888   4.355   3.389   2.685  0.8793  1.5778  1.0757
 4799TIP3    H235889   4.333   3.536   2.659  2.1430  1.4881 -0.5928
 4800TIP3   OH235890   4.000   6.464  12.276 -0.0356  0.2586  0.3884
 4800TIP3    H135891   4.008   6.467  12.181  0.9577  0.8576  0.4750
 4800TIP3    H235892   4.074   6.515  12.308 -0.3576  0.0688  1.4884
 4801TIP3   OH235893   0.377   0.693  15.117  0.1341  0.2517  0.0282
 4801TIP3    H135894   0.360   0.743  15.037 -1.9073 -1.5848 -0.8067
 4801TIP3    H235895   0.290   0.681  15.156  0.5801 -2.1514  0.4124
 4802TIP3   OH235896   3.066   1.146  14.456 -0.5016 -0.1481  0.4232
 4802TIP3    H135897   3.150   1.179  14.422 -1.0367  2.7874  1.5824
 4802TIP3    H235898   3.088   1.107  14.540 -0.1413 -0.4286  0.1992
 4803TIP3   OH235899   2.973   2.742   3.763  0.2727 -0.2800 -0.4552
 4803TIP3    H135900   2.964   2.768   3.671 -0.6347  0.4750 -0.1696
 4803TIP3    H235901   2.894   2.691   3.781  0.0569  0.2559  0.1258
 4804TIP3   OH235902   2.104   3.633   2.774 -0.3280 -0.1006 -0.0749
 4804TIP3    H135903   2.168   3.697   2.805  0.3244 -0.2423 -1.1071
 4804TIP3    H235904   2.148   3.586   2.704 -0.8223 -1.6389  0.5923
 4805TIP3   OH235905   5.871   0.522  15.142 -0.2853 -0.1389  0.3898
 4805TIP3    H135906   5.849   0.602  15.093  1.8909 -0.2559 -0.8809
 4805TIP3    H235907   5.806   0.519  15.212 -1.9281  1.4280 -0.9700
 4806TIP3   OH235908   1.020   6.673   3.648 -0.1680 -0.2243  0.2004
 4806TIP3    H135909   0.992   6.688   3.739  1.7140 -0.6510  0.8948
 4806TIP3    H235910   1.098   6.618   3.656  0.3052  0.1190 -1.6607
 4807TIP3   OH235911   0.329   2.036  12.814  0.1302  0.2036  0.3098
 4807TIP3    H135912   0.328   2.058  12.721  0.2624 -0.6591  0.1038
 4807TIP3    H235913   0.243   1.996  12.830  0.2519  0.0157  0.4816
 4808TIP3   OH235914   3.633   0.768   2.212 -0.4537 -0.4026 -0.1787
 4808TIP3    H135915   3.678   0.851   2.194  1.2448 -1.5750 -1.6576
 4808TIP3    H235916   3.592   0.781   2.297 -1.4829  2.4524 -0.9959
 4809TIP3   OH235917   0.994   3.401   4.681  0.0997  0.2776 -0.5368
 4809TIP3    H135918   1.050   3.466   4.723  0.3286  0.4560 -1.0979
 4809TIP3    H235919   0.989   3.430   4.589 -1.3832  0.5756 -0.3778
 4810TIP3   OH235920   2.231   4.589  14.272  0.1820 -0.4343  0.0091
 4810TIP3    H135921   2.170   4.515  14.271  0.3993 -0.6303 -1.7217
 4810TIP3    H235922   2.185   4.657  14.222 -0.6093  1.1549  2.7206
 4811TIP3   OH235923   2.375   5.909  12.900  0.1659 -0.4047 -0.2260
 4811TIP3    H135924   2.327   5.987  12.874  0.9936  0.4448  0.6907
 4811TIP3    H235925   2.308   5.846  12.926 -0.5419  1.6650  3.7019
 4812TIP3   OH235926   5.799   4.105  12.308  0.0039 -0.2828 -0.6533
 4812TIP3    H135927   5.837   4.103  12.220 -0.7387 -0.7210 -0.9718
 4812TIP3    H235928   5.851   4.171  12.355 -0.2792  0.7541 -1.7359
 4813TIP3   OH235929   4.533   3.674  17.212 -0.2966 -0.3371 -0.1528
 4813TIP3    H135930   4.574   3.758  17.233  0.0621 -0.1782 -1.3972
 4813TIP3    H235931   4.596   3.631  17.154 -0.5293 -1.4232  0.3673
 4814TIP3   OH235932   4.800   2.790  14.730 -0.4689  0.1797 -0.3433
 4814TIP3    H135933   4.710   2.802  14.699 -0.2784  2.9227 -0.1234
 4814TIP3    H235934   4.854   2.823  14.658  0.2316  0.9087  0.4971
 4815TIP3   OH235935   1.574   3.470  12.346 -0.4627  0.0731 -0.4591
 4815TIP3    H135936   1.606   3.452  12.435 -1.3917  1.1269  0.1164
 4815TIP3    H235937   1.570   3.385  12.304  0.2423 -0.4138  0.4246
 4816TIP3   OH235938   6.423   4.331  15.917 -0.7489  0.2830 -0.0368
 4816TIP3    H135939   6.357   4.275  15.957 -0.1671  0.1295  0.7287
 4816TIP3    H235940   6.478   4.360  15.990  1.4005 -1.3952 -0.8571
 4817TIP3   OH235941   2.819   5.027   5.164  0.3484  0.2844 -0.1072
 4817TIP3    H135942   2.886   4.982   5.216  0.9465  0.0194 -1.0847
 4817TIP3    H235943   2.854   5.029   5.075 -1.6010 -1.2013 -0.9799
 4818TIP3   OH235944   5.170   3.384  15.417 -0.1800  0.3121  0.2958
 4818TIP3    H135945   5.185   3.352  15.506  1.3023  1.1554  0.3802
 4818TIP3    H235946   5.164   3.304  15.364  2.0783 -0.2007  0.7056
 4819TIP3   OH235947   5.625   4.725   0.294 -0.2171 -0.2180  0.3573
 4819TIP3    H135948   5.648   4.704   0.203  1.6541  1.7964  0.2900
 4819TIP3    H235949   5.697   4.687   0.346  0.8571  1.9824  0.5878
 4820TIP3   OH235950   0.033   0.512   1.316 -0.3056 -0.1071 -0.1485
 4820TIP3    H135951  -0.039   0.574   1.317  0.2396  0.6254 -2.3623
 4820TIP3    H235952   0.111   0.564   1.335 -0.0310 -0.4271 -0.3821
 4821TIP3   OH235953   3.275   2.892   5.598  0.2093  0.0849  0.0645
 4821TIP3    H135954   3.332   2.951   5.549  0.8473 -0.9677 -0.5027
 4821TIP3    H235955   3.186   2.919   5.574  0.4879 -0.6657 -2.0708
 4822TIP3   OH235956   3.582   0.877   2.976 -0.4143  0.0972 -0.3735
 4822TIP3    H135957   3.512   0.825   3.014 -0.6773 -0.0934 -1.1064
 4822TIP3    H235958   3.592   0.951   3.036  1.2920 -1.7257  1.7853
 4823TIP3   OH235959   6.000   5.358  11.708  0.0206 -0.3111  0.0940
 4823TIP3    H135960   6.048   5.359  11.791 -0.2258  1.1696  0.2479
 4823TIP3    H235961   5.919   5.406  11.727 -0.5371 -0.9051 -0.7241
 4824TIP3   OH235962   5.996   4.888  17.205 -0.2723  0.0688  0.7725
 4824TIP3    H135963   5.977   4.802  17.169  1.4111  1.0262 -2.7943
 4824TIP3    H235964   5.946   4.949  17.151  0.9672  1.5249  1.1888
 4825TIP3   OH235965   3.054   0.675  12.043  0.5110  0.4503  0.3370
 4825TIP3    H135966   2.979   0.714  11.999 -0.0911 -1.9083 -0.8715
 4825TIP3    H235967   3.017   0.620  12.112  1.1132 -0.3823  0.0246
 4826TIP3   OH235968   4.906   0.840   5.592 -0.2283  0.1939  0.2260
 4826TIP3    H135969   4.855   0.759   5.596  2.4988 -1.5747  1.6296
 4826TIP3    H235970   4.950   0.846   5.676  1.4370  1.9354 -0.6766
 4827TIP3   OH235971   5.053   3.476   3.684 -0.1075  0.2939 -0.2335
 4827TIP3    H135972   5.146   3.477   3.707  0.2536  0.6032 -1.5843
 4827TIP3    H235973   5.017   3.552   3.728  0.2052 -0.0100  0.5647
 4828TIP3   OH235974   1.880   2.670  11.408  0.1303  0.0531  0.4106
 4828TIP3    H135975   1.954   2.627  11.365  1.7526  1.9017  1.1828
 4828TIP3    H235976   1.806   2.656  11.349  1.2917 -1.1123 -0.8349
 4829TIP3   OH235977   5.060   6.160  11.580 -0.3064  0.0342 -0.5922
 4829TIP3    H135978   5.006   6.193  11.507 -0.7572 -0.8627 -0.6869
 4829TIP3    H235979   5.024   6.203  11.657  0.2843  1.1269 -0.9076
 4830TIP3   OH235980   3.262   4.463  12.089  0.3746  0.1658  0.3360
 4830TIP3    H135981   3.237   4.380  12.049  2.2321 -0.8293  1.1075
 4830TIP3    H235982   3.301   4.513  12.016  1.2949 -0.5609  0.3101
 4831TIP3   OH235983   2.732   2.544   0.104  0.5819 -0.2026  0.1568
 4831TIP3    H135984   2.735   2.632   0.142 -1.0347 -1.0062  2.3121
 4831TIP3    H235985   2.670   2.551   0.032  0.1829  0.3765  0.5449
 4832TIP3   OH235986   6.175   5.260   0.810 -0.2845 -0.2759  0.2355
 4832TIP3    H135987   6.157   5.229   0.899  1.9278  2.2659  1.6829
 4832TIP3    H235988   6.088   5.279   0.774 -1.2590 -1.7851  1.6274
 4833TIP3   OH235989   4.362   4.458   1.456  0.1755 -0.1528 -0.0797
 4833TIP3    H135990   4.321   4.491   1.536  1.1919 -0.0223  0.3887
 4833TIP3    H235991   4.323   4.371   1.444 -1.6514  0.6916 -0.6892
 4834TIP3   OH235992   5.782   4.982   3.018  0.3469 -0.3979 -0.7054
 4834TIP3    H135993   5.694   5.010   2.995 -0.1408 -1.3101 -0.0210
 4834TIP3    H235994   5.786   4.890   2.990 -0.5426 -1.8466  3.3312
 4835TIP3   OH235995   1.900   0.812   1.840 -0.2549 -0.3099  0.0698
 4835TIP3    H135996   1.954   0.806   1.918  0.0302 -1.6487 -0.2163
 4835TIP3    H235997   1.961   0.840   1.771 -0.6562  1.6476  0.4413
 4836TIP3   OH235998   2.971   6.001   5.345  0.1135 -0.0025  0.2554
 4836TIP3    H135999   2.892   6.018   5.396  0.5290 -0.7969  1.2057
 4836TIP3    H236000   2.946   5.930   5.286 -0.5092  1.2460 -1.0152
 4837TIP3   OH236001   4.376   5.918  14.885 -0.2033 -0.9299 -0.1708
 4837TIP3    H136002   4.294   5.945  14.844  0.8908 -0.5375 -2.2260
 4837TIP3    H236003   4.427   5.999  14.891  0.4247 -1.3407  0.1911
 4838TIP3   OH236004   1.784   0.636  15.345  0.2956  0.0393 -0.6559
 4838TIP3    H136005   1.731   0.694  15.291 -0.5417 -0.4956 -0.4301
 4838TIP3    H236006   1.851   0.603  15.285  0.3103  0.6261 -0.9769
 4839TIP3   OH236007   6.715   3.118  12.963  0.5314 -0.0264 -0.0766
 4839TIP3    H136008   6.706   3.139  13.056 -1.6889 -0.3472 -0.1698
 4839TIP3    H236009   6.804   3.146  12.941  1.4873 -0.8241  2.3439
 4840TIP3   OH236010   6.032   2.570  15.226  0.4550 -0.2880  0.4305
 4840TIP3    H136011   6.002   2.647  15.272  4.2090  0.9578  1.1636
 4840TIP3    H236012   5.982   2.568  15.145 -0.6322  2.1711  0.9894
 4841TIP3   OH236013   4.840   0.449  15.670  0.5110 -0.4337  0.1518
 4841TIP3    H136014   4.904   0.519  15.687  0.0963 -0.5208  2.3422
 4841TIP3    H236015   4.771   0.492  15.620  0.3750  0.6970  1.2545
 4842TIP3   OH236016   5.000   4.223  15.111  0.0769  0.1091 -0.2495
 4842TIP3    H136017   5.096   4.215  15.107  0.3977  3.0647 -0.1223
 4842TIP3    H236018   4.978   4.203  15.202  0.5257 -0.7518 -0.3179
 4843TIP3   OH236019   4.542   6.071   5.731  0.3175  0.0351  0.5785
 4843TIP3    H136020   4.566   6.042   5.819 -1.4707  0.4150  1.2229
 4843TIP3    H236021   4.597   6.148   5.715  1.0371 -0.3572  1.1361
 4844TIP3   OH236022   0.030   4.291   4.901  0.3999 -0.3587  0.4134
 4844TIP3    H136023   0.090   4.365   4.888 -1.3574  0.8805 -1.0921
 4844TIP3    H236024   0.048   4.232   4.828  2.1550 -1.7762  1.8854
 4845TIP3   OH236025   5.461   3.150  11.540  0.4474 -0.3537 -0.4580
 4845TIP3    H136026   5.377   3.105  11.536  0.9225 -1.3221 -0.0074
 4845TIP3    H236027   5.463   3.205  11.462 -0.8734  0.1873 -0.1359
 4846TIP3   OH236028   0.490   5.785   1.230  0.2469  0.3486 -0.4520
 4846TIP3    H136029   0.492   5.850   1.300  1.4148 -0.1993  0.0519
 4846TIP3    H236030   0.544   5.823   1.160  2.2457 -0.7013  0.4538
 4847TIP3   OH236031   2.245   1.981  14.631 -0.0591 -0.0409 -0.1404
 4847TIP3    H136032   2.223   2.057  14.577 -0.2323  1.0605  1.4167
 4847TIP3    H236033   2.337   1.993  14.653 -0.0666 -0.3314  0.0554
 4848TIP3   OH236034   2.730   4.337  16.029  0.0194  0.1734 -0.3014
 4848TIP3    H136035   2.791   4.305  15.962  0.2230  2.2637 -1.1808
 4848TIP3    H236036   2.768   4.419  16.060 -1.7614  0.9694 -0.0649
 4849TIP3   OH236037   5.278   5.445  15.978 -0.2616 -0.0719  0.3980
 4849TIP3    H136038   5.320   5.413  16.058 -0.4046 -0.0935  0.4646
 4849TIP3    H236039   5.246   5.532  16.001  0.6877  0.3960  0.0333
 4850TIP3   OH236040   0.808   1.056  12.091  0.3197 -0.0196 -1.0015
 4850TIP3    H136041   0.773   1.109  12.162 -0.1215  0.3227 -1.4696
 4850TIP3    H236042   0.760   0.973  12.097  1.2506 -0.5063 -0.0606
 4851TIP3   OH236043   2.172   4.590   1.569 -0.0543  0.3033 -0.0604
 4851TIP3    H136044   2.115   4.656   1.529  0.8296  2.2933  1.7866
 4851TIP3    H236045   2.256   4.635   1.578  1.4916 -2.1133 -1.4740
 4852TIP3   OH236046   1.659   1.635   4.514 -0.2203 -0.0501  0.0337
 4852TIP3    H136047   1.651   1.551   4.560 -0.8624 -0.1959 -0.3232
 4852TIP3    H236048   1.595   1.629   4.443  0.9305  0.0593 -1.0534
 4853TIP3   OH236049   2.088   3.110  17.242  0.3352 -0.3286  0.2346
 4853TIP3    H136050   2.155   3.167  17.205  2.0826 -1.7827  0.9822
 4853TIP3    H236051   2.133   3.061  17.311 -1.8643 -0.3565  1.7890
 4854TIP3   OH236052   6.645   4.279  13.794  0.3384  0.7587  0.6161
 4854TIP3    H136053   6.551   4.297  13.798 -0.7996 -2.9699 -2.4245
 4854TIP3    H236054   6.662   4.224  13.871 -0.2188  0.7027  0.7066
 4855TIP3   OH236055   6.043   3.902   3.651 -0.0395  0.1166 -0.0516
 4855TIP3    H136056   6.113   3.952   3.692 -1.2512  0.2123  2.0048
 4855TIP3    H236057   6.048   3.816   3.693 -1.2693  0.1974  0.2949
 4856TIP3   OH236058   1.873   0.041   3.881 -0.3970  0.5106  0.2739
 4856TIP3    H136059   1.803   0.059   3.944  0.2242  2.0099  0.5801
 4856TIP3    H236060   1.893   0.127   3.843 -0.9949 -0.3989 -2.2435
 4857TIP3   OH236061   6.096   5.651  11.605  0.5471  0.1839  0.3864
 4857TIP3    H136062   6.004   5.625  11.605  0.7910 -0.7246  0.2708
 4857TIP3    H236063   6.107   5.704  11.526 -0.8630  4.1011  2.5342
 4858TIP3   OH236064   2.108   6.256  10.426  1.0523  0.1456 -0.4747
 4858TIP3    H136065   2.168   6.191  10.462  2.2383  1.0575 -0.7542
 4858TIP3    H236066   2.053   6.207  10.365  0.4946 -0.9907  0.8930
 4859TIP3   OH236067   1.933   3.413   4.751  0.0897 -0.2688  0.3938
 4859TIP3    H136068   1.898   3.498   4.777  0.5925 -0.0912  0.4928
 4859TIP3    H236069   1.961   3.424   4.660 -1.8615 -0.9504 -0.3449
 4860TIP3   OH236070   3.403   5.057  12.619  0.1240  0.1693  0.0051
 4860TIP3    H136071   3.452   5.056  12.701  2.2664  0.6471 -1.1822
 4860TIP3    H236072   3.388   5.150  12.601 -0.8333  0.0444  0.1152
 4861TIP3   OH236073   5.370   4.515  16.166  0.6601  0.1014  0.2897
 4861TIP3    H136074   5.457   4.537  16.199  3.0440 -2.6310 -3.3509
 4861TIP3    H236075   5.360   4.422  16.185 -0.4165 -0.1617 -1.3406
 4862TIP3   OH236076   4.821   0.596   2.831  0.3081 -0.0048  0.0297
 4862TIP3    H136077   4.806   0.502   2.832  0.9641 -0.2231 -2.8025
 4862TIP3    H236078   4.840   0.618   2.922  0.6648 -2.6815  0.6841
 4863TIP3   OH236079   4.883   6.414   4.942  0.1637 -0.2189 -0.5560
 4863TIP3    H136080   4.904   6.331   4.984  0.4710  1.2788  2.5894
 4863TIP3    H236081   4.967   6.460   4.938 -0.2808  0.6066 -0.5761
 4864TIP3   OH236082   1.670   1.005  12.956 -0.0089  0.2687 -0.2193
 4864TIP3    H136083   1.748   0.949  12.946 -0.5692 -0.8608  1.3546
 4864TIP3    H236084   1.672   1.062  12.879  1.5187 -0.7859 -1.0247
 4865TIP3   OH236085   3.551   4.987  15.529  0.2252  0.7359 -0.1530
 4865TIP3    H136086   3.503   4.946  15.601 -0.9252 -0.4118 -1.5196
 4865TIP3    H236087   3.633   4.938  15.524 -1.0804 -1.5321 -1.6951
 4866TIP3   OH236088   0.595   0.155  14.009 -0.2702 -0.0281  0.3594
 4866TIP3    H136089   0.663   0.129  13.946 -0.2459  1.5709 -0.3028
 4866TIP3    H236090   0.523   0.094  13.992  0.9207 -1.6845  1.0005
 4867TIP3   OH236091   5.048   1.316  11.301  0.1677  0.6891 -0.1359
 4867TIP3    H136092   5.132   1.275  11.280 -0.2873  0.2523 -1.1886
 4867TIP3    H236093   5.036   1.300  11.394  0.3132 -1.0361 -0.3845
 4868TIP3   OH236094   1.309   2.760  10.673 -0.1408 -0.0918  0.2916
 4868TIP3    H136095   1.232   2.714  10.706 -0.7575  0.2315 -0.6684
 4868TIP3    H236096   1.278   2.848  10.652  0.2554 -0.2323 -0.9607
 4869TIP3   OH236097   4.484   1.035  16.239 -0.2181  0.1686  0.5434
 4869TIP3    H136098   4.561   1.087  16.218 -1.2020  1.2241 -0.5762
 4869TIP3    H236099   4.452   1.003  16.155  0.5939 -2.7205  1.1888
 4870TIP3   OH236100   1.572   2.870   6.230  0.1007 -0.0619 -0.5872
 4870TIP3    H136101   1.484   2.864   6.193  0.0508  1.3697 -0.7743
 4870TIP3    H236102   1.558   2.884   6.323  0.2296 -4.1312  0.2452
 4871TIP3   OH236103   1.541   4.939   2.073 -0.4300 -0.4729  0.2351
 4871TIP3    H136104   1.534   4.845   2.089 -0.1063 -0.4760  0.3624
 4871TIP3    H236105   1.593   4.973   2.146 -0.8231 -0.1429  0.3671
 4872TIP3   OH236106   2.413   1.740  12.617 -0.5298 -0.6425  0.4332
 4872TIP3    H136107   2.354   1.666  12.602  1.0782 -2.3717  2.1130
 4872TIP3    H236108   2.388   1.772  12.704  0.2595 -0.7057  0.6921
 4873TIP3   OH236109   3.011   4.766  14.617  0.3867 -0.1312 -0.0478
 4873TIP3    H136110   3.096   4.725  14.635  0.6058  1.0867  2.0119
 4873TIP3    H236111   3.028   4.826  14.545  1.4138  0.3874  0.5996
 4874TIP3   OH236112   6.433   1.430  16.780 -0.7109 -0.2846  0.5881
 4874TIP3    H136113   6.420   1.345  16.822 -2.4460  0.3757  1.4899
 4874TIP3    H236114   6.372   1.489  16.825  0.2295  1.3775 -0.2204
 4875TIP3   OH236115   3.677   3.627   1.925 -0.9738  0.5962  0.2072
 4875TIP3    H136116   3.745   3.690   1.899  0.1857 -1.0066 -0.8022
 4875TIP3    H236117   3.603   3.647   1.869 -0.5804  0.9929 -0.1770
 4876TIP3   OH236118   5.294   2.592  16.867  0.2184 -0.1153  0.0607
 4876TIP3    H136119   5.224   2.559  16.923 -0.0029  1.6047  0.8674
 4876TIP3    H236120   5.277   2.686  16.860  1.8115  0.1583 -0.6452
 4877TIP3   OH236121   5.181   4.218  16.154  0.2096 -0.2265  0.3354
 4877TIP3    H136122   5.238   4.233  16.078  0.6116 -0.0249  0.6697
 4877TIP3    H236123   5.094   4.243  16.124  0.3931  0.0073 -0.0137
 4878TIP3   OH236124   5.692   4.903   0.725  0.0245 -0.6579 -0.4379
 4878TIP3    H136125   5.602   4.915   0.695  0.5621  1.2347 -1.4524
 4878TIP3    H236126   5.714   4.984   0.769  1.8168 -0.2983 -1.8790
 4879TIP3   OH236127   0.382   3.347  16.148  0.1563  0.3789  0.7248
 4879TIP3    H136128   0.449   3.377  16.210 -1.1990  0.3129  2.2945
 4879TIP3    H236129   0.349   3.266  16.186 -0.7903  0.3941 -0.0266
 4880TIP3   OH236130   0.896   3.294   1.124 -0.1541  0.4209  0.1223
 4880TIP3    H136131   0.958   3.357   1.089 -0.4489  1.5679  1.5834
 4880TIP3    H236132   0.912   3.294   1.219 -0.0121 -1.8778  0.1568
 4881TIP3   OH236133   3.701   5.416  11.172  0.0772 -0.2306 -0.1352
 4881TIP3    H136134   3.778   5.473  11.177  0.8462 -1.3216  2.1560
 4881TIP3    H236135   3.732   5.331  11.203 -1.5306 -1.3463 -1.4397
 4882TIP3   OH236136   6.443   0.349   4.477 -0.2921  0.0369 -0.2131
 4882TIP3    H136137   6.454   0.256   4.456  0.5941 -0.2897  1.5303
 4882TIP3    H236138   6.521   0.372   4.526 -1.1184  1.3617  0.5413
 4883TIP3   OH236139   3.869   2.897  12.090 -0.2361  0.2185 -0.8929
 4883TIP3    H136140   3.905   2.964  12.147  2.2221 -3.1083  1.8835
 4883TIP3    H236141   3.921   2.901  12.010  0.0977  1.3340 -0.6265
 4884TIP3   OH236142   2.606   3.375  14.908  0.4336  0.2648 -0.3206
 4884TIP3    H136143   2.512   3.377  14.929  0.7610 -1.6145  1.8440
 4884TIP3    H236144   2.619   3.445  14.845 -2.2106  1.4045  0.2707
 4885TIP3   OH236145   2.666   3.926  12.853  0.4500  0.0941  0.0369
 4885TIP3    H136146   2.707   3.934  12.939  1.8540 -1.6801 -0.4272
 4885TIP3    H236147   2.701   3.999  12.803  2.0740 -0.6364  0.0576
 4886TIP3   OH236148   0.437   0.183  12.500  0.5457  0.1510 -0.3966
 4886TIP3    H136149   0.439   0.118  12.430 -0.0520  0.1467 -0.4192
 4886TIP3    H236150   0.344   0.203  12.511  0.6443  0.2706  0.2830
 4887TIP3   OH236151   3.745   4.230   5.676  0.1382  0.3923  0.4666
 4887TIP3    H136152   3.695   4.305   5.643  0.2783  0.5025  0.5018
 4887TIP3    H236153   3.713   4.218   5.765 -0.5505 -0.1768  0.1536
 4888TIP3   OH236154   0.792   4.070  16.315 -0.1841  0.0692 -0.1283
 4888TIP3    H136155   0.733   4.144  16.296  0.4324  0.3350 -1.0835
 4888TIP3    H236156   0.737   3.992  16.305 -0.9419  0.3892  1.2694
 4889TIP3   OH236157   1.892   5.316   3.118  0.1998  0.4957 -0.2453
 4889TIP3    H136158   1.882   5.242   3.058 -1.5665  1.3887 -1.1105
 4889TIP3    H236159   1.818   5.307   3.179 -0.1287  1.5979 -0.4536
 4890TIP3   OH236160   2.379   3.669  14.081 -0.5568 -0.3148 -0.1309
 4890TIP3    H136161   2.358   3.642  14.171  0.4943 -1.6154 -0.2371
 4890TIP3    H236162   2.349   3.596  14.027  1.7209 -1.0688 -0.5043
 4891TIP3   OH236163   3.509   5.020   1.247 -0.4988 -0.1467  0.2616
 4891TIP3    H136164   3.455   5.051   1.174 -2.1815  2.1496  2.2803
 4891TIP3    H236165   3.533   5.100   1.294  4.3290 -1.0800 -0.1124
 4892TIP3   OH236166   5.734   5.233  15.239 -0.0926 -0.4066 -0.0936
 4892TIP3    H136167   5.645   5.213  15.210 -0.1061 -0.2572 -0.1554
 4892TIP3    H236168   5.780   5.258  15.159 -0.5418  1.5495  0.1973
 4893TIP3   OH236169   3.158   1.487  13.528  0.4233  0.6578  0.3256
 4893TIP3    H136170   3.151   1.576  13.562 -0.6821  0.8653 -0.3919
 4893TIP3    H236171   3.154   1.498  13.433  0.6789 -0.1281  0.2205
 4894TIP3   OH236172   0.129   3.216  16.610  0.4709 -0.2068 -0.1340
 4894TIP3    H136173   0.120   3.121  16.599 -0.0608  0.1117 -3.5538
 4894TIP3    H236174   0.054   3.241  16.664 -0.3261 -1.5427 -0.5762
 4895TIP3   OH236175   2.555   2.780   2.554  0.1888 -0.2976  0.7214
 4895TIP3    H136176   2.489   2.753   2.617  0.6406 -0.6724  1.0373
 4895TIP3    H236177   2.560   2.707   2.492 -0.2494  0.0658  0.2474
 4896TIP3   OH236178   3.718   0.019  13.998 -0.2399  0.7251  0.1330
 4896TIP3    H136179   3.741   0.029  13.906 -1.4632  2.3197 -0.0433
 4896TIP3    H236180   3.686  -0.071  14.006  0.0683  0.5110 -0.9426
 4897TIP3   OH236181   4.617   2.929  15.149  0.0630  0.1558  0.1805
 4897TIP3    H136182   4.692   2.947  15.091 -0.9226  1.7290 -0.6744
 4897TIP3    H236183   4.586   2.843  15.121  1.7176 -0.6905  0.7797
 4898TIP3   OH236184   5.088   3.424   1.315  0.1864  0.0224  0.7462
 4898TIP3    H136185   5.044   3.401   1.233 -0.4415 -0.2844  1.1558
 4898TIP3    H236186   5.168   3.468   1.288  1.2509 -2.2370 -0.0874
 4899TIP3   OH236187   5.945   5.496   0.361 -0.1202  0.6834 -1.0618
 4899TIP3    H136188   5.935   5.426   0.295 -0.3589 -0.7046  0.3891
 4899TIP3    H236189   5.870   5.485   0.419  0.0129  1.9681 -0.6201
 4900TIP3   OH236190   4.693   2.598   2.951  0.5151 -0.0034  0.3009
 4900TIP3    H136191   4.639   2.670   2.917  0.6650 -1.0407 -2.3799
 4900TIP3    H236192   4.721   2.628   3.037 -1.2011  2.2029  0.1846
 4901TIP3   OH236193   4.153   4.337  11.786 -0.0705 -0.6275 -0.0990
 4901TIP3    H136194   4.183   4.421  11.751 -1.5750  0.3740  0.8845
 4901TIP3    H236195   4.075   4.317  11.733  0.6955 -1.7886 -0.8115
 4902TIP3   OH236196   6.058   1.440  10.710  0.2165  0.0115  0.1561
 4902TIP3    H136197   5.982   1.456  10.655 -1.3272  0.1933  2.2166
 4902TIP3    H236198   6.065   1.345  10.715 -0.9380 -0.0448  1.2556
 4903TIP3   OH236199   0.979   1.916   0.643 -0.9896  0.0069 -0.2084
 4903TIP3    H136200   1.069   1.948   0.644 -0.8975 -0.2568  0.1445
 4903TIP3    H236201   0.968   1.878   0.556 -0.8376  0.2500 -0.3359
 4904TIP3   OH236202   5.744   2.309   0.718  0.3827  0.7732 -0.1879
 4904TIP3    H136203   5.681   2.354   0.775  0.5140  1.4108 -0.5307
 4904TIP3    H236204   5.759   2.371   0.647 -1.0026 -0.6349 -1.7845
 4905TIP3   OH236205   2.818   0.469  16.697 -0.0095  0.3376  0.0119
 4905TIP3    H136206   2.789   0.467  16.788  0.2787 -2.6747  0.1343
 4905TIP3    H236207   2.817   0.378  16.669  2.9546  0.7644 -2.0346
 4906TIP3   OH236208   0.861   4.150   3.557  0.7587  0.2291  0.3433
 4906TIP3    H136209   0.883   4.188   3.472  0.1092 -0.8800 -0.3395
 4906TIP3    H236210   0.882   4.057   3.548  0.2326  0.0172  1.2352
 4907TIP3   OH236211   3.521   6.082   2.823  0.5472  0.0623 -0.3114
 4907TIP3    H136212   3.455   6.142   2.786  0.0939  0.3769  0.9669
 4907TIP3    H236213   3.547   6.123   2.905  1.2672 -0.8142 -0.0924
 4908TIP3   OH236214   2.098   1.554   2.535 -0.5517  0.4020  0.1810
 4908TIP3    H136215   2.015   1.513   2.560 -0.5967  0.5013  0.1938
 4908TIP3    H236216   2.142   1.487   2.482 -0.5721  0.2912  0.3019
 4909TIP3   OH236217   6.197   6.177   3.081 -0.5548  0.2720  0.2972
 4909TIP3    H136218   6.136   6.165   3.009  0.3887 -0.6273 -0.3625
 4909TIP3    H236219   6.140   6.192   3.157 -1.5579  2.0816 -0.7296
 4910TIP3   OH236220   3.403   0.085  12.948  0.3002  0.0044  0.1441
 4910TIP3    H136221   3.490   0.125  12.942 -0.3971  1.4397 -1.1038
 4910TIP3    H236222   3.420  -0.009  12.953  1.9230  0.2452 -0.2945
 4911TIP3   OH236223   5.519   0.247   5.749  0.6274  0.3375  0.1876
 4911TIP3    H136224   5.542   0.162   5.786  0.8054 -0.3067 -1.3021
 4911TIP3    H236225   5.445   0.229   5.691  1.7295  0.8480 -1.4555
 4912TIP3   OH236226   1.566   3.452   4.678  0.4788 -0.1384  0.4988
 4912TIP3    H136227   1.488   3.444   4.623  1.9171 -1.6483 -1.4571
 4912TIP3    H236228   1.532   3.457   4.767 -1.9137  1.3372 -0.4090
 4913TIP3   OH236229   2.752   1.645  11.367 -0.0833 -0.3155  0.1275
 4913TIP3    H136230   2.705   1.587  11.307 -0.7516 -0.2116  0.5352
 4913TIP3    H236231   2.718   1.732  11.347  0.9084 -0.0501 -0.4770
 4914TIP3   OH236232   0.715   3.380  12.420 -0.0075  0.3518  0.1070
 4914TIP3    H136233   0.660   3.342  12.488 -0.0772 -0.2287 -0.2652
 4914TIP3    H236234   0.803   3.350  12.441 -0.0388  0.1195 -0.0964
 4915TIP3   OH236235   5.772   1.666  12.236 -0.1864 -0.2839 -0.0641
 4915TIP3    H136236   5.707   1.608  12.197 -2.4443  2.1291 -0.1659
 4915TIP3    H236237   5.790   1.732  12.169 -0.0004  0.8384  1.0334
 4916TIP3   OH236238   5.857   6.083  14.342  0.2774  0.4752  0.1279
 4916TIP3    H136239   5.906   6.013  14.385 -0.2344 -0.8222 -1.3426
 4916TIP3    H236240   5.766   6.053  14.342 -0.0676  1.4645  0.0908
 4917TIP3   OH236241   6.725   1.350  11.720 -0.3781 -0.0738 -0.6166
 4917TIP3    H136242   6.676   1.286  11.669 -0.4971  0.0596 -0.6699
 4917TIP3    H236243   6.816   1.320  11.715 -0.1328  0.8129 -2.2636
 4918TIP3   OH236244   0.093   3.768  12.804  0.3491 -0.0988  0.5822
 4918TIP3    H136245   0.183   3.785  12.832  1.2677 -1.9380 -1.0491
 4918TIP3    H236246   0.082   3.819  12.724  0.3397 -0.7431  0.1649
 4919TIP3   OH236247   2.144   1.766   4.060  0.3815  0.3634  0.7068
 4919TIP3    H136248   2.192   1.743   4.140 -0.0107  1.2181  1.1981
 4919TIP3    H236249   2.061   1.802   4.091 -0.1075 -0.0262 -0.1116
 4920TIP3   OH236250   3.596   6.405  11.220  0.5829 -0.1761 -0.2604
 4920TIP3    H136251   3.656   6.475  11.194 -0.8526  1.6943  1.1362
 4920TIP3    H236252   3.591   6.412  11.316 -0.8200 -1.1542 -0.2224
 4921TIP3   OH236253   5.813   2.100  10.790  0.0217 -0.5398 -0.9251
 4921TIP3    H136254   5.813   2.091  10.695  1.6641  0.8103 -1.1179
 4921TIP3    H236255   5.889   2.156  10.809 -0.3716 -0.6022  1.1662
 4922TIP3   OH236256   2.749   5.837  14.117  0.1880 -0.1711 -0.2031
 4922TIP3    H136257   2.837   5.801  14.107  0.1340 -0.9478  1.7616
 4922TIP3    H236258   2.759   5.930  14.096  1.5242 -0.1973  0.2246
 4923TIP3   OH236259   4.426   6.570   2.865  0.3708  0.2015 -0.7095
 4923TIP3    H136260   4.437   6.497   2.804 -0.1271 -0.7811  0.3381
 4923TIP3    H236261   4.511   6.578   2.908  0.6116  0.6583 -1.2548
 4924TIP3   OH236262   2.528   6.487  16.767 -0.1544 -0.2441  0.5981
 4924TIP3    H136263   2.432   6.483  16.762 -0.2557  1.4536  0.5878
 4924TIP3    H236264   2.547   6.579  16.784  1.4995 -0.5022  0.2887
 4925TIP3   OH236265   5.247   1.741   1.913 -0.6709  0.4816 -0.5534
 4925TIP3    H136266   5.184   1.812   1.927 -0.3480  0.7373 -0.3955
 4925TIP3    H236267   5.298   1.770   1.837 -0.9756  0.1093 -0.9042
 4926TIP3   OH236268   4.540   3.678   1.105  0.4210 -1.3366 -0.1111
 4926TIP3    H136269   4.464   3.623   1.089 -1.0392  0.1070  1.4007
 4926TIP3    H236270   4.570   3.653   1.192  1.9797 -2.1618 -0.8436
 4927TIP3   OH236271   0.645   6.282   3.136 -0.1703 -1.0341  0.2484
 4927TIP3    H136272   0.646   6.337   3.214  0.2273  2.2922 -1.8826
 4927TIP3    H236273   0.553   6.281   3.108 -0.0478 -0.6562 -0.1915
 4928TIP3   OH236274   5.418   4.877   2.220  0.0823  0.3666 -0.1645
 4928TIP3    H136275   5.438   4.970   2.213  1.5221  0.0035 -1.4179
 4928TIP3    H236276   5.323   4.872   2.218 -0.0352  1.8609  0.7751
 4929TIP3   OH236277   3.201   1.343   6.017  0.2804  0.2217  0.0244
 4929TIP3    H136278   3.168   1.304   5.936 -0.9668 -0.7407  0.9552
 4929TIP3    H236279   3.184   1.437   6.008 -1.6585 -0.1030 -0.0498
 4930TIP3   OH236280   4.364   3.094  12.590 -0.2783  0.4592  0.2647
 4930TIP3    H136281   4.367   3.080  12.685  1.5681 -1.8735 -0.0487
 4930TIP3    H236282   4.437   3.153  12.573 -0.8038  1.1352  0.2867
 4931TIP3   OH236283   2.146   1.050  11.122  0.1795 -0.1911  0.4603
 4931TIP3    H136284   2.197   1.104  11.061  0.4028 -1.4521 -0.5214
 4931TIP3    H236285   2.144   1.100  11.203 -0.4287  1.7172 -0.6795
 4932TIP3   OH236286   3.703   3.303   0.582  0.7424  0.2508  0.0887
 4932TIP3    H136287   3.792   3.314   0.551  0.2096  0.3017 -1.5143
 4932TIP3    H236288   3.673   3.221   0.543  0.2986 -0.1114  1.1572
 4933TIP3   OH236289   1.264   2.999   2.660  0.8166  0.0179  0.4697
 4933TIP3    H136290   1.285   2.906   2.656 -0.7249 -0.3339 -1.1772
 4933TIP3    H236291   1.271   3.022   2.752  0.0622 -2.0498  1.1056
 4934TIP3   OH236292   5.206   4.094  14.470 -0.0510  0.4931  0.7047
 4934TIP3    H136293   5.160   4.135  14.543  1.8254  3.0669  0.5783
 4934TIP3    H236294   5.299   4.100  14.493  0.4286 -2.3421 -0.1182
 4935TIP3   OH236295   0.560   0.509  15.188  0.0647 -0.1033  0.2969
 4935TIP3    H136296   0.573   0.503  15.282  0.3893 -2.6973  0.1399
 4935TIP3    H236297   0.496   0.580  15.177 -0.1944  0.0497  2.4503
 4936TIP3   OH236298   4.113   6.363  12.542 -0.2090 -0.2468  0.3601
 4936TIP3    H136299   4.106   6.358  12.447 -3.1956 -1.2229  0.5119
 4936TIP3    H236300   4.131   6.455  12.560 -1.9286  0.4573 -1.1581
 4937TIP3   OH236301   3.250   5.720   1.887 -0.6431 -0.2255  0.5092
 4937TIP3    H136302   3.321   5.710   1.823 -0.6957  2.8369 -0.1508
 4937TIP3    H236303   3.186   5.776   1.843 -0.5482  2.2678  3.3136
 4938TIP3   OH236304   0.239   5.025   3.652  0.2581 -0.1020  0.8011
 4938TIP3    H136305   0.211   5.116   3.652 -0.5433 -0.3394  0.0973
 4938TIP3    H236306   0.163   4.976   3.621  0.9446 -0.9205  0.3721
 4939TIP3   OH236307   0.692   2.556   3.977  0.3002 -0.1219 -0.2176
 4939TIP3    H136308   0.745   2.568   4.057 -1.0424  0.1279  0.6637
 4939TIP3    H236309   0.602   2.563   4.007 -0.2830 -1.5550 -1.5190
 4940TIP3   OH236310   3.461   2.899  11.494  0.3088 -0.1665 -0.2720
 4940TIP3    H136311   3.429   2.856  11.415 -1.5308 -0.4516  0.5711
 4940TIP3    H236312   3.408   2.978  11.502 -2.0159 -1.7727  2.3643
 4941TIP3   OH236313   0.797   2.585  14.648  0.0110 -0.4693  0.1046
 4941TIP3    H136314   0.757   2.509  14.605 -0.7341 -0.2473  0.3864
 4941TIP3    H236315   0.741   2.658  14.623 -0.0682 -0.2386  0.9386
 4942TIP3   OH236316   3.426   1.820   5.693 -0.3287  0.1055  0.2796
 4942TIP3    H136317   3.375   1.748   5.655 -0.5828 -0.2644  1.2875
 4942TIP3    H236318   3.511   1.781   5.712 -0.9857 -0.4632  2.4027
 4943TIP3   OH236319   1.160   2.071   6.012  0.6282  0.0249 -0.7509
 4943TIP3    H136320   1.135   2.123   6.088  0.0770  1.0119 -1.5795
 4943TIP3    H236321   1.147   1.980   6.040 -4.9712  0.3157 -1.2663
 4944TIP3   OH236322   4.185   2.911   1.484  0.5247  0.5119  0.0859
 4944TIP3    H136323   4.215   2.914   1.575  2.6414  0.3957 -0.5586
 4944TIP3    H236324   4.138   2.828   1.477 -0.9901  1.2026  1.4163
 4945TIP3   OH236325   0.793   2.147  15.916 -1.2194  0.0362  0.0080
 4945TIP3    H136326   0.776   2.233  15.878  2.0712  1.5396  1.6450
 4945TIP3    H236327   0.730   2.140  15.988 -1.8278  0.8120 -0.4281
 4946TIP3   OH236328   6.470   4.100  16.131  0.3602  0.3635 -0.3116
 4946TIP3    H136329   6.549   4.099  16.077 -0.3643 -1.5645 -1.4478
 4946TIP3    H236330   6.496   4.060  16.213  0.4306 -1.0320 -0.9808
 4947TIP3   OH236331   4.599   2.032   2.066  0.2331 -0.7163  0.1160
 4947TIP3    H136332   4.538   2.076   2.125  1.2927 -1.4239  1.7829
 4947TIP3    H236333   4.684   2.069   2.086  0.5177 -0.3110 -1.6481
 4948TIP3   OH236334   1.577   6.181   6.013 -0.6200 -0.1836  0.2674
 4948TIP3    H136335   1.544   6.165   6.101  0.8477  1.7955  1.2460
 4948TIP3    H236336   1.517   6.245   5.976 -1.7036 -1.5941 -0.5486
 4949TIP3   OH236337   3.552   0.306   6.569 -0.7678  0.6020  0.1979
 4949TIP3    H136338   3.639   0.341   6.589 -1.3917  1.6573  1.1838
 4949TIP3    H236339   3.497   0.383   6.560 -1.3590  0.0007 -1.7657
 4950TIP3   OH236340   6.216   0.554  10.293  0.3794  0.6208  0.2188
 4950TIP3    H136341   6.203   0.649  10.298  1.7609  0.7637  1.6986
 4950TIP3    H236342   6.167   0.519  10.367 -0.5471  0.0945 -0.6141
 4951TIP3   OH236343   4.929   2.886   3.879 -0.3574 -0.1207  0.4115
 4951TIP3    H136344   4.977   2.838   3.947 -0.4872 -1.5336 -0.4599
 4951TIP3    H236345   4.988   2.959   3.855  0.5871 -0.8002  0.5919
 4952TIP3   OH236346   0.100   3.950   2.722  0.1217  0.4087 -0.6150
 4952TIP3    H136347   0.109   3.858   2.748  0.8587  0.7801  0.5071
 4952TIP3    H236348   0.174   3.965   2.663  0.1924  0.3732 -0.5356
 4953TIP3   OH236349   4.223   3.659   4.322 -0.1612  0.2039  0.2256
 4953TIP3    H136350   4.273   3.658   4.241 -0.7275  1.5768 -0.1674
 4953TIP3    H236351   4.212   3.752   4.343  0.2443 -0.1231  2.0617
 4954TIP3   OH236352   6.511   2.804  13.239 -0.5172  0.2452  0.4661
 4954TIP3    H136353   6.435   2.860  13.226 -0.1028  0.7368  0.1295
 4954TIP3    H236354   6.544   2.827  13.326 -0.4072  0.4501  0.3696
 4955TIP3   OH236355   5.713   0.297  12.374 -0.3005  0.0322 -0.5112
 4955TIP3    H136356   5.681   0.309  12.284  1.7889 -0.5459 -1.3971
 4955TIP3    H236357   5.805   0.274  12.363 -0.2726 -1.1990  1.7407
 4956TIP3   OH236358   3.868   0.959  15.121 -0.1859  0.2690  0.1796
 4956TIP3    H136359   3.894   0.879  15.166  0.3440 -0.5652 -1.5051
 4956TIP3    H236360   3.880   1.028  15.186 -1.1961 -1.0571  1.8491
 4957TIP3   OH236361   6.373   3.565   5.151  0.2336 -0.3569  0.4446
 4957TIP3    H136362   6.423   3.532   5.226  0.2337  0.6266  0.9003
 4957TIP3    H236363   6.403   3.655   5.140  0.0227 -0.4017 -0.5699
 4958TIP3   OH236364   2.941   5.035  11.624  0.4946 -0.2580 -0.2481
 4958TIP3    H136365   2.999   4.988  11.684 -1.8455  0.2168  2.6304
 4958TIP3    H236366   2.914   4.968  11.561  2.1770 -1.0790 -0.1772
 4959TIP3   OH236367   5.537   5.048   5.227 -0.5340  0.4766  0.2890
 4959TIP3    H136368   5.454   5.050   5.274 -1.2123  0.5852 -0.8749
 4959TIP3    H236369   5.604   5.050   5.295 -1.4858  0.3467  1.2413
 4960TIP3   OH236370   0.206   2.952   3.523 -0.2385  0.0423 -0.1138
 4960TIP3    H136371   0.123   2.952   3.571 -0.1849  1.5198  0.0043
 4960TIP3    H236372   0.254   2.876   3.557 -1.8900 -1.4150 -0.8416
 4961TIP3   OH236373   3.810   5.884  14.942 -0.2182 -0.6613  0.3310
 4961TIP3    H136374   3.813   5.888  15.037 -2.1708 -0.6929  0.4217
 4961TIP3    H236375   3.729   5.928  14.918  0.2053 -0.7158 -1.3261
 4962TIP3   OH236376   0.788   6.089  16.116  0.4172 -0.0644 -0.0944
 4962TIP3    H136377   0.822   6.110  16.203  2.7075 -1.8780 -0.4536
 4962TIP3    H236378   0.816   6.161  16.061  0.2189  0.3919  0.3980
 4963TIP3   OH236379   1.464   6.135   2.154  0.6512 -0.3493  0.3102
 4963TIP3    H136380   1.507   6.180   2.082  1.2068  1.1319  1.4926
 4963TIP3    H236381   1.535   6.103   2.210  0.2401 -0.6784  0.6576
 4964TIP3   OH236382   1.106   0.606   4.331 -0.0010  0.5338  0.3048
 4964TIP3    H136383   1.157   0.527   4.348  0.8457  0.9828 -0.0817
 4964TIP3    H236384   1.051   0.584   4.255  0.6381  0.4880 -0.1519
 4965TIP3   OH236385   0.683   6.581   0.960  0.5660 -0.1585 -0.0036
 4965TIP3    H136386   0.638   6.497   0.960 -0.8171  0.5452 -0.7561
 4965TIP3    H236387   0.715   6.592   0.871  2.0649 -0.5471  0.4706
 4966TIP3   OH236388   2.813   2.470   2.975  0.5690 -0.1393  0.1010
 4966TIP3    H136389   2.739   2.524   2.948  0.7728 -0.5114 -1.3181
 4966TIP3    H236390   2.848   2.435   2.893  1.6677 -0.8193  0.8271
 4967TIP3   OH236391   2.281   3.933   0.620  0.1884  0.2756  0.3349
 4967TIP3    H136392   2.332   3.852   0.626  0.1673  0.2526  0.1892
 4967TIP3    H236393   2.302   3.969   0.534  0.1439  0.3897  0.3714
 4968TIP3   OH236394   6.755   3.970   5.500  0.6625  0.2091 -0.0520
 4968TIP3    H136395   6.797   4.037   5.553 -0.3812 -0.9910  2.4524
 4968TIP3    H236396   6.663   3.973   5.526 -0.0501 -0.0909 -2.2567
 4969TIP3   OH236397   2.660   4.613   5.134  0.4352 -0.7037  0.1354
 4969TIP3    H136398   2.742   4.607   5.085 -0.0772  1.7867 -1.1987
 4969TIP3    H236399   2.644   4.707   5.142 -2.3937 -1.1030  0.1365
 4970TIP3   OH236400   4.664   5.333  13.313  0.1901 -0.1613 -0.5081
 4970TIP3    H136401   4.609   5.398  13.357  1.3970 -0.5382  1.7245
 4970TIP3    H236402   4.701   5.380  13.238  0.4811  1.5365  0.6449
 4971TIP3   OH236403   3.297   3.176   3.364 -0.3450  0.0258  0.1118
 4971TIP3    H136404   3.326   3.267   3.371  0.5998 -0.2275 -0.2779
 4971TIP3    H236405   3.370   3.131   3.320 -0.7234 -0.9506  0.4444
 4972TIP3   OH236406   4.203   4.566  12.711  0.1851  0.0950 -0.1515
 4972TIP3    H136407   4.245   4.649  12.689  3.5714 -1.6232 -0.9314
 4972TIP3    H236408   4.122   4.566  12.661  0.2197  2.7514 -0.3711
 4973TIP3   OH236409   2.669   4.655   3.891  0.2504  0.0493 -0.7988
 4973TIP3    H136410   2.691   4.582   3.833 -0.8268  0.3783 -1.6786
 4973TIP3    H236411   2.736   4.654   3.959  0.9015 -1.0530 -1.4318
 4974TIP3   OH236412   1.528   5.769   2.143 -0.3766 -0.3049  0.1582
 4974TIP3    H136413   1.439   5.765   2.179 -0.9998  0.3955 -1.2283
 4974TIP3    H236414   1.521   5.731   2.055  0.3350  1.1825 -0.5817
 4975TIP3   OH236415   1.917   5.502  17.056  0.2191 -0.6226  0.5077
 4975TIP3    H136416   1.927   5.482  17.149 -0.1544  0.3095  0.7539
 4975TIP3    H236417   1.855   5.436  17.024 -0.2597 -0.4651  1.1007
 4976TIP3   OH236418   3.235   1.849   5.931  0.2300  0.2467 -0.5077
 4976TIP3    H136419   3.156   1.841   5.877  0.6925 -0.8803 -1.0709
 4976TIP3    H236420   3.264   1.939   5.918 -0.5543  0.4555 -0.8826
 4977TIP3   OH236421   5.223   5.737  16.044  0.0022  0.1146  0.4378
 4977TIP3    H136422   5.314   5.744  16.073 -0.3357  0.5575  1.4614
 4977TIP3    H236423   5.225   5.757  15.951  1.0635 -0.7174  0.2661
 4978TIP3   OH236424   4.710   4.409  14.765 -0.3874  0.0934 -0.1691
 4978TIP3    H136425   4.737   4.325  14.802 -0.0966 -0.2289 -1.0776
 4978TIP3    H236426   4.770   4.473  14.802 -0.5993 -0.0939  0.5173
 4979TIP3   OH236427   3.348   1.303  11.283 -0.2432  0.2697 -0.6909
 4979TIP3    H136428   3.362   1.255  11.365  1.6422  0.7538 -0.6857
 4979TIP3    H236429   3.271   1.357  11.300 -2.2495 -2.3706 -0.5591
 4980TIP3   OH236430   2.526   4.222   2.346  0.3506 -0.3823  0.4974
 4980TIP3    H136431   2.553   4.159   2.280  1.5408  0.4926  0.1071
 4980TIP3    H236432   2.498   4.299   2.296 -0.2329 -0.2793  0.9742
 4981TIP3   OH236433   2.693   2.744   3.632  0.3822 -0.1105 -0.0102
 4981TIP3    H136434   2.760   2.741   3.563  0.5716  0.0341  0.1654
 4981TIP3    H236435   2.662   2.654   3.639  0.8172 -0.2554  0.1544
 4982TIP3   OH236436   0.812   4.578  11.473  0.1764  0.1387  0.1801
 4982TIP3    H136437   0.777   4.661  11.442  1.3515  0.6436  0.1788
 4982TIP3    H236438   0.781   4.514  11.408 -1.4625  0.3977  0.6461
 4983TIP3   OH236439   6.154   3.224   1.142  0.1134  0.6447 -0.9565
 4983TIP3    H136440   6.066   3.257   1.157  0.3265  1.2569 -1.0065
 4983TIP3    H236441   6.192   3.214   1.230 -0.0152  0.3492 -0.9338
 4984TIP3   OH236442   2.885   5.218  14.365  0.5363  0.0565 -0.6381
 4984TIP3    H136443   2.845   5.173  14.439  0.5184  0.3229 -0.4843
 4984TIP3    H236444   2.844   5.179  14.288  0.9031 -0.5586 -0.5305
 4985TIP3   OH236445   0.176   3.411  13.996  0.4855  0.5215 -0.2850
 4985TIP3    H136446   0.237   3.356  14.045 -0.6761 -1.2169 -0.7037
 4985TIP3    H236447   0.171   3.492  14.047 -1.3350 -1.4938  3.0547
 4986TIP3   OH236448   0.732   3.186  15.331 -0.3836  0.4946  0.0679
 4986TIP3    H136449   0.749   3.173  15.238  1.1855  1.5361  0.1768
 4986TIP3    H236450   0.722   3.280  15.341 -2.4655  0.2725  0.6985
 4987TIP3   OH236451   4.654   3.914   1.422 -0.2780 -0.3473  0.2218
 4987TIP3    H136452   4.633   3.994   1.470 -2.1602 -0.7853  0.1997
 4987TIP3    H236453   4.712   3.865   1.479 -0.2927  0.3724  0.8620
 4988TIP3   OH236454   1.222   5.848   5.702 -0.0571 -0.0645  0.4466
 4988TIP3    H136455   1.286   5.874   5.769 -0.3068  0.2928  0.5501
 4988TIP3    H236456   1.257   5.884   5.620  0.4331 -0.8102  0.3230
 4989TIP3   OH236457   4.892   5.286   3.894 -0.4126 -0.3076  0.3178
 4989TIP3    H136458   4.866   5.308   3.984 -0.7864  2.3289 -0.3645
 4989TIP3    H236459   4.824   5.325   3.839 -0.0665 -1.6633 -1.1435
 4990TIP3   OH236460   6.731   4.967   4.302  0.2564  0.3986  0.0468
 4990TIP3    H136461   6.680   5.014   4.368  2.4053  1.9962  0.6474
 4990TIP3    H236462   6.805   5.024   4.282  2.2222 -2.0979 -0.2910
 4991TIP3   OH236463   2.073   3.769   5.075  0.1761 -0.0910  0.5925
 4991TIP3    H136464   2.032   3.718   5.145  0.8459  1.0276  1.8593
 4991TIP3    H236465   2.036   3.857   5.085  2.6704  0.9150  1.6862
 4992TIP3   OH236466   1.359   3.773   4.987  0.5004  0.6867 -0.1969
 4992TIP3    H136467   1.288   3.809   4.934 -2.0942 -0.9547  1.8736
 4992TIP3    H236468   1.343   3.809   5.075  3.4243  1.7365  0.0026
 4993TIP3   OH236469   2.421   1.851   1.392  0.2519 -0.4968  0.6284
 4993TIP3    H136470   2.498   1.878   1.443 -0.7328  0.8283  1.4887
 4993TIP3    H236471   2.358   1.822   1.458 -0.5581 -0.0560  0.0594
 4994TIP3   OH236472   5.775   0.417  14.708  0.3421  0.4934  0.7920
 4994TIP3    H136473   5.709   0.482  14.734  1.4916  2.0753 -0.1266
 4994TIP3    H236474   5.792   0.368  14.789  0.9007  2.6552  2.0686
 4995TIP3   OH236475   5.664   6.336   0.797 -1.2172  0.0445 -0.0845
 4995TIP3    H136476   5.741   6.391   0.784  0.5835 -2.5054 -0.8600
 4995TIP3    H236477   5.593   6.385   0.755 -0.6351  3.4885  2.4330
 4996TIP3   OH236478   6.169   0.426   0.198 -1.1009  0.7162  0.7687
 4996TIP3    H136479   6.155   0.375   0.118  3.3064  0.1354  0.1432
 4996TIP3    H236480   6.156   0.517   0.170 -1.7303  0.4105  0.0139
 4997TIP3   OH236481   4.930   5.681  13.681 -0.1042  0.3121  0.2239
 4997TIP3    H136482   4.983   5.737  13.624  0.0145  0.4944  0.5131
 4997TIP3    H236483   4.963   5.699  13.769 -1.0344  0.8631  0.4705
 4998TIP3   OH236484   1.208   5.846   3.855  0.2326  0.2551 -0.5264
 4998TIP3    H136485   1.175   5.838   3.765  0.6268  0.9864 -0.7427
 4998TIP3    H236486   1.295   5.885   3.845  0.8992 -1.0131  0.0789
 4999TIP3   OH236487   1.319   1.320  10.896 -0.6310  0.3570  0.3548
 4999TIP3    H136488   1.391   1.382  10.881 -0.0097 -0.6921 -1.3600
 4999TIP3    H236489   1.264   1.329  10.818 -1.1017 -0.4710  0.5804
 5000TIP3   OH236490   0.644   4.322  15.187 -0.0085 -0.1382 -0.1670
 5000TIP3    H136491   0.675   4.408  15.217 -0.4141  0.5394 -1.5972
 5000TIP3    H236492   0.549   4.326  15.195 -0.1596  0.1778 -1.7199
 5001TIP3   OH236493   6.149   3.332  16.526 -0.3005 -0.1030 -0.8707
 5001TIP3    H136494   6.085   3.397  16.553 -1.4728 -1.5655  0.0793
 5001TIP3    H236495   6.231   3.380  16.516 -0.3225  1.0126  2.9525
 5002TIP3   OH236496   2.126   3.963  11.647  0.2220 -0.2657  0.6224
 5002TIP3    H136497   2.084   3.973  11.562  0.3342  0.2263  0.6221
 5002TIP3    H236498   2.108   4.045  11.693  1.0653 -0.0957  0.6678
 5003TIP3   OH236499   0.955   3.980  12.719  0.4907  0.1646  0.2800
 5003TIP3    H136500   1.044   3.968  12.687 -0.5564 -4.0812 -1.6860
 5003TIP3    H236501   0.959   3.951  12.810  1.0914 -0.1087  0.1750
 5004TIP3   OH236502   4.770   5.896  11.664  0.0102 -0.3809 -0.0680
 5004TIP3    H136503   4.866   5.885  11.663 -0.0897 -1.3908 -1.1971
 5004TIP3    H236504   4.755   5.965  11.728  1.5652  0.3799 -0.4516
 5005TIP3   OH236505   1.194   0.608   6.722  0.3538 -0.3397 -0.7705
 5005TIP3    H136506   1.121   0.548   6.738  0.5111 -0.0926  1.0473
 5005TIP3    H236507   1.265   0.552   6.690 -0.3552 -0.6999 -1.7389
 5006TIP3   OH236508   2.858   3.843   0.669 -0.0668 -0.1188 -0.2919
 5006TIP3    H136509   2.912   3.922   0.678  2.5416 -1.7840 -0.4424
 5006TIP3    H236510   2.834   3.819   0.758 -0.8385  0.7657 -0.2435
 5007TIP3   OH236511   3.754   0.973  15.881 -1.0578 -0.0510 -0.3593
 5007TIP3    H136512   3.664   1.001  15.869 -1.5745 -1.8835 -1.1180
 5007TIP3    H236513   3.749   0.904  15.947 -0.0900  0.3449  0.1576
 5008TIP3   OH236514   4.042   1.453   4.804  0.4481  1.1351 -0.4011
 5008TIP3    H136515   3.987   1.457   4.882 -1.3340  1.5073 -1.6240
 5008TIP3    H236516   3.981   1.459   4.730  2.0475  0.5986 -1.8477
 5009TIP3   OH236517   2.865   2.241  14.300 -0.4879 -0.1197 -0.3335
 5009TIP3    H136518   2.932   2.273  14.239 -0.4835 -1.6129 -1.1427
 5009TIP3    H236519   2.905   2.167  14.345 -0.5213  0.9001  1.4907
 5010TIP3   OH236520   6.323   1.161  11.442 -0.2507  0.0558  0.2201
 5010TIP3    H136521   6.377   1.084  11.458 -1.7796 -0.6492  2.3968
 5010TIP3    H236522   6.235   1.136  11.471 -0.9422  2.3788  0.3731
 5011TIP3   OH236523   6.027   0.451  11.233  0.2024 -0.1204 -0.2334
 5011TIP3    H136524   6.026   0.380  11.169  0.0424 -0.7772  0.4849
 5011TIP3    H236525   5.936   0.459  11.262  0.3784 -0.2575  0.3747
 5012TIP3   OH236526   0.370   1.783  12.043  0.4025  0.2926 -0.1585
 5012TIP3    H136527   0.295   1.802  11.987  0.2924  2.1953  0.5567
 5012TIP3    H236528   0.356   1.693  12.073 -1.3375  0.4481 -0.4116
 5013TIP3   OH236529   2.935   4.872  12.288 -0.1554  0.2192 -0.1481
 5013TIP3    H136530   3.023   4.870  12.252 -0.5366 -0.1533 -1.0836
 5013TIP3    H236531   2.940   4.934  12.361  1.1888 -0.7977  0.6568
 5014TIP3   OH236532   5.341   4.598  13.248  0.4885  0.2326 -0.8224
 5014TIP3    H136533   5.294   4.541  13.186 -1.0660 -0.4180  0.8576
 5014TIP3    H236534   5.274   4.659  13.280  1.2929  0.6620  0.1050
 5015TIP3   OH236535   0.247   4.928   0.374 -0.0620 -0.7007  0.2425
 5015TIP3    H136536   0.161   4.969   0.385  0.9510  1.4085  0.9970
 5015TIP3    H236537   0.253   4.909   0.281 -2.2972 -3.3167  0.4989
 5016TIP3   OH236538   3.690   1.107   6.371 -0.1729  0.5864 -0.5414
 5016TIP3    H136539   3.761   1.052   6.402  0.2148  0.6436 -1.3181
 5016TIP3    H236540   3.618   1.047   6.354  0.3396  0.2715 -1.6576
 5017TIP3   OH236541   0.885   1.308  15.323  0.1456  0.4646 -0.3455
 5017TIP3    H136542   0.953   1.368  15.355  1.6740 -0.6124 -1.4195
 5017TIP3    H236543   0.819   1.308  15.392  1.3168  1.4121  0.8355
 5018TIP3   OH236544   3.673   2.164  12.944  0.1992 -0.3465 -0.1392
 5018TIP3    H136545   3.626   2.235  12.988 -0.4680 -0.7416 -0.1954
 5018TIP3    H236546   3.606   2.097  12.929  0.9756 -1.3580  0.6885
 5019TIP3   OH236547   4.863   4.196  14.878  0.2466  0.8238 -0.2803
 5019TIP3    H136548   4.892   4.217  14.967  0.2725  0.7520 -0.2717
 5019TIP3    H236549   4.876   4.101  14.871  0.7177  0.9086 -0.5366
 5020TIP3   OH236550   0.993   3.525   4.411  0.7923  0.0197 -0.1607
 5020TIP3    H136551   1.030   3.585   4.346  0.2418  0.2345 -0.2827
 5020TIP3    H236552   0.965   3.449   4.360 -0.2569  0.4719 -0.2806
 5021TIP3   OH236553   6.563   5.782   1.695 -0.1391 -0.0307 -0.2040
 5021TIP3    H136554   6.570   5.724   1.619  0.8453  0.0113 -0.1526
 5021TIP3    H236555   6.648   5.775   1.739  0.4532  2.3106 -0.8291
 5022TIP3   OH236556   5.978   0.156   2.700 -0.3802 -0.0535  0.0627
 5022TIP3    H136557   6.016   0.110   2.775 -0.2847  0.0839  0.1003
 5022TIP3    H236558   5.970   0.090   2.632 -1.5170 -0.4464  0.5590
 5023TIP3   OH236559   3.124   5.300  14.480 -0.1799  0.2310 -0.4297
 5023TIP3    H136560   3.205   5.258  14.451  0.2560  1.6561 -1.4311
 5023TIP3    H236561   3.060   5.278  14.413 -1.1866 -2.3736  1.2561
 5024TIP3   OH236562   6.320   0.003   3.007  0.0595  0.2194  0.3337
 5024TIP3    H136563   6.365   0.085   2.985  0.9178 -0.3011  0.1131
 5024TIP3    H236564   6.301  -0.038   2.922  1.5179 -0.8030  0.4705
 5025TIP3   OH236565   1.373   4.212  12.885 -0.2486 -0.5738 -0.2858
 5025TIP3    H136566   1.348   4.255  12.803  0.0092  1.3497  0.6103
 5025TIP3    H236567   1.461   4.178  12.867  0.8231  1.9035 -0.1441
 5026TIP3   OH236568   5.509   3.805  16.715  0.7556 -0.3253 -0.0686
 5026TIP3    H136569   5.585   3.770  16.761  0.8952 -0.9028 -0.7257
 5026TIP3    H236570   5.435   3.753  16.747  0.5936  0.3639  0.7134
 5027TIP3   OH236571   0.933   6.168   1.317  0.0493 -0.2018 -0.2353
 5027TIP3    H136572   0.845   6.206   1.316 -0.0608 -0.3611 -2.9389
 5027TIP3    H236573   0.978   6.215   1.387 -1.8720  0.6000  0.5332
 5028TIP3   OH236574   1.998   3.726   0.803 -0.6189  0.0222 -0.6504
 5028TIP3    H136575   2.024   3.635   0.788 -0.4490  0.0604 -0.5944
 5028TIP3    H236576   2.024   3.771   0.722  0.9858  0.3737  0.0108
 5029TIP3   OH236577   3.456   5.879   2.316 -0.1272  0.0393 -0.3435
 5029TIP3    H136578   3.406   5.958   2.298 -0.6545  0.1126  1.2515
 5029TIP3    H236579   3.426   5.816   2.252 -1.6680  0.3508  0.0350
 5030TIP3   OH236580   1.875   4.858  13.299  0.2505 -0.1331 -0.3887
 5030TIP3    H136581   1.957   4.857  13.349  0.6298 -0.0132 -1.0006
 5030TIP3    H236582   1.853   4.951  13.291  0.2258 -0.1495 -0.5080
 5031TIP3   OH236583   1.282   2.807   4.207  0.2989  0.0822 -0.2468
 5031TIP3    H136584   1.365   2.766   4.230  1.5158  1.4741 -1.8464
 5031TIP3    H236585   1.235   2.740   4.157  1.0530 -0.2760 -0.4869
 5032TIP3   OH236586   4.604   3.738   4.257 -0.4815  0.1332  0.3048
 5032TIP3    H136587   4.562   3.667   4.305  0.1305 -1.1066 -0.9253
 5032TIP3    H236588   4.631   3.698   4.174  0.8116  1.5446  0.0074
 5033TIP3   OH236589   4.626   3.446  11.214  0.6725 -0.4739 -0.1974
 5033TIP3    H136590   4.532   3.461  11.227  0.5045 -1.7459  0.2322
 5033TIP3    H236591   4.663   3.454  11.302  1.5123  3.0980 -0.7218
 5034TIP3   OH236592   3.827   1.907   1.820 -0.1157  0.0218 -0.0605
 5034TIP3    H136593   3.878   1.904   1.739  0.9533 -0.4981  0.6128
 5034TIP3    H236594   3.743   1.868   1.796  0.6296 -1.3106 -0.6169
 5035TIP3   OH236595   2.093   3.188  15.763 -0.6445  0.9638 -0.7602
 5035TIP3    H136596   2.099   3.094  15.749  2.8149  0.8781  0.1415
 5035TIP3    H236597   2.016   3.200  15.818  0.7206 -1.9127  2.1323
 5036TIP3   OH236598   4.319   0.190   3.966 -0.4156  0.5984 -0.3967
 5036TIP3    H136599   4.322   0.281   3.937 -1.4356  0.5331 -0.7471
 5036TIP3    H236600   4.227   0.165   3.960  0.1072 -1.1584 -2.5106
 5037TIP3   OH236601   3.825   5.570  12.330  0.0102 -0.5537 -1.4330
 5037TIP3    H136602   3.824   5.647  12.387  0.0067 -0.0033 -2.1574
 5037TIP3    H236603   3.900   5.518  12.360 -0.5044 -0.7053 -0.3799
 5038TIP3   OH236604   5.789   0.423  17.147 -0.1046  0.2293 -0.6985
 5038TIP3    H136605   5.768   0.503  17.099 -1.8652 -1.2644 -2.5863
 5038TIP3    H236606   5.749   0.353  17.096  1.1210 -1.8605  1.0387
 5039TIP3   OH236607   2.904   0.224   1.264 -0.3518  0.0546 -0.3052
 5039TIP3    H136608   2.945   0.310   1.257  0.0370  0.0527  1.4394
 5039TIP3    H236609   2.812   0.242   1.278  0.0738  0.3619  2.7293
 5040TIP3   OH236610   1.815   4.222   2.067 -0.3636 -0.0985  0.3207
 5040TIP3    H136611   1.795   4.237   2.159  1.0051 -0.5651  0.7236
 5040TIP3    H236612   1.730   4.208   2.025 -0.9187 -1.4010  1.7977
 5041TIP3   OH236613   6.822   5.543   2.518 -0.2411 -0.1919 -0.2960
 5041TIP3    H136614   6.869   5.537   2.602  1.1630 -0.3473 -1.0542
 5041TIP3    H236615   6.807   5.452   2.493  0.8914 -0.2076 -1.0106
 5042TIP3   OH236616   0.338   2.952  13.014 -0.2001  0.3648 -0.0084
 5042TIP3    H136617   0.329   2.890  12.942  0.9740  1.6686 -1.3307
 5042TIP3    H236618   0.426   2.938  13.048 -0.5104  0.2166  0.7612
 5043TIP3   OH236619   0.351   3.479   2.496  0.0730  0.0337  0.3728
 5043TIP3    H136620   0.321   3.435   2.576  0.8174  0.3910  0.8564
 5043TIP3    H236621   0.446   3.482   2.505  0.0658  1.3205  0.1193
 5044TIP3   OH236622   3.828   2.374  15.753 -0.3565 -0.0955  0.0314
 5044TIP3    H136623   3.819   2.445  15.690  1.1994 -0.0005 -0.1336
 5044TIP3    H236624   3.743   2.330  15.754 -0.9088  0.9328 -0.8782
 5045TIP3   OH236625   6.662   6.133  13.506 -0.0084 -0.0391 -0.0444
 5045TIP3    H136626   6.619   6.132  13.420  0.3060  2.4580 -0.3090
 5045TIP3    H236627   6.741   6.186  13.493  1.0787 -1.2251  1.3594
 5046TIP3   OH236628   4.370   3.567  11.254  0.2099 -0.1228 -0.1979
 5046TIP3    H136629   4.285   3.605  11.276 -0.0143 -0.4772 -0.4340
 5046TIP3    H236630   4.373   3.570  11.158  0.0122 -1.0531 -0.2493
 5047TIP3   OH236631   3.433   2.849  14.241 -0.3280  0.2969  0.2184
 5047TIP3    H136632   3.512   2.901  14.228 -0.0470 -0.2505 -0.3400
 5047TIP3    H236633   3.366   2.892  14.187  0.3877 -0.9631 -1.8007
 5048TIP3   OH236634   5.460   6.449  13.983 -0.1472 -0.2302 -0.3167
 5048TIP3    H136635   5.428   6.388  13.917  0.1002  0.5949 -1.2277
 5048TIP3    H236636   5.531   6.496  13.940  1.2515 -0.9188  1.1455
 5049TIP3   OH236637   2.916   3.999   4.515  0.2071  0.4880 -0.1260
 5049TIP3    H136638   2.946   3.970   4.601 -0.5133  1.3112  0.4108
 5049TIP3    H236639   2.821   3.995   4.520  0.1233  1.6540 -0.4909
 5050TIP3   OH236640   1.647   5.081   0.191  0.0987 -0.4672 -0.0668
 5050TIP3    H136641   1.719   5.017   0.193 -0.9286 -1.6352  1.6554
 5050TIP3    H236642   1.679   5.150   0.132  2.7853 -0.7501  0.9075
 5051TIP3   OH236643   4.067   2.032  16.383 -0.5113  0.1855  0.0301
 5051TIP3    H136644   4.122   2.091  16.332  1.9024 -1.3855  0.6465
 5051TIP3    H236645   4.053   1.957  16.325 -1.3589  0.2293  0.1688
 5052TIP3   OH236646   5.103   3.002  14.390 -0.4041  0.0296  0.4601
 5052TIP3    H136647   5.019   3.017  14.435 -0.1571  0.2036  0.8702
 5052TIP3    H236648   5.168   3.043  14.447  0.0836 -1.0436  0.7016
 5053TIP3   OH236649   1.042   2.940   5.694 -0.1524 -0.5590 -0.6673
 5053TIP3    H136650   0.970   3.000   5.674 -1.7765 -2.2056  0.0066
 5053TIP3    H236651   1.086   2.980   5.769 -0.2667  0.5206 -1.1482
 5054TIP3   OH236652   4.463   3.014   5.852  0.3097 -0.2860 -0.6291
 5054TIP3    H136653   4.483   2.921   5.846  0.3657 -0.2710 -0.6812
 5054TIP3    H236654   4.501   3.042   5.936  1.8160  0.0560 -1.3909
 5055TIP3   OH236655   0.350   1.703  14.171 -0.6523 -0.4687  0.1476
 5055TIP3    H136656   0.438   1.665  14.165 -1.6310 -2.8391 -0.5656
 5055TIP3    H236657   0.355   1.782  14.116  0.8160 -0.9925 -0.5541
 5056TIP3   OH236658   0.089   0.787   3.941 -0.0829 -0.6861  0.2578
 5056TIP3    H136659   0.016   0.743   3.985 -0.0703 -1.5771 -0.5690
 5056TIP3    H236660   0.152   0.717   3.923  0.8254  0.0083  0.6307
 5057TIP3   OH236661   0.461   2.701   5.336  0.1074  0.7343 -0.4576
 5057TIP3    H136662   0.538   2.669   5.383  0.0113 -0.3807 -1.0273
 5057TIP3    H236663   0.388   2.685   5.395  0.1886  0.8981 -0.3108
 5058TIP3   OH236664   2.835   5.909  15.686  0.3905  0.8223 -0.4444
 5058TIP3    H136665   2.845   5.815  15.674 -1.0185  0.5118  0.6021
 5058TIP3    H236666   2.880   5.928  15.769  0.7659  1.0988 -0.7059
 5059TIP3   OH236667   5.538   2.429  14.833 -0.3112 -0.0447 -0.1882
 5059TIP3    H136668   5.562   2.336  14.824  0.2053 -0.3180  2.8965
 5059TIP3    H236669   5.618   2.476  14.809 -0.5873 -0.3196 -1.8192
 5060TIP3   OH236670   0.455   1.916   0.281 -0.3294  0.0743  0.2400
 5060TIP3    H136671   0.426   1.908   0.190 -0.7767  0.9473  0.2909
 5060TIP3    H236672   0.550   1.927   0.275 -0.2609 -0.6277 -0.0662
 5061TIP3   OH236673   0.183   0.313  10.270 -0.0216 -0.0486 -0.2515
 5061TIP3    H136674   0.148   0.228  10.294  0.6441 -0.6470 -1.3388
 5061TIP3    H236675   0.106   0.366  10.249 -0.3680 -0.7476 -0.7396
 5062TIP3   OH236676   3.958   5.201   4.149 -0.1148 -0.0333  0.0722
 5062TIP3    H136677   4.008   5.282   4.153 -1.1031  0.5382  1.9053
 5062TIP3    H236678   4.023   5.131   4.157  0.5108  0.6622  1.2375
 5063TIP3   OH236679   6.276   0.535  11.313 -0.1161 -0.2345 -0.2611
 5063TIP3    H136680   6.273   0.629  11.325  0.5865 -0.1661 -0.5770
 5063TIP3    H236681   6.192   0.513  11.273 -0.6250  0.1360  0.5644
 5064TIP3   OH236682   0.948   1.445   3.363  0.6571 -0.3645 -0.0547
 5064TIP3    H136683   0.871   1.410   3.408 -0.4337  1.1956 -0.6405
 5064TIP3    H236684   0.958   1.534   3.397  2.6349 -0.7440  0.5009
 5065TIP3   OH236685   5.623   0.748  16.807 -0.3128 -0.6812 -0.0458
 5065TIP3    H136686   5.546   0.710  16.763 -1.3313  0.6159  0.5539
 5065TIP3    H236687   5.683   0.770  16.735 -1.6007  0.6421 -0.7723
 5066TIP3   OH236688   1.219   3.220   4.360 -0.2985 -0.0781  0.2131
 5066TIP3    H136689   1.264   3.136   4.364 -0.3223 -0.0553  3.0381
 5066TIP3    H236690   1.248   3.260   4.278  1.7595 -1.7100  0.0834
 5067TIP3   OH236691   2.668   6.717   0.148  0.3944  1.2623  0.4530
 5067TIP3    H136692   2.664   6.634   0.100 -3.5690  1.7213 -0.3673
 5067TIP3    H236693   2.735   6.768   0.103 -1.0405  0.5182 -2.7793
 5068TIP3   OH236694   0.142   1.121   0.491  0.3634  0.6285  0.3550
 5068TIP3    H136695   0.238   1.127   0.484  0.1573  2.4779 -2.0891
 5068TIP3    H236696   0.121   1.173   0.569  1.3273  0.2037  0.9232
 5069TIP3   OH236697   3.718   2.502  17.084  0.5741  0.0585 -0.6248
 5069TIP3    H136698   3.647   2.441  17.062 -0.4483  0.7625  0.6374
 5069TIP3    H236699   3.709   2.573  17.020 -2.7289  2.3640  2.0566
 5070TIP3   OH236700   5.138   2.906   4.344 -0.5601  0.4353  0.1512
 5070TIP3    H136701   5.109   2.890   4.255  1.6782 -1.3183 -0.3541
 5070TIP3    H236702   5.078   2.854   4.398 -1.2514  0.6310 -0.4146
 5071TIP3   OH236703   0.213   1.188  10.908  0.0374 -0.0771 -0.0967
 5071TIP3    H136704   0.226   1.093  10.907 -1.5282 -0.3171 -1.0347
 5071TIP3    H236705   0.146   1.203  10.974 -0.1969  0.2952 -0.4135
 5072TIP3   OH236706   1.606   0.027  10.876 -0.4375 -0.3527  0.0810
 5072TIP3    H136707   1.538  -0.017  10.825  0.7709 -0.2641 -1.7324
 5072TIP3    H236708   1.682  -0.031  10.868  0.5402  0.9447 -0.4937
 5073TIP3   OH236709   4.021   5.363  16.699 -0.2360 -0.4800 -0.6163
 5073TIP3    H136710   3.965   5.420  16.647 -0.4376 -0.2445 -0.1451
 5073TIP3    H236711   4.110   5.388  16.675 -0.3263 -0.7822 -1.2831
 5074TIP3   OH236712   5.077   5.231  12.113 -0.1815 -0.0830 -0.6283
 5074TIP3    H136713   5.050   5.142  12.136 -1.4525  0.3896 -0.2555
 5074TIP3    H236714   5.036   5.286  12.179  0.0409  0.8527 -1.2592
 5075TIP3   OH236715   4.855   3.164   1.283 -0.0040  0.0122  0.2437
 5075TIP3    H136716   4.924   3.098   1.276 -0.3028 -0.7167  2.9829
 5075TIP3    H236717   4.884   3.221   1.354 -1.5080  0.5910  0.4251
 5076TIP3   OH236718   0.206   4.819  12.927  0.7475 -0.1078  0.0452
 5076TIP3    H136719   0.158   4.795  13.007  0.6257  0.4523  0.1473
 5076TIP3    H236720   0.263   4.891  12.954 -0.9050  1.6268 -0.8338
 5077TIP3   OH236721   1.881   4.718  17.021  0.2900 -0.7489 -0.1498
 5077TIP3    H136722   1.883   4.643  16.961  1.3077 -1.3773  0.6418
 5077TIP3    H236723   1.973   4.740  17.036  0.0189  0.2289  0.1722
 5078TIP3   OH236724   6.239   5.028  15.061 -0.7476  0.5813  0.8349
 5078TIP3    H136725   6.311   5.090  15.054 -0.7193  0.4623  0.0313
 5078TIP3    H236726   6.205   5.041  15.150  2.2192 -1.5035  2.4534
 5079TIP3   OH236727   4.169   5.204  12.365 -0.5802 -0.0649 -0.3029
 5079TIP3    H136728   4.122   5.128  12.332 -0.9573 -0.9646  2.1190
 5079TIP3    H236729   4.257   5.171  12.385 -0.0017  0.7387 -1.3597
 5080TIP3   OH236730   3.411   5.714   1.645 -0.0054  0.2219 -0.1308
 5080TIP3    H136731   3.429   5.665   1.565 -2.8856  1.3231 -1.6003
 5080TIP3    H236732   3.432   5.805   1.623  0.4774  0.3613  0.8526
 5081TIP3   OH236733   0.432   6.075  13.368 -0.3607 -0.5621 -0.1851
 5081TIP3    H136734   0.497   6.095  13.435 -0.0144  2.2082 -1.2344
 5081TIP3    H236735   0.478   6.020  13.305 -0.3497 -2.1792  1.1581
 5082TIP3   OH236736   5.681   5.354   0.086  0.3084 -0.4472 -0.7078
 5082TIP3    H136737   5.630   5.354   0.167 -0.9316 -3.3195 -1.3810
 5082TIP3    H236738   5.772   5.361   0.115 -0.2251  2.3576  0.6476
 5083TIP3   OH236739   2.208   1.336   2.431 -0.6122 -0.4129  0.0202
 5083TIP3    H136740   2.232   1.268   2.494 -0.9307 -0.4042  0.1513
 5083TIP3    H236741   2.261   1.317   2.354 -0.5113 -0.6561  0.1484
 5084TIP3   OH236742   3.369   1.581   4.860  0.3573  0.2152  0.3117
 5084TIP3    H136743   3.423   1.594   4.782  0.1461 -1.4499 -0.1539
 5084TIP3    H236744   3.431   1.585   4.933  1.0217 -0.9272 -0.1628
 5085TIP3   OH236745   3.714   5.351  14.291 -0.1148 -0.5584  0.5082
 5085TIP3    H136746   3.807   5.347  14.270 -0.5226 -0.1268 -1.6948
 5085TIP3    H236747   3.681   5.264  14.267 -0.4020 -0.4678  0.5755
 5086TIP3   OH236748   3.150   6.825  12.348  0.8093  0.2170  0.4479
 5086TIP3    H136749   3.233   6.785  12.323  0.0865 -1.4962  0.6109
 5086TIP3    H236750   3.169   6.870  12.430  1.6688  0.1762  0.2791
 5087TIP3   OH236751   6.565   3.818   6.817 -0.3219 -0.1542 -0.5174
 5087TIP3    H136752   6.494   3.758   6.839 -0.2938  0.3574  1.0667
 5087TIP3    H236753   6.525   3.904   6.814  0.1901  0.1380  0.3815
 5088TIP3   OH236754   5.160   3.180  15.218 -0.3378  0.2786 -0.1849
 5088TIP3    H136755   5.230   3.115  15.214 -0.4675  0.0372  0.9896
 5088TIP3    H236756   5.149   3.210  15.128  1.6176  0.6783 -0.3355
 5089TIP3   OH236757   4.624   1.159   2.205  0.3452  0.1469  0.1401
 5089TIP3    H136758   4.687   1.089   2.218  0.1309 -0.0897 -0.0643
 5089TIP3    H236759   4.619   1.169   2.110 -1.1308 -0.9756  0.0512
 5090TIP3   OH236760   4.627   3.785  11.959  0.0631 -0.1998 -0.4913
 5090TIP3    H136761   4.676   3.710  11.926  0.6916  0.4590 -1.0763
 5090TIP3    H236762   4.553   3.746  12.006 -0.2469 -1.1780 -1.7377
 5091TIP3   OH236763   6.630   4.819   5.288  0.0436 -0.2650 -0.2844
 5091TIP3    H136764   6.697   4.865   5.339 -0.5526  0.1655  0.1308
 5091TIP3    H236765   6.576   4.889   5.251  0.3110 -0.5791 -1.3195
 5092TIP3   OH236766   1.049   2.456   3.464 -0.4331  0.2669 -0.3365
 5092TIP3    H136767   1.123   2.430   3.519 -0.7514 -0.1164 -0.0910
 5092TIP3    H236768   1.050   2.393   3.392 -1.3708 -0.6234  0.4001
 5093TIP3   OH236769   6.353   1.065   3.344  0.3236  0.4594  0.9266
 5093TIP3    H136770   6.320   0.975   3.341  1.8225 -0.0829 -0.4214
 5093TIP3    H236771   6.421   1.063   3.412  1.0898  0.2931  0.1679
 5094TIP3   OH236772   2.364   0.428   1.585 -0.5089 -0.3371  1.1973
 5094TIP3    H136773   2.356   0.403   1.493 -2.3620 -0.0533  1.2482
 5094TIP3    H236774   2.423   0.363   1.622 -1.9847 -2.2108  0.4192
 5095TIP3   OH236775   2.996   1.158  14.044 -0.0646  0.2596  0.4811
 5095TIP3    H136776   2.932   1.089  14.060 -1.1684  0.5359 -2.1797
 5095TIP3    H236777   2.948   1.239  14.060  0.9139  0.5065  2.5271
 5096TIP3   OH236778   5.844   1.668   2.104 -0.7993 -0.4865 -0.3970
 5096TIP3    H136779   5.780   1.689   2.173 -0.3355 -1.1179  0.2461
 5096TIP3    H236780   5.927   1.658   2.151 -0.4765 -0.9487 -1.0509
 5097TIP3   OH236781   4.036   2.266   1.276 -0.1963 -0.0312 -0.3422
 5097TIP3    H136782   3.945   2.295   1.271  0.4282  2.2355 -0.1404
 5097TIP3    H236783   4.064   2.292   1.364  0.5233 -1.0890 -0.2497
 5098TIP3   OH236784   2.308   2.360  11.164  0.0405 -0.3692  0.2165
 5098TIP3    H136785   2.302   2.265  11.178 -1.3039 -0.4049 -0.4002
 5098TIP3    H236786   2.240   2.378  11.100 -0.5966  1.2030  1.2840
 5099TIP3   OH236787   4.786   6.160   5.452 -0.3178 -0.3069 -0.5043
 5099TIP3    H136788   4.764   6.205   5.533  2.6865  0.7150 -0.1366
 5099TIP3    H236789   4.729   6.201   5.386 -0.5162  1.1619  0.5273
 5100TIP3   OH236790   3.711   6.790   6.489 -0.2871  0.1716 -0.2222
 5100TIP3    H136791   3.631   6.760   6.445  1.8241 -2.8535 -2.3636
 5100TIP3    H236792   3.767   6.821   6.419  1.3859 -0.1512  0.9081
 5101TIP3   OH236793   0.254   6.694  11.458  0.0883 -0.5222  0.3887
 5101TIP3    H136794   0.222   6.698  11.368  0.6914  1.6763  0.2016
 5101TIP3    H236795   0.176   6.703  11.512 -0.2559 -1.6579  0.0983
 5102TIP3   OH236796   0.309   1.016  14.253 -0.0707 -0.1759  0.0441
 5102TIP3    H136797   0.275   0.929  14.274 -1.7490  0.4434  0.0549
 5102TIP3    H236798   0.318   1.060  14.337  1.3464 -0.5174  0.0870
 5103TIP3   OH236799   5.162   6.395  16.358  0.4120  0.2251  0.3194
 5103TIP3    H136800   5.116   6.474  16.331 -2.3879 -0.4902  2.4494
 5103TIP3    H236801   5.145   6.332  16.288 -0.6979  0.4115  0.4065
 5104TIP3   OH236802   6.741   4.866   4.051 -0.2078  0.1105 -0.3590
 5104TIP3    H136803   6.661   4.874   3.998  0.1910 -0.2077 -1.0296
 5104TIP3    H236804   6.717   4.902   4.136 -1.3049 -0.7068 -0.2993
 5105TIP3   OH236805   5.301   5.158   3.255 -0.0941 -0.5431 -0.1316
 5105TIP3    H136806   5.353   5.200   3.324 -0.3875  0.3280 -0.4429
 5105TIP3    H236807   5.234   5.222   3.232 -0.9905 -1.4481 -0.1159
 5106TIP3   OH236808   3.685   4.093  13.493  0.1669 -0.2216  0.4469
 5106TIP3    H136809   3.729   4.172  13.463  0.6981 -0.4030  0.7288
 5106TIP3    H236810   3.718   4.080  13.583  1.4998 -1.7620 -0.2141
 5107TIP3   OH236811   2.495   2.638  12.217  0.6684 -0.0891 -0.0405
 5107TIP3    H136812   2.418   2.605  12.171  0.7981 -0.6414  0.1372
 5107TIP3    H236813   2.527   2.564  12.267 -1.3107  1.2325  3.5434
 5108TIP3   OH236814   0.040   2.148  13.131 -0.0158 -0.3987  0.4309
 5108TIP3    H136815  -0.053   2.166  13.145  0.3517  0.9905  1.2980
 5108TIP3    H236816   0.043   2.058  13.100 -1.7057 -0.2381 -0.2791
 5109TIP3   OH236817   1.883   5.812   2.574 -0.5852 -0.4252 -0.2075
 5109TIP3    H136818   1.905   5.848   2.660 -3.0558 -0.0788  0.3604
 5109TIP3    H236819   1.955   5.839   2.518 -0.0019  1.3000  1.2638
 5110TIP3   OH236820   4.276   2.165  14.763  0.2259 -0.2170  0.2077
 5110TIP3    H136821   4.354   2.111  14.777  0.4131  0.2063  0.8307
 5110TIP3    H236822   4.206   2.117  14.808  0.1171 -0.5881 -0.3380
 5111TIP3   OH236823   4.655   5.456   3.816 -0.7189  0.1984  0.3603
 5111TIP3    H136824   4.602   5.470   3.894 -0.7813 -1.4807  0.6721
 5111TIP3    H236825   4.609   5.386   3.769  0.3466 -0.1441 -0.1926
 5112TIP3   OH236826   0.268   0.144   1.436 -0.2721 -0.0369 -0.2930
 5112TIP3    H136827   0.254   0.109   1.524 -0.1731  0.0948 -0.2236
 5112TIP3    H236828   0.181   0.164   1.403 -0.4522 -1.6709 -0.8869
 5113TIP3   OH236829   1.547   5.730  14.627  0.1183 -0.2472  0.5726
 5113TIP3    H136830   1.545   5.825  14.637  0.9182  0.0205 -1.3367
 5113TIP3    H236831   1.640   5.709  14.626 -0.0451 -0.9654  0.2941
 5114TIP3   OH236832   3.231   2.101   3.438 -0.0177 -0.0903  0.4591
 5114TIP3    H136833   3.232   2.159   3.362  1.5956  1.7429  1.7644
 5114TIP3    H236834   3.308   2.045   3.426  0.1917  0.1455  0.6812
 5115TIP3   OH236835   3.482   3.795  13.686 -0.0509  0.3050  0.1222
 5115TIP3    H136836   3.508   3.754  13.604  0.1424  0.3452  0.1627
 5115TIP3    H236837   3.395   3.831  13.668  0.4664  1.3452 -0.4378
 5116TIP3   OH236838   2.366   4.622   3.234  1.1229 -0.0308  0.2675
 5116TIP3    H136839   2.417   4.675   3.173  1.3673 -0.0950  0.4129
 5116TIP3    H236840   2.357   4.677   3.312 -0.3664  0.6093 -0.3036
 5117TIP3   OH236841   1.700   5.998  15.513  0.0051 -0.7063  0.3728
 5117TIP3    H136842   1.697   5.991  15.608 -0.7442 -0.8734  0.3488
 5117TIP3    H236843   1.634   5.935  15.483 -0.3746 -0.0374 -0.2197
 5118TIP3   OH236844   5.189   5.087  14.125  0.0173 -1.1159 -0.0738
 5118TIP3    H136845   5.254   5.131  14.070  2.8851 -1.5710  2.6506
 5118TIP3    H236846   5.186   5.140  14.205 -2.9957 -1.1941 -0.0256
 5119TIP3   OH236847   1.264   3.074  14.516  0.5675 -0.2547  0.1379
 5119TIP3    H136848   1.223   3.159  14.532  0.4330 -0.1700 -0.6101
 5119TIP3    H236849   1.325   3.063  14.589  0.8513  0.6522  0.0498
 5120TIP3   OH236850   3.944   2.910  16.463 -0.1512  0.1369  0.1191
 5120TIP3    H136851   4.030   2.922  16.424  0.1051 -0.5079  0.4682
 5120TIP3    H236852   3.960   2.855  16.540 -0.8141  0.3616  0.4279
 5121TIP3   OH236853   5.075   1.421  12.874 -0.1466 -0.6381 -0.4732
 5121TIP3    H136854   5.090   1.479  12.949  0.2003 -1.0565 -0.2159
 5121TIP3    H236855   4.982   1.433  12.854  0.7204  3.5283 -3.3709
 5122TIP3   OH236856   0.941   5.911  15.189  0.2165 -0.9466 -0.1469
 5122TIP3    H136857   1.036   5.902  15.180  0.1873 -0.2797 -1.2482
 5122TIP3    H236858   0.920   5.858  15.266  1.8174  1.0268  1.7833
 5123TIP3   OH236859   6.722   3.476  15.051  0.0651 -0.8136 -0.5499
 5123TIP3    H136860   6.785   3.442  14.987 -0.5638 -0.9300 -1.1188
 5123TIP3    H236861   6.636   3.461  15.011 -0.2922  0.1920 -0.1956
 5124TIP3   OH236862   6.569   6.112   4.147  0.2771  0.8663 -0.6348
 5124TIP3    H136863   6.647   6.059   4.136  0.2736  1.0084 -1.4089
 5124TIP3    H236864   6.601   6.203   4.142  0.4264  0.9845  1.6383
 5125TIP3   OH236865   0.711   3.993   2.267 -0.4683  0.0843  0.4746
 5125TIP3    H136866   0.740   3.946   2.345  0.1301  0.1423  0.2938
 5125TIP3    H236867   0.665   3.928   2.215  1.7538 -0.7584 -0.5490
 5126TIP3   OH236868   5.651   4.237   0.823  0.4128 -0.4165 -0.6699
 5126TIP3    H136869   5.647   4.162   0.764 -2.2149  0.2539 -1.4607
 5126TIP3    H236870   5.562   4.272   0.824  1.2144  1.8035  0.8555
 5127TIP3   OH236871   0.815   1.208  16.720 -0.3684 -0.2293 -0.7772
 5127TIP3    H136872   0.752   1.279  16.702  0.4301  0.7030 -0.0068
 5127TIP3    H236873   0.806   1.149  16.645 -3.0827 -0.8158 -0.1031
 5128TIP3   OH236874   2.863   1.067  16.140 -0.0550 -0.6369 -0.4179
 5128TIP3    H136875   2.793   1.120  16.101  0.9409  0.1207 -1.2199
 5128TIP3    H236876   2.877   1.107  16.226  1.1093  0.8601 -1.2521
 5129TIP3   OH236877   3.127   4.671  16.304 -0.3116  0.5771 -0.4086
 5129TIP3    H136878   3.145   4.613  16.378  2.0058  1.9803  0.2232
 5129TIP3    H236879   3.203   4.662  16.247 -1.9027 -0.2273 -2.5525
 5130TIP3   OH236880   4.051   2.053   0.681  0.5307  0.0676 -0.2856
 5130TIP3    H136881   4.140   2.035   0.712  0.0128 -1.8001  0.2471
 5130TIP3    H236882   3.996   2.044   0.759 -0.2401  0.2189 -0.8042
 5131TIP3   OH236883   0.506   5.524   1.119 -0.5329  0.5751 -0.2378
 5131TIP3    H136884   0.483   5.558   1.033 -2.7172  0.4902  0.2715
 5131TIP3    H236885   0.510   5.601   1.175  0.1258  0.5450 -0.2292
 5132TIP3   OH236886   0.609   5.020   5.149  0.0657  0.6260 -0.4534
 5132TIP3    H136887   0.543   5.083   5.120 -1.8828 -0.6801  0.9353
 5132TIP3    H236888   0.663   5.069   5.211 -1.1840  1.0542  0.3290
 5133TIP3   OH236889   5.180   2.646  10.876  0.3674 -0.3608  0.1179
 5133TIP3    H136890   5.138   2.703  10.940  1.5161  1.9184 -1.0231
 5133TIP3    H236891   5.107   2.608  10.826 -0.4338  0.0401  0.9523
 5134TIP3   OH236892   1.293   5.174   1.711  0.9368 -0.3713 -0.0277
 5134TIP3    H136893   1.363   5.238   1.701 -2.7117  3.6753 -3.8050
 5134TIP3    H236894   1.231   5.215   1.771  0.6227 -2.8538  1.4954
 5135TIP3   OH236895   6.244   3.119   0.804 -0.6708 -0.3453 -0.6781
 5135TIP3    H136896   6.267   3.136   0.713 -0.7071  1.0778 -0.4377
 5135TIP3    H236897   6.306   3.052   0.832  1.6594  1.6837 -0.7436
 5136TIP3   OH236898   3.462   4.024   6.025 -0.1311  0.2366 -0.0717
 5136TIP3    H136899   3.530   3.988   6.082 -1.0040  0.4443  1.1348
 5136TIP3    H236900   3.508   4.087   5.969  0.9595 -0.8784 -0.4855
 5137TIP3   OH236901   5.579   5.512  13.740  0.2442 -0.2842  0.3553
 5137TIP3    H136902   5.619   5.564  13.809  3.1730 -1.5336 -0.2570
 5137TIP3    H236903   5.490   5.546  13.733  1.0394  2.4626  2.0896
 5138TIP3   OH236904   4.805   1.085  17.115 -0.1636  0.2515 -0.0703
 5138TIP3    H136905   4.753   1.122  17.186  0.1383  1.9149 -0.6757
 5138TIP3    H236906   4.756   1.007  17.088 -1.7643  1.1277  0.1444
 5139TIP3   OH236907   4.977   0.869  15.183 -0.1760 -0.4283  0.6616
 5139TIP3    H136908   5.033   0.898  15.256  1.0526 -0.5057 -0.2160
 5139TIP3    H236909   4.952   0.779  15.206  2.7141 -1.5996 -0.3683
 5140TIP3   OH236910   1.512   3.754  11.657 -0.5607  0.1026 -0.2718
 5140TIP3    H136911   1.544   3.736  11.746  0.2943  1.3694 -0.2881
 5140TIP3    H236912   1.505   3.668  11.617 -0.7586 -0.4828  0.9553
 5141TIP3   OH236913   5.474   6.059  16.108 -0.0886  0.1718 -0.3708
 5141TIP3    H136914   5.534   6.093  16.041  0.6476 -2.7143 -1.3230
 5141TIP3    H236915   5.387   6.083  16.077  0.2242 -1.2709 -2.5456
 5142TIP3   OH236916   4.368   4.143   4.907  0.4717  0.5310  0.3523
 5142TIP3    H136917   4.364   4.123   5.001 -1.1029 -0.4070  0.1319
 5142TIP3    H236918   4.354   4.238   4.902 -0.9937  0.3885  1.0331
 5143TIP3   OH236919   5.911   5.572  13.895  0.1365 -0.1856 -0.5013
 5143TIP3    H136920   5.885   5.603  13.808 -2.4040  1.2066  0.6576
 5143TIP3    H236921   5.909   5.649  13.951 -2.5900 -1.6612  1.6796
 5144TIP3   OH236922   3.677   2.997   2.950 -0.0232  0.0525 -0.1021
 5144TIP3    H136923   3.634   3.071   2.908  0.7180  0.5587  0.0167
 5144TIP3    H236924   3.619   2.972   3.022  0.0274  0.9318  0.2516
 5145TIP3   OH236925   1.483   5.686   0.466 -0.1254 -0.1949  0.3159
 5145TIP3    H136926   1.533   5.766   0.454 -0.2827  0.0793  1.3947
 5145TIP3    H236927   1.413   5.709   0.528 -1.0789 -0.7839 -0.4953
 5146TIP3   OH236928   4.473   6.711  13.655 -0.5399  0.0973  0.0611
 5146TIP3    H136929   4.438   6.665  13.731 -1.7003  0.1066 -0.4508
 5146TIP3    H236930   4.471   6.804  13.680 -0.6050  0.0730  0.1463
 5147TIP3   OH236931   5.260   0.276   1.564 -0.2724  0.2810  0.6076
 5147TIP3    H136932   5.241   0.353   1.618 -0.7388  0.5865  0.0350
 5147TIP3    H236933   5.348   0.291   1.531 -0.8999  1.3669 -0.7357
 5148TIP3   OH236934   0.495   3.950   2.635 -0.4324  0.7542  0.3166
 5148TIP3    H136935   0.449   4.006   2.572 -1.0561  0.1333  0.2144
 5148TIP3    H236936   0.434   3.879   2.654 -0.3577  1.0631  1.8222
 5149TIP3   OH236937   1.448   2.655  12.552 -0.1802 -0.1182 -0.0906
 5149TIP3    H136938   1.432   2.635  12.460 -0.3188  1.5442 -0.4554
 5149TIP3    H236939   1.489   2.575  12.587  1.6816 -0.1204 -2.0584
 5150TIP3   OH236940   0.474   6.478  16.178  0.0462 -0.1187 -0.1443
 5150TIP3    H136941   0.533   6.424  16.231 -0.7410 -0.1004  0.7771
 5150TIP3    H236942   0.410   6.416  16.143 -0.9928  0.2113  1.0970
 5151TIP3   OH236943   6.226   2.202   5.416  0.0449  0.4063 -0.0356
 5151TIP3    H136944   6.297   2.265   5.404  0.2265  0.5818  1.7105
 5151TIP3    H236945   6.263   2.118   5.387  1.4090  0.2758  1.8995
 5152TIP3   OH236946   1.872   1.622  14.933  0.9431 -0.2199  0.0560
 5152TIP3    H136947   1.930   1.697  14.950  1.5372 -0.6239 -0.1556
 5152TIP3    H236948   1.840   1.596  15.019  0.6608  0.3369  0.1220
 5153TIP3   OH236949   1.663   1.161  13.278  0.1368  0.1780  0.0476
 5153TIP3    H136950   1.595   1.121  13.223 -0.6142  1.7690 -0.2616
 5153TIP3    H236951   1.735   1.098  13.277 -0.6284 -0.7390 -1.1356
 5154TIP3   OH236952   2.333   3.411   4.690 -0.3838 -0.0400  0.4868
 5154TIP3    H136953   2.399   3.345   4.666  0.2671  1.2703 -1.6486
 5154TIP3    H236954   2.357   3.438   4.778  0.4121 -1.3663  0.7102
 5155TIP3   OH236955   5.698   3.663   3.255  0.0871 -0.1612 -0.2255
 5155TIP3    H136956   5.720   3.715   3.332  1.0641  0.6472 -1.0094
 5155TIP3    H236957   5.782   3.649   3.211 -0.4479 -0.6248 -1.1346
 5156TIP3   OH236958   1.793   3.171  14.850  0.1385 -0.2369 -0.1360
 5156TIP3    H136959   1.790   3.085  14.893 -1.6819 -0.2394 -0.1761
 5156TIP3    H236960   1.719   3.219  14.888  0.5607  0.9745 -0.8082
 5157TIP3   OH236961   6.124   4.502   1.730 -0.4409 -0.2802 -0.3705
 5157TIP3    H136962   6.153   4.423   1.777  0.4619  2.1984  3.7513
 5157TIP3    H236963   6.177   4.503   1.651 -0.2252 -3.5588 -0.4311
 5158TIP3   OH236964   5.860   0.640   3.224 -0.1083 -0.0618  0.0270
 5158TIP3    H136965   5.821   0.563   3.265 -1.5559 -0.4753 -1.9421
 5158TIP3    H236966   5.874   0.614   3.133 -0.5133  1.9490 -0.6568
 5159TIP3   OH236967   0.972   3.075  10.329  0.3476 -0.1080  0.1293
 5159TIP3    H136968   0.931   3.143  10.276  1.1061  0.2701  0.0170
 5159TIP3    H236969   0.926   3.080  10.413 -1.0971 -0.9489 -0.5842
 5160TIP3   OH236970   5.756   5.924   4.112 -0.5282  0.0487  0.0918
 5160TIP3    H136971   5.738   5.944   4.204 -0.7072  0.0906  0.0476
 5160TIP3    H236972   5.839   5.968   4.094  0.9551 -2.2010  0.9901
 5161TIP3   OH236973   2.377   3.592  15.439  0.1087  0.3391  0.6047
 5161TIP3    H136974   2.332   3.666  15.480  0.0674 -0.5114  2.1931
 5161TIP3    H236975   2.456   3.630  15.401 -0.1784  1.2914  0.9203
 5162TIP3   OH236976   3.588   5.351  14.986  0.5620 -0.0765  0.5107
 5162TIP3    H136977   3.563   5.440  15.010 -2.7406 -0.7201 -0.0146
 5162TIP3    H236978   3.634   5.317  15.063  0.1856  1.4593  1.4582
 5163TIP3   OH236979   1.898   2.935   1.785 -0.1848  0.4705  0.0017
 5163TIP3    H136980   1.886   2.870   1.716 -0.3312 -0.3912  0.8057
 5163TIP3    H236981   1.976   2.984   1.759  0.5322 -0.7038 -0.1365
 5164TIP3   OH236982   2.668   4.158   0.613 -0.2242 -0.3304  0.1501
 5164TIP3    H136983   2.612   4.107   0.671 -0.2641  1.2750  1.5835
 5164TIP3    H236984   2.661   4.248   0.645  3.7827 -0.1258  0.9492
 5165TIP3   OH236985   4.010   4.801  13.960 -0.0431 -0.7943  0.6299
 5165TIP3    H136986   4.012   4.705  13.960 -1.0897 -0.8347 -0.0856
 5165TIP3    H236987   3.921   4.823  13.933  0.3743  0.3858  0.1512
 5166TIP3   OH236988   0.754   1.588  11.610  0.1381  0.4467 -0.0428
 5166TIP3    H136989   0.785   1.580  11.520 -1.1792 -1.3128 -0.3989
 5166TIP3    H236990   0.658   1.592  11.601 -0.2146 -2.4023  1.3311
 5167TIP3   OH236991   2.297   3.029   1.922  0.4002 -0.5700 -0.3326
 5167TIP3    H136992   2.298   3.115   1.964  1.1008 -0.2882 -0.9042
 5167TIP3    H236993   2.302   2.967   1.994  0.3281 -0.1199  0.0652
 5168TIP3   OH236994   0.391   3.304  12.862 -0.1037 -0.8009  0.0322
 5168TIP3    H136995   0.418   3.348  12.942 -1.6809 -0.1063  0.2245
 5168TIP3    H236996   0.454   3.232  12.851  0.5990 -0.4336  1.4527
 5169TIP3   OH236997   6.599   0.939   4.105  0.2261 -0.0110  0.3173
 5169TIP3    H136998   6.678   0.910   4.152  1.1543  1.4527 -0.2440
 5169TIP3    H236999   6.633   0.985   4.029 -1.1526  1.5184  0.5729
 5170TIP3   OH237000   2.157   4.805  11.739 -0.5933 -0.0725 -0.7595
 5170TIP3    H137001   2.181   4.782  11.829  3.2683  2.7231 -0.8132
 5170TIP3    H237002   2.178   4.727  11.688 -3.0616 -1.7861  0.6180
 5171TIP3   OH237003   0.279   2.543   2.932  0.0150 -0.0668  0.0605
 5171TIP3    H137004   0.251   2.509   2.847  0.4992  1.4922 -0.7615
 5171TIP3    H237005   0.206   2.595   2.963  0.6906  1.2979 -0.5431
 5172TIP3   OH237006   4.472   3.723   2.721  0.1040  0.0264  0.0901
 5172TIP3    H137007   4.540   3.681   2.774  0.7836  1.8580  0.7380
 5172TIP3    H237008   4.519   3.759   2.646 -0.5136 -0.5687 -0.5977
 5173TIP3   OH237009   6.451   0.165  15.333 -0.0774 -0.4023 -0.2724
 5173TIP3    H137010   6.384   0.220  15.293 -0.1041 -0.5360 -0.4136
 5173TIP3    H237011   6.404   0.086  15.360  0.1843 -0.8902 -1.1916
 5174TIP3   OH237012   6.748   0.409   5.530 -0.9750 -0.3875  0.8974
 5174TIP3    H137013   6.781   0.431   5.617 -0.3799 -0.0362  0.5897
 5174TIP3    H237014   6.699   0.328   5.542 -0.8771 -0.3534  1.5511
 5175TIP3   OH237015   0.236   2.359  15.717  0.2735  0.0370 -0.2272
 5175TIP3    H137016   0.279   2.280  15.748 -0.0819  0.3165  1.0217
 5175TIP3    H237017   0.220   2.411  15.796  0.4695  1.3446 -1.0247
 5176TIP3   OH237018   1.615   2.873   5.238  0.5480  0.5388 -0.1118
 5176TIP3    H137019   1.652   2.956   5.268  0.3413  0.2876  0.8664
 5176TIP3    H237020   1.640   2.810   5.305 -0.5307  0.0974 -0.1082
 5177TIP3   OH237021   5.096   1.073  15.031  0.2181 -0.0881 -0.5719
 5177TIP3    H137022   5.069   0.997  15.082 -0.2443 -1.4628 -2.7390
 5177TIP3    H237023   5.014   1.119  15.010  0.3624  0.2333 -0.4444
 5178TIP3   OH237024   2.667   0.672  15.064 -0.2780 -0.3643 -0.2764
 5178TIP3    H137025   2.655   0.604  15.130 -0.9522  0.2423  0.2315
 5178TIP3    H237026   2.589   0.727  15.071  1.0302  1.5014  0.5467
 5179TIP3   OH237027   0.238   3.481   3.793  0.4379 -0.2853  0.7074
 5179TIP3    H137028   0.186   3.401   3.803 -0.7434  0.1078 -1.6082
 5179TIP3    H237029   0.303   3.459   3.726 -0.9618  1.1038 -1.2069
 5180TIP3   OH237030   0.892   3.176   5.725  0.5436 -0.6218 -0.0403
 5180TIP3    H137031   0.885   3.249   5.787  0.1915  0.5631 -1.4087
 5180TIP3    H237032   0.810   3.127   5.737  0.5675 -0.5300  0.5513
 5181TIP3   OH237033   5.839   4.461  12.740 -0.2148  0.6400 -0.4652
 5181TIP3    H137034   5.755   4.491  12.775 -0.4501 -1.4968  1.0025
 5181TIP3    H237035   5.904   4.492  12.804 -0.4268 -1.4939  0.8844
 5182TIP3   OH237036   6.073   4.695  16.552 -0.4678 -0.0780 -0.2847
 5182TIP3    H137037   6.081   4.724  16.644  0.6783  1.3402 -0.7745
 5182TIP3    H237038   6.075   4.777  16.502  2.1221 -0.9070 -1.7386
 5183TIP3   OH237039   4.377   3.450   1.131  0.0406 -0.0496  0.1052
 5183TIP3    H137040   4.442   3.416   1.192 -1.8828 -1.3034  1.6052
 5183TIP3    H237041   4.371   3.383   1.063  1.4011  0.8271 -0.9193
 5184TIP3   OH237042   3.637   4.828   2.410  0.4916  0.1217 -0.7143
 5184TIP3    H137043   3.719   4.833   2.460 -0.4460 -1.2439  1.0918
 5184TIP3    H237044   3.626   4.915   2.372  2.6221  0.4201 -0.7900
 5185TIP3   OH237045   6.273   0.730  12.450  0.1879 -0.2458 -0.1340
 5185TIP3    H137046   6.353   0.777  12.471  0.0039 -0.1154  0.3023
 5185TIP3    H237047   6.302   0.646  12.415  0.5137 -0.0226 -0.3956
 5186TIP3   OH237048   1.786   3.988  11.513  0.2859  0.2050 -0.0847
 5186TIP3    H137049   1.771   3.966  11.605  2.1004 -2.3600 -0.3111
 5186TIP3    H237050   1.698   3.988  11.475 -0.7259  3.0752  1.8608
 5187TIP3   OH237051   5.205   4.171  13.668  0.1490 -0.0424  0.1464
 5187TIP3    H137052   5.217   4.230  13.593 -2.7324  0.5537  0.0328
 5187TIP3    H237053   5.276   4.107  13.660 -0.7788 -0.8474 -3.9800
 5188TIP3   OH237054   4.500   5.258   5.765 -0.1739 -0.1236 -0.1372
 5188TIP3    H137055   4.414   5.217   5.777 -0.3764  0.3002 -0.0961
 5188TIP3    H237056   4.512   5.310   5.845  0.8557 -1.4537  0.6165
 5189TIP3   OH237057   3.663   6.786   3.323  0.3072 -0.4094  0.1970
 5189TIP3    H137058   3.696   6.713   3.376 -1.9624 -1.7814 -0.1638
 5189TIP3    H237059   3.625   6.745   3.246 -0.2982  1.2361 -0.4287
 5190TIP3   OH237060   1.984   0.162   3.404 -0.0496 -0.4169 -0.6164
 5190TIP3    H137061   2.027   0.247   3.404 -1.0256  0.0927 -1.3370
 5190TIP3    H237062   1.894   0.181   3.379 -0.4315 -1.5895 -0.1835
 5191TIP3   OH237063   5.614   5.222  16.905 -0.1706  0.5632  0.1289
 5191TIP3    H137064   5.550   5.281  16.945 -0.6016 -0.0565  0.3604
 5191TIP3    H237065   5.620   5.252  16.814 -2.7228 -0.9236 -0.6328
 5192TIP3   OH237066   5.686   4.921   4.750  0.2530 -0.0179 -0.2954
 5192TIP3    H137067   5.626   4.970   4.806 -0.7097 -0.7910 -0.6364
 5192TIP3    H237068   5.719   4.986   4.688 -0.4516  0.3549 -0.2866
 5193TIP3   OH237069   2.394   6.421   3.702  0.2860 -0.3506  0.3023
 5193TIP3    H137070   2.444   6.489   3.656 -0.6034  0.4487  0.4681
 5193TIP3    H237071   2.312   6.465   3.727 -1.4309 -2.1257 -1.7739
 5194TIP3   OH237072   2.282   3.802  16.140 -0.0659  0.6384 -0.2822
 5194TIP3    H137073   2.320   3.889  16.147  0.5457  0.2786  1.1004
 5194TIP3    H237074   2.227   3.793  16.217  0.0017 -0.2588 -0.3224
 5195TIP3   OH237075   2.220   6.177  15.624 -0.8596  0.1101 -0.0647
 5195TIP3    H137076   2.295   6.118  15.624 -0.6709  0.3355 -0.9846
 5195TIP3    H237077   2.217   6.212  15.713  0.3956  0.4393 -0.1296
 5196TIP3   OH237078   1.607   2.554  13.950  0.3020 -0.5972 -0.5842
 5196TIP3    H137079   1.614   2.466  13.986  0.2844  0.0451  1.1094
 5196TIP3    H237080   1.582   2.608  14.025  0.9781  0.9541 -1.4337
 5197TIP3   OH237081   1.569   4.582   2.518  0.0463 -0.0660 -0.3217
 5197TIP3    H137082   1.591   4.591   2.610  1.0952  0.5555 -0.6223
 5197TIP3    H237083   1.511   4.655   2.499 -0.9494 -0.7314  0.0543
 5198TIP3   OH237084   6.214   4.553   4.863 -0.2592  0.2090  0.3417
 5198TIP3    H137085   6.166   4.618   4.811  0.4441  0.3945 -0.0918
 5198TIP3    H237086   6.300   4.548   4.821  0.0299 -0.2743  0.9770
 5199TIP3   OH237087   3.426   4.276  14.601  0.0890 -0.5602 -0.3248
 5199TIP3    H137088   3.331   4.289  14.595 -0.2519 -0.1333  3.4886
 5199TIP3    H237089   3.462   4.363  14.614  0.5900 -0.9865  1.4013
 5200TIP3   OH237090   2.959   2.993   3.894  0.0173 -0.3492  0.0694
 5200TIP3    H137091   2.870   3.019   3.871 -0.8155 -2.1732  1.0148
 5200TIP3    H237092   2.971   2.908   3.852  1.5161  0.0682 -0.4269
 5201TIP3   OH237093   1.575   6.589   1.494  0.9488  0.0861 -0.1524
 5201TIP3    H137094   1.644   6.623   1.437  0.7104 -0.1151 -0.5648
 5201TIP3    H237095   1.494   6.604   1.445  0.8983 -1.7966 -0.7124
 5202TIP3   OH237096   2.683   6.733   4.385  0.1707 -0.0410 -0.1363
 5202TIP3    H137097   2.777   6.726   4.400  0.5418  0.8664 -1.7412
 5202TIP3    H237098   2.644   6.733   4.472  1.7248  0.4044  0.5900
 5203TIP3   OH237099   0.191   4.014   0.450 -0.2267  0.7763  0.3626
 5203TIP3    H137100   0.185   3.982   0.540  0.7474  0.0998  0.1986
 5203TIP3    H237101   0.271   4.067   0.449  0.5555 -0.3803 -0.4370
 5204TIP3   OH237102   1.692   5.936   4.884 -0.4055  0.0972 -0.2796
 5204TIP3    H137103   1.725   5.971   4.966 -1.6108 -1.0856  0.7538
 5204TIP3    H237104   1.625   5.998   4.855  0.3912  0.7928 -0.6745
 5205TIP3   OH237105   4.933   2.534   1.164  0.4300  0.6843 -0.3787
 5205TIP3    H137106   4.981   2.455   1.190 -0.7705 -0.2599 -0.9076
 5205TIP3    H237107   4.986   2.572   1.094  2.7648  2.2679  2.0628
 5206TIP3   OH237108   0.742   4.148  12.751  0.3553  0.2913  0.0534
 5206TIP3    H137109   0.695   4.085  12.805 -0.5395 -0.8311 -1.9249
 5206TIP3    H237110   0.825   4.105  12.730 -0.4551 -0.5141 -1.6985
 5207TIP3   OH237111   0.696   4.595  16.659  0.2895 -0.7092  0.0905
 5207TIP3    H137112   0.634   4.633  16.597  2.6634 -0.4424 -2.3206
 5207TIP3    H237113   0.759   4.548  16.604  1.8521 -1.5512  2.4285
 5208TIP3   OH237114   0.212   4.300   2.863 -0.6913  0.4890 -0.0334
 5208TIP3    H137115   0.240   4.231   2.924  1.5295  1.1761 -0.1705
 5208TIP3    H237116   0.286   4.311   2.804 -1.5111  2.0952 -0.8308
 5209TIP3   OH237117   0.702   3.723  13.905 -0.2305 -0.1933  0.3902
 5209TIP3    H137118   0.639   3.793  13.921 -1.1393 -0.7160 -0.7919
 5209TIP3    H237119   0.669   3.677  13.828  0.8064 -1.4054  0.6275
 5210TIP3   OH237120   3.817   1.330  15.401 -0.5248 -0.8998  0.3012
 5210TIP3    H137121   3.853   1.418  15.402 -1.5043 -0.4806  1.8322
 5210TIP3    H237122   3.837   1.297  15.314  0.4160  0.5907 -0.0835
 5211TIP3   OH237123   3.404   3.428   3.374  0.4965  0.1135  0.2722
 5211TIP3    H137124   3.396   3.507   3.427  1.8386  1.5461 -1.5283
 5211TIP3    H237125   3.364   3.450   3.290  0.4884 -1.2946 -0.1289
 5212TIP3   OH237126   5.645   5.563   3.477 -0.4054  0.5223  0.0529
 5212TIP3    H137127   5.697   5.491   3.513 -0.9862  0.5242  0.9009
 5212TIP3    H237128   5.702   5.602   3.411  0.1819 -0.2793  0.0669
 5213TIP3   OH237129   4.205   2.932  14.643 -0.1083 -0.6593  0.0087
 5213TIP3    H137130   4.150   2.861  14.675 -1.1612  1.1033  2.3769
 5213TIP3    H237131   4.293   2.913  14.676 -0.4162 -0.7947  0.7537
 5214TIP3   OH237132   4.060   4.229  13.150  0.4415 -0.2108  0.7135
 5214TIP3    H137133   3.991   4.234  13.216 -0.9959  0.6126 -0.7718
 5214TIP3    H237134   4.080   4.320  13.128  1.0843 -0.4612  0.1972
 5215TIP3   OH237135   0.317   3.131  17.241  0.0689 -0.1094 -0.0568
 5215TIP3    H137136   0.275   3.141  17.156  2.0474  2.2921 -0.8906
 5215TIP3    H237137   0.405   3.167  17.228  0.7475 -0.5163  2.7857
 5216TIP3   OH237138   5.961   0.315   5.600  0.1014  0.1822  0.0878
 5216TIP3    H137139   6.010   0.286   5.677 -0.0574  2.3458  1.0871
 5216TIP3    H237140   5.918   0.396   5.628 -3.3745 -1.1090 -1.0191
 5217TIP3   OH237141   6.296   3.126   2.606 -0.0452  0.5966 -0.1429
 5217TIP3    H137142   6.372   3.165   2.648 -0.1683  0.8177 -0.1292
 5217TIP3    H237143   6.223   3.143   2.665 -0.1523  0.5965 -0.2740
 5218TIP3   OH237144   1.585   2.101  12.337 -0.5835 -0.6708 -0.0146
 5218TIP3    H137145   1.580   2.178  12.394  0.3719 -0.3661 -0.3268
 5218TIP3    H237146   1.532   2.125  12.261  1.7968  0.7940 -1.3386
 5219TIP3   OH237147   1.363   2.790   5.436 -0.0118 -0.2223  0.3719
 5219TIP3    H137148   1.408   2.830   5.362 -0.3778 -1.4939 -0.5695
 5219TIP3    H237149   1.317   2.863   5.478  3.2139  1.2571  1.7126
 5220TIP3   OH237150   5.505   0.431  14.308  0.5119  0.4536 -0.5137
 5220TIP3    H137151   5.516   0.378  14.229 -0.7904 -1.5780  0.5681
 5220TIP3    H237152   5.576   0.403  14.366 -0.6159 -0.7594  0.3481
 5221TIP3   OH237153   4.323   0.894   2.447 -0.1891  0.6087  0.0066
 5221TIP3    H137154   4.259   0.905   2.377 -0.0276  0.1596 -0.2160
 5221TIP3    H237155   4.311   0.971   2.503  0.1011  1.2684 -0.8378
 5222TIP3   OH237156   2.110   0.865  13.517 -0.9746  0.0558 -0.6057
 5222TIP3    H137157   2.164   0.930  13.473 -0.5441  1.2551  1.6083
 5222TIP3    H237158   2.172   0.803  13.554 -1.2120  0.2670  0.1537
 5223TIP3   OH237159   1.889   6.025  16.996  0.5869  0.2598  0.2216
 5223TIP3    H137160   1.815   5.981  16.953 -0.1860  1.5912  0.1015
 5223TIP3    H237161   1.965   6.004  16.942  0.0076  0.1280 -0.5536
 5224TIP3   OH237162   0.440   3.987   1.680 -0.0598 -0.2883 -0.1590
 5224TIP3    H137163   0.493   3.922   1.635 -1.1689 -0.2792 -1.5461
 5224TIP3    H237164   0.372   4.011   1.617  0.1610  2.0315  0.3716
 5225TIP3   OH237165   3.713   3.513  14.774 -0.3385 -0.2803  0.2479
 5225TIP3    H137166   3.806   3.489  14.775 -0.5925 -1.2873  1.4425
 5225TIP3    H237167   3.710   3.601  14.812  0.1886  0.0589 -0.4732
 5226TIP3   OH237168   5.106   0.063   3.329  0.0758  0.4154  0.0559
 5226TIP3    H137169   5.193   0.099   3.312  0.1249  0.7646  0.9710
 5226TIP3    H237170   5.089   0.005   3.255  1.2614  0.0161  0.0716
 5227TIP3   OH237171   3.937   1.023   1.766  0.0478 -0.2203  0.4473
 5227TIP3    H137172   3.933   0.927   1.763  0.1715 -0.2729  1.4534
 5227TIP3    H237173   3.917   1.051   1.677  2.1390 -1.2605 -0.4344
 5228TIP3   OH237174   5.570   4.311  12.483  0.3051 -0.1688  0.7382
 5228TIP3    H137175   5.663   4.290  12.478 -0.0094 -2.1332  1.8295
 5228TIP3    H237176   5.526   4.225  12.488 -1.3888  0.7039  2.3367
 5229TIP3   OH237177   1.769   3.673  16.422 -0.0108  0.4602 -0.5795
 5229TIP3    H137178   1.765   3.580  16.445  3.4414  0.3940  0.1746
 5229TIP3    H237179   1.783   3.674  16.327 -0.8862  0.3048 -0.7269
 5230TIP3   OH237180   3.663   0.549  11.743  0.1975  0.8583  0.3318
 5230TIP3    H137181   3.700   0.488  11.807 -1.5196  1.6367  2.1693
 5230TIP3    H237182   3.594   0.499  11.699  1.6099  0.2139 -1.2297
 5231TIP3   OH237183   0.873   0.775   4.332 -0.7204 -0.0984  0.0488
 5231TIP3    H137184   0.897   0.808   4.419 -0.5233  2.4219 -0.8829
 5231TIP3    H237185   0.897   0.682   4.334  1.5008  0.4259  1.9059
 5232TIP3   OH237186   1.004   2.575   1.337 -0.1580 -0.0109 -0.3650
 5232TIP3    H137187   0.921   2.620   1.355  0.4282  0.5736  0.9805
 5232TIP3    H237188   0.985   2.483   1.354 -0.9231 -0.0948 -1.5504
 5233TIP3   OH237189   0.217   0.281  15.843 -0.4252 -0.0686 -0.1899
 5233TIP3    H137190   0.255   0.361  15.807  1.3175 -1.4096 -1.4824
 5233TIP3    H237191   0.291   0.223  15.859 -1.6155 -1.3885  0.8980
 5234TIP3   OH237192   5.393   1.507   1.028  0.4173 -0.4461  0.3783
 5234TIP3    H137193   5.481   1.483   1.059 -0.3724 -2.3713  1.2671
 5234TIP3    H237194   5.391   1.602   1.036  3.1434 -0.0841 -1.6803
 5235TIP3   OH237195   4.282   4.857  12.359  0.1303 -0.0869 -0.5557
 5235TIP3    H137196   4.191   4.870  12.384  0.1666 -0.9734  0.1017
 5235TIP3    H237197   4.278   4.810  12.276 -0.0119 -0.0512 -0.5690
 5236TIP3   OH237198   6.095   1.222   5.566  0.6554  0.0393  0.3526
 5236TIP3    H137199   6.149   1.225   5.487 -0.0889  2.3974 -0.1524
 5236TIP3    H237200   6.149   1.261   5.634  0.5082  0.0513  0.4634
 5237TIP3   OH237201   2.063   2.868  14.084 -0.9916  0.0937 -0.2469
 5237TIP3    H137202   1.968   2.868  14.070 -1.0183 -2.7950 -0.5830
 5237TIP3    H237203   2.076   2.808  14.157  0.4554  2.3831  1.5092
 5238TIP3   OH237204   3.950   4.279   0.599  0.6985  0.5415 -0.6183
 5238TIP3    H137205   4.040   4.306   0.617  0.6032  0.7650 -0.4669
 5238TIP3    H237206   3.921   4.337   0.528  0.6841  0.4471 -0.6909
 5239TIP3   OH237207   6.083   1.984   1.027  0.0086  0.4700  0.3717
 5239TIP3    H137208   6.141   1.981   0.952 -0.2374  1.2262  0.1455
 5239TIP3    H237209   6.088   2.074   1.058 -2.4471  1.0911 -0.7889
 5240TIP3   OH237210   6.232   0.733  10.575 -0.2808 -0.0858 -0.7398
 5240TIP3    H137211   6.245   0.758  10.484  0.1138 -0.9570 -0.9321
 5240TIP3    H237212   6.202   0.642  10.571 -0.9148  0.0737 -0.0292
 5241TIP3   OH237213   1.224   4.966   3.666  0.2724 -0.3002  0.1938
 5241TIP3    H137214   1.308   4.923   3.682  1.0857 -0.2432 -3.0898
 5241TIP3    H237215   1.245   5.060   3.663  0.1450 -0.2866 -0.6522
 5242TIP3   OH237216   0.876   5.801   3.781 -0.1907  0.0707  0.0482
 5242TIP3    H137217   0.924   5.870   3.827  0.2086 -0.7078  0.8439
 5242TIP3    H237218   0.827   5.846   3.713  0.8031  1.0253 -0.0622
 5243TIP3   OH237219   4.530   1.393  13.619  0.4680 -1.0653 -0.0324
 5243TIP3    H137220   4.559   1.484  13.616  1.2107 -1.3389 -1.6904
 5243TIP3    H237221   4.610   1.342  13.627  0.1085 -1.6244  0.0594
 5244TIP3   OH237222   5.440   4.386   0.823 -0.4968  0.0914 -0.2804
 5244TIP3    H137223   5.481   4.397   0.737  1.3452  1.1152  0.6645
 5244TIP3    H237224   5.404   4.472   0.843  1.7615  0.7674  1.2204
 5245TIP3   OH237225   5.119   4.880   5.785  0.4653  0.2167 -0.8981
 5245TIP3    H137226   5.108   4.791   5.751 -0.3485  0.0819 -0.3145
 5245TIP3    H237227   5.048   4.930   5.745  0.5092  0.4410 -0.6970
 5246TIP3   OH237228   0.757   5.783  14.260  0.4472 -0.4192  0.1852
 5246TIP3    H137229   0.713   5.824  14.186  0.4113 -0.4581  0.1847
 5246TIP3    H237230   0.801   5.855  14.306 -0.6059 -0.1916  0.8728
 5247TIP3   OH237231   4.431   5.354  12.691  0.2427 -0.1659  0.1839
 5247TIP3    H137232   4.420   5.401  12.609  0.1713 -0.0243  0.2736
 5247TIP3    H237233   4.506   5.396  12.733  0.1363 -0.0822  0.2952
 5248TIP3   OH237234   1.319   1.139   3.919  0.0440  0.5603 -0.1234
 5248TIP3    H137235   1.282   1.058   3.884  0.7507  0.5596 -0.9220
 5248TIP3    H237236   1.414   1.128   3.908  0.2557  0.8183  1.2794
 5249TIP3   OH237237   6.801   4.750   5.665 -0.5360 -0.0758  0.2249
 5249TIP3    H137238   6.846   4.744   5.749  1.0905 -0.6146 -0.6259
 5249TIP3    H237239   6.757   4.835   5.666  0.2860  0.3531  1.2277
 5250TIP3   OH237240   0.565   6.795   0.167  0.5543  0.1278 -0.3085
 5250TIP3    H137241   0.482   6.787   0.119 -0.3604  0.6048  1.1189
 5250TIP3    H237242   0.541   6.782   0.259  1.5444  3.1759  0.4868
 5251TIP3   OH237243   3.856   4.462   2.886 -0.5918  0.3039 -0.6269
 5251TIP3    H137244   3.863   4.366   2.880  1.0627  0.5202 -3.4844
 5251TIP3    H237245   3.809   4.488   2.807  0.0171  1.9445 -0.4820
 5252TIP3   OH237246   0.856   1.135   3.182  0.6914 -0.4602  0.0896
 5252TIP3    H137247   0.843   1.079   3.106  1.0172 -0.2356 -0.1357
 5252TIP3    H237248   0.948   1.124   3.205  0.9832  0.5967 -0.4657
 5253TIP3   OH237249   3.254   2.560   5.693 -0.0596 -0.1377 -0.2053
 5253TIP3    H137250   3.223   2.640   5.735 -0.2950 -1.2095  1.8094
 5253TIP3    H237251   3.349   2.566   5.695  0.0135 -0.9398  2.2662
 5254TIP3   OH237252   2.553   1.980  14.679  0.7716 -0.0725 -0.2275
 5254TIP3    H137253   2.546   1.974  14.583 -0.5542 -0.4389 -0.1338
 5254TIP3    H237254   2.605   2.058  14.695  1.4037 -0.2656 -1.2612
 5255TIP3   OH237255   2.991   0.458   2.484 -0.5008  0.5059 -0.3039
 5255TIP3    H137256   3.030   0.542   2.458 -1.0031  0.6987 -0.4297
 5255TIP3    H237257   2.962   0.473   2.574 -2.4568  1.1269 -1.0017
 5256TIP3   OH237258   1.414   0.261   2.683  0.1945 -0.5015  0.0703
 5256TIP3    H137259   1.483   0.208   2.643  0.3387 -0.1469 -0.1529
 5256TIP3    H237260   1.375   0.309   2.610  0.6494  0.3680  0.3928
 5257TIP3   OH237261   3.384   5.116   5.962  0.1667  0.0945  0.2273
 5257TIP3    H137262   3.294   5.117   5.996  0.3675  1.3604  0.7869
 5257TIP3    H237263   3.383   5.180   5.891  0.6000  0.0321  0.1633
 5258TIP3   OH237264   5.936   6.805  11.429  0.5715 -0.0792 -0.2558
 5258TIP3    H137265   5.902   6.894  11.438 -1.2317 -0.4343 -2.3931
 5258TIP3    H237266   5.943   6.792  11.334  1.7799 -1.8813  0.0290
 5259TIP3   OH237267   3.717   2.120   5.461 -0.2025 -0.1347  0.0025
 5259TIP3    H137268   3.718   2.069   5.542 -2.1219  0.0641  0.1962
 5259TIP3    H237269   3.634   2.168   5.464  1.3945  2.8698 -0.2628
 5260TIP3   OH237270   1.170   2.314  13.277 -0.0118  0.5554  0.0388
 5260TIP3    H137271   1.203   2.351  13.359  2.6651 -0.2298 -0.5919
 5260TIP3    H237272   1.203   2.374  13.209  1.1890 -0.8873 -0.7067
 5261TIP3   OH237273   5.440   5.717  11.500  0.1065 -0.2285 -0.6180
 5261TIP3    H137274   5.418   5.687  11.588  0.0961  0.0994 -0.5068
 5261TIP3    H237275   5.509   5.782  11.514 -1.8392  1.9478 -0.5862
 5262TIP3   OH237276   2.359   0.593  16.837 -0.1665  0.3486 -0.0421
 5262TIP3    H137277   2.302   0.528  16.878  1.5389 -1.2964 -0.1417
 5262TIP3    H237278   2.320   0.607  16.751 -0.6178 -0.5049  0.0101
 5263TIP3   OH237279   2.243   2.965  14.439 -0.3911 -0.2089  0.0253
 5263TIP3    H137280   2.298   3.017  14.497  0.3620 -0.4621 -0.4498
 5263TIP3    H237281   2.156   2.967  14.479 -0.6490  2.2914 -0.5307
 5264TIP3   OH237282   3.474   2.129   0.016 -0.3981 -0.2469  0.0312
 5264TIP3    H137283   3.528   2.205   0.036  0.9307 -1.0449 -0.3756
 5264TIP3    H237284   3.426   2.155  -0.063  0.6567 -0.0974 -0.5860
 5265TIP3   OH237285   5.047   4.504  12.941  0.1825 -0.0328 -0.0924
 5265TIP3    H137286   5.020   4.443  13.010 -0.3445 -0.4534 -0.6669
 5265TIP3    H237287   5.009   4.469  12.861  0.4764  0.6603 -0.5465
 5266TIP3   OH237288   1.858   0.651  10.377  0.0389 -0.7092  0.2770
 5266TIP3    H137289   1.835   0.743  10.375  1.1119 -0.4308  0.0622
 5266TIP3    H237290   1.775   0.605  10.387 -0.6947  0.1980 -1.3151
 5267TIP3   OH237291   3.626   6.422  13.718  0.2846  0.1519  0.1969
 5267TIP3    H137292   3.644   6.504  13.672 -0.0562  0.0424 -0.1419
 5267TIP3    H237293   3.534   6.403  13.696  0.7148 -0.9389 -0.7180
 5268TIP3   OH237294   1.828   5.035   0.469  0.3330  0.1498  0.1284
 5268TIP3    H137295   1.822   4.942   0.494 -2.7689 -0.2676 -1.6880
 5268TIP3    H237296   1.856   5.033   0.377 -1.4918  0.8724 -0.4721
 5269TIP3   OH237297   1.007   4.679  15.940 -0.0812 -0.1592 -0.0253
 5269TIP3    H137298   1.051   4.598  15.964 -0.9953 -0.0617  2.3298
 5269TIP3    H237299   0.914   4.655  15.932 -0.1847  0.4046 -0.6212
 5270TIP3   OH237300   4.247   6.411   3.433 -0.3490 -0.1563  0.6413
 5270TIP3    H137301   4.291   6.478   3.485 -1.6039 -0.2409  1.9034
 5270TIP3    H237302   4.154   6.433   3.439 -0.5298  0.3297 -2.3614
 5271TIP3   OH237303   1.434   5.446  11.400  0.1316  0.5682 -0.2674
 5271TIP3    H137304   1.361   5.397  11.438  2.0302 -2.3053 -0.0127
 5271TIP3    H237305   1.392   5.519  11.354 -2.7980 -0.4267  0.5610
 5272TIP3   OH237306   3.111   1.077  16.678  0.3558 -0.0478 -0.2201
 5272TIP3    H137307   3.126   1.037  16.764  0.7979 -0.5419 -0.5180
 5272TIP3    H237308   3.124   1.005  16.616 -1.8814 -0.2124 -0.6097
 5273TIP3   OH237309   3.762   1.066  14.230 -0.1400 -0.4178  0.3075
 5273TIP3    H137310   3.670   1.084  14.249 -0.1645 -1.6676  1.4701
 5273TIP3    H237311   3.794   1.148  14.190 -2.1235 -0.4970 -1.6725
 5274TIP3   OH237312   1.012   4.414  12.520  0.1303  0.4928 -0.0601
 5274TIP3    H137313   1.053   4.491  12.482  1.7520  0.7429  2.0243
 5274TIP3    H237314   0.937   4.396  12.464  2.3516  0.7564 -3.3969
 5275TIP3   OH237315   3.855   0.504  12.371  0.3738 -0.1511 -0.3377
 5275TIP3    H137316   3.881   0.540  12.456 -0.9903 -0.2587  0.1573
 5275TIP3    H237317   3.859   0.409  12.383  1.3006 -0.1691 -0.7663
 5276TIP3   OH237318   2.182   5.753  13.272  0.7493  0.9351  0.1789
 5276TIP3    H137319   2.201   5.722  13.183  0.1269  0.6800  0.1353
 5276TIP3    H237320   2.186   5.848  13.265  0.3561  0.9257 -0.2024
 5277TIP3   OH237321   1.729   4.577   2.742 -0.1576  0.0442  0.1304
 5277TIP3    H137322   1.729   4.482   2.751  0.4534 -0.1824 -1.7002
 5277TIP3    H237323   1.748   4.610   2.830 -0.0197 -1.5321  0.7226
 5278TIP3   OH237324   5.556   0.491   3.525  0.0715 -0.1747  0.0750
 5278TIP3    H137325   5.563   0.559   3.592  0.2911  0.0781 -0.2011
 5278TIP3    H237326   5.532   0.412   3.574  0.6114 -0.0839  0.5093
 5279TIP3   OH237327   6.289   3.289  16.993  0.4406  0.5274 -0.2065
 5279TIP3    H137328   6.216   3.275  17.053  1.8640 -0.7567  1.3116
 5279TIP3    H237329   6.266   3.238  16.915  1.0317 -2.4316  1.4409
 5280TIP3   OH237330   0.161   5.961  11.189 -0.2349  0.3191 -0.2802
 5280TIP3    H137331   0.156   6.051  11.221 -0.7599  0.6280 -1.2105
 5280TIP3    H237332   0.129   5.965  11.099  0.4206 -0.6802 -0.5736
 5281TIP3   OH237333   5.882   0.401   1.057  0.4664  0.0629 -0.9366
 5281TIP3    H137334   5.901   0.403   1.151  0.7840  1.6702 -0.9993
 5281TIP3    H237335   5.967   0.415   1.016  0.2785 -0.3345 -1.4681
 5282TIP3   OH237336   1.746   3.282   2.502  0.6218 -0.4513  0.3719
 5282TIP3    H137337   1.739   3.377   2.494 -1.7883 -0.4663  1.4540
 5282TIP3    H237338   1.729   3.249   2.414  1.3883  0.0896  0.0081
 5283TIP3   OH237339   3.642   3.221  17.107  0.3044 -0.4990  0.4798
 5283TIP3    H137340   3.699   3.298  17.107  0.1194 -0.2952  2.7514
 5283TIP3    H237341   3.572   3.242  17.169 -0.1028 -2.2476  0.6750
 5284TIP3   OH237342   6.552   2.106   1.043 -0.3999 -0.1924 -0.3196
 5284TIP3    H137343   6.525   2.172   0.979  0.6255  0.5643  0.0154
 5284TIP3    H237344   6.591   2.036   0.990 -0.5359 -0.0600 -0.5956
 5285TIP3   OH237345   0.811   3.957   0.517  0.3772 -0.1760  0.1596
 5285TIP3    H137346   0.858   3.875   0.506 -1.0123 -0.7619 -2.2327
 5285TIP3    H237347   0.861   4.020   0.465  0.4108  0.0182  0.4305
 5286TIP3   OH237348   0.663   0.363  14.981  0.1645 -0.1250 -0.0082
 5286TIP3    H137349   0.606   0.293  14.948  0.8881 -1.9805  2.3817
 5286TIP3    H237350   0.610   0.409  15.046  0.5067 -0.1383  0.2859
 5287TIP3   OH237351   2.050   1.798  13.532  0.4919  0.2956  0.0763
 5287TIP3    H137352   2.040   1.800  13.436  0.4954  0.9026  0.0879
 5287TIP3    H237353   2.078   1.708  13.550  0.3572  0.1317 -0.4788
 5288TIP3   OH237354   2.939   4.996  15.051  0.0763 -0.3903  0.5204
 5288TIP3    H137355   2.992   5.073  15.034  0.7987 -0.6773  1.3748
 5288TIP3    H237356   2.999   4.934  15.092 -0.4716 -1.4444 -0.2201
 5289TIP3   OH237357   0.543   4.556  14.187  0.0048 -0.1416  0.2082
 5289TIP3    H137358   0.599   4.536  14.262  0.6383 -2.0019 -0.6849
 5289TIP3    H237359   0.462   4.509  14.205  0.4884 -1.3531 -0.6436
 5290TIP3   OH237360   3.978   4.306   5.565 -0.0086 -0.1351  0.0008
 5290TIP3    H137361   3.978   4.388   5.516 -0.1779 -0.4894 -0.6141
 5290TIP3    H237362   3.887   4.295   5.593  0.4294  0.9772  1.9961
 5291TIP3   OH237363   3.340   6.437   3.533  0.5474  0.4493 -0.2186
 5291TIP3    H137364   3.295   6.381   3.470  1.0040 -0.9134  0.6200
 5291TIP3    H237365   3.360   6.517   3.484  1.1119 -0.6521 -1.8826
 5292TIP3   OH237366   5.084   0.329   6.065 -0.1896  0.3583  0.1281
 5292TIP3    H137367   5.061   0.420   6.082  1.2754  0.7996 -0.1551
 5292TIP3    H237368   5.021   0.278   6.116  0.3833  1.5538  2.1064
 5293TIP3   OH237369   1.369   0.176  10.530 -0.2529  0.1182 -0.2696
 5293TIP3    H137370   1.338   0.247  10.587  1.6536  0.9740 -0.2116
 5293TIP3    H237371   1.395   0.106  10.590 -0.0485  0.2567 -0.1962
 5294TIP3   OH237372   6.481   2.061   2.281 -0.0159 -0.3334  0.4112
 5294TIP3    H137373   6.396   2.022   2.300 -0.0393 -1.3842 -1.5498
 5294TIP3    H237374   6.515   2.089   2.366 -2.2180 -0.0687  1.2611
 5295TIP3   OH237375   5.032   5.357  14.935 -0.0541  0.1055  0.6429
 5295TIP3    H137376   4.956   5.413  14.923  0.6468  0.6991 -1.3573
 5295TIP3    H237377   4.997   5.275  14.968 -1.6430  0.1582 -0.8009
 5296TIP3   OH237378   5.860   6.397   5.472  0.8163  0.2647  0.0303
 5296TIP3    H137379   5.779   6.446   5.458  0.7404  0.3725  0.8140
 5296TIP3    H237380   5.925   6.442   5.418  0.1117 -0.5178 -1.5353
 5297TIP3   OH237381   2.174   1.198  12.436  0.0994 -0.0196 -0.7627
 5297TIP3    H137382   2.238   1.267  12.420 -1.0418  1.0516 -0.9127
 5297TIP3    H237383   2.111   1.206  12.364 -1.2731  0.2668  0.4093
 5298TIP3   OH237384   6.039   1.901   3.944  0.0884  0.2080  0.2338
 5298TIP3    H137385   5.984   1.892   4.022 -0.0444 -1.2521 -0.0126
 5298TIP3    H237386   6.117   1.850   3.964 -1.1167 -2.5551 -1.6294
 5299TIP3   OH237387   2.781   6.797  12.373  0.3472  0.6425 -0.0273
 5299TIP3    H137388   2.844   6.791  12.445 -1.5539 -0.2550  1.6705
 5299TIP3    H237389   2.721   6.867  12.399  0.2014  0.9969 -1.2477
 5300TIP3   OH237390   6.591   3.255   2.569  0.1000  0.8682  0.3234
 5300TIP3    H137391   6.681   3.285   2.579  0.3555  0.4332 -0.5796
 5300TIP3    H237392   6.599   3.164   2.541 -0.5659  1.2235 -1.1581
 5301TIP3   OH237393   5.118   2.892  11.246 -0.0231 -0.6368 -0.3333
 5301TIP3    H137394   5.114   2.799  11.264 -0.4141 -0.4776  0.4314
 5301TIP3    H237395   5.046   2.908  11.185 -2.8899 -0.1295  2.8703
 5302TIP3   OH237396   3.960   5.935   0.047 -0.2695 -0.4041 -0.6673
 5302TIP3    H137397   3.929   5.926   0.137 -1.4482  1.2581 -0.8561
 5302TIP3    H237398   3.898   5.995   0.006  1.4059  0.5350 -1.9937
 5303TIP3   OH237399   5.958   5.544  14.431  0.0497  0.0915  0.2353
 5303TIP3    H137400   5.877   5.497  14.408 -0.4513  1.4175 -0.8698
 5303TIP3    H237401   6.028   5.489  14.397 -0.5505  0.3924 -1.6009
 5304TIP3   OH237402   2.534   0.978  15.790 -0.0029  0.1972  0.3584
 5304TIP3    H137403   2.555   0.890  15.821 -2.9098 -0.5810  0.3677
 5304TIP3    H237404   2.473   1.012  15.855 -2.0127  0.6171 -1.6464
 5305TIP3   OH237405   2.358   4.539   1.918 -0.1914 -0.1901  0.3627
 5305TIP3    H137406   2.313   4.622   1.929  2.5715  1.7080 -1.5351
 5305TIP3    H237407   2.289   4.478   1.888 -1.9977  1.7207  0.4140
 5306TIP3   OH237408   4.476   0.385  14.426  0.3679 -0.5685 -0.3248
 5306TIP3    H137409   4.458   0.369  14.519  1.1451  0.2104 -0.0327
 5306TIP3    H237410   4.402   0.344  14.381 -0.1284 -0.7809  0.6427
 5307TIP3   OH237411   1.778   5.923  12.905 -0.0228  0.5546 -0.1130
 5307TIP3    H137412   1.744   5.987  12.967 -3.6382 -2.7116  1.7008
 5307TIP3    H237413   1.707   5.909  12.843  0.5825 -1.7140 -0.3792
 5308TIP3   OH237414   1.646   4.318  15.325  0.2151  0.0678  0.4718
 5308TIP3    H137415   1.640   4.353  15.236 -2.7570  0.7697  0.8538
 5308TIP3    H237416   1.709   4.375  15.369  1.9620 -0.4717 -1.1865
 5309TIP3   OH237417   2.468   4.190   5.583  0.7276  0.1960 -0.1871
 5309TIP3    H137418   2.412   4.267   5.578  0.0549 -0.3346 -1.1827
 5309TIP3    H237419   2.483   4.178   5.677  1.1937  1.7589 -0.0363
 5310TIP3   OH237420   4.942   4.683  16.476  0.2573 -0.6381 -0.0519
 5310TIP3    H137421   4.881   4.737  16.526  0.4358  1.7704 -2.2124
 5310TIP3    H237422   5.028   4.718  16.498  0.6114 -1.7369  0.3789
 5311TIP3   OH237423   6.446   0.428  14.693 -0.0321 -0.0354 -0.2160
 5311TIP3    H137424   6.443   0.491  14.765 -1.1273  0.2501 -0.5011
 5311TIP3    H237425   6.537   0.431  14.663  0.1225  0.8158  0.2945
 5312TIP3   OH237426   6.738   6.241  15.887 -0.0403  0.7653  0.1929
 5312TIP3    H137427   6.706   6.329  15.907 -0.2452  0.9881 -1.0750
 5312TIP3    H237428   6.693   6.216  15.806  0.5938 -0.1974  0.1180
 5313TIP3   OH237429   0.899   3.993  15.505 -0.0402 -0.5573  0.1395
 5313TIP3    H137430   0.876   4.073  15.458 -1.6977 -0.8507  0.3990
 5313TIP3    H237431   0.816   3.946  15.515  1.0566 -2.9673 -1.1756
 5314TIP3   OH237432   1.463   5.412   3.905  0.3017  0.0424  0.2175
 5314TIP3    H137433   1.409   5.334   3.894  1.5072 -0.8183  0.1214
 5314TIP3    H237434   1.553   5.379   3.899  0.8382  1.3891  0.5606
 5315TIP3   OH237435   5.613   0.232   1.125 -0.1094  0.2354  0.1836
 5315TIP3    H137436   5.551   0.160   1.138  0.6501 -0.8951 -2.0393
 5315TIP3    H237437   5.695   0.200   1.162 -0.0371  0.4077  0.1723
 5316TIP3   OH237438   1.178   0.763  12.696  0.0806 -0.2489  0.4014
 5316TIP3    H137439   1.215   0.712  12.768  0.9160 -3.4300 -2.0571
 5316TIP3    H237440   1.086   0.737  12.693 -0.1861  0.6101  0.8623
 5317TIP3   OH237441   5.396   6.251  16.620 -0.0092  0.3244 -0.5027
 5317TIP3    H137442   5.377   6.228  16.530 -0.8129  1.0273 -0.5308
 5317TIP3    H237443   5.491   6.244  16.628  0.0275 -0.1384 -1.2794
 5318TIP3   OH237444   4.681   4.103   2.010 -0.2624 -0.5973  0.2721
 5318TIP3    H137445   4.672   4.008   2.001 -1.7279 -0.3576 -1.3725
 5318TIP3    H237446   4.606   4.129   2.064 -1.3930 -0.1378 -1.4398
 5319TIP3   OH237447   6.416   3.532  13.802 -0.5315  0.1571  0.5581
 5319TIP3    H137448   6.362   3.501  13.875 -1.7876 -1.1315 -0.8310
 5319TIP3    H237449   6.389   3.478  13.728  1.8308  0.3165 -0.5199
 5320TIP3   OH237450   5.277   1.539   1.359 -0.4103 -0.4538 -0.3234
 5320TIP3    H137451   5.244   1.454   1.387 -0.4965 -0.3785 -0.1938
 5320TIP3    H237452   5.212   1.602   1.391  1.0233 -0.0702  2.1115
 5321TIP3   OH237453   2.832   0.886  15.126 -1.2580 -0.5034 -0.1332
 5321TIP3    H137454   2.804   0.811  15.073 -1.3716  0.2236 -1.1319
 5321TIP3    H237455   2.780   0.960  15.094  0.5811  0.5308 -0.9103
 5322TIP3   OH237456   3.013   0.728  16.823 -0.1888  0.5006  0.1178
 5322TIP3    H137457   3.006   0.766  16.911 -0.8971 -2.8153  1.6369
 5322TIP3    H237458   3.082   0.661  16.832 -1.5836 -1.1993 -1.2827
 5323TIP3   OH237459   6.676   0.502   3.726 -0.2000 -0.3837 -0.1504
 5323TIP3    H137460   6.718   0.417   3.710  0.7468  0.2071 -0.8729
 5323TIP3    H237461   6.587   0.492   3.692 -0.5951 -1.5618  1.1406
 5324TIP3   OH237462   5.521   0.837  15.379  0.2503  0.1770 -1.2269
 5324TIP3    H137463   5.549   0.882  15.459  1.8262  1.0285 -2.2034
 5324TIP3    H237464   5.525   0.744  15.401  2.5060  0.2973 -0.7992
 5325TIP3   OH237465   0.099   1.272  14.550 -1.0559 -0.2875  0.3442
 5325TIP3    H137466   0.124   1.275  14.642  2.5051 -0.7000 -0.4757
 5325TIP3    H237467   0.048   1.192  14.542 -0.3789 -0.8982  1.7587
 5326TIP3   OH237468   1.103   3.249   2.838 -0.6376 -0.0895  0.1889
 5326TIP3    H137469   1.076   3.164   2.805  1.2442  0.1258 -2.1757
 5326TIP3    H237470   1.087   3.245   2.933 -2.3014 -2.3514 -0.1200
 5327TIP3   OH237471   3.166   6.354   0.565  0.0035  0.6702  0.3317
 5327TIP3    H137472   3.127   6.268   0.547  2.5272 -0.5648  0.3054
 5327TIP3    H237473   3.213   6.376   0.485  3.5172 -0.4028  1.8958
 5328TIP3   OH237474   0.422   3.668   4.841 -0.2471 -0.2666 -0.1783
 5328TIP3    H137475   0.388   3.750   4.804  0.1955  0.3353  0.7209
 5328TIP3    H237476   0.482   3.635   4.774  1.4013  1.3936  0.4006
 5329TIP3   OH237477   2.078   5.543  11.360  0.2768 -0.7066  0.0864
 5329TIP3    H137478   2.073   5.530  11.455  2.5665 -2.3811  0.0814
 5329TIP3    H237479   1.987   5.539  11.330 -0.3774 -2.1126  2.0161
 5330TIP3   OH237480   6.388   3.043   2.188 -0.6869  0.1057 -0.4188
 5330TIP3    H137481   6.478   3.063   2.214 -0.7952  3.0780 -1.8785
 5330TIP3    H237482   6.396   2.995   2.105 -0.4780 -1.8550  0.6870
 5331TIP3   OH237483   1.854   2.751  12.145 -0.3684  0.1706  0.0593
 5331TIP3    H137484   1.849   2.700  12.064 -2.1785 -0.2472  0.3812
 5331TIP3    H237485   1.909   2.826  12.124 -1.5264  0.5455 -1.8487
 5332TIP3   OH237486   4.906   6.535   0.037 -0.1615 -0.0649  0.5027
 5332TIP3    H137487   4.987   6.567  -0.003  0.2524  0.3798  1.6352
 5332TIP3    H237488   4.838   6.556  -0.026  0.5084  0.2775 -0.1271
 5333TIP3   OH237489   1.610   5.030   1.207  0.1769 -0.0379 -0.5188
 5333TIP3    H137490   1.585   5.026   1.300 -0.0897 -1.0924 -0.6245
 5333TIP3    H237491   1.615   4.938   1.179  0.9639  0.2451 -1.3675
 5334TIP3   OH237492   2.804   3.013  16.580 -0.4213  0.2448 -0.3877
 5334TIP3    H137493   2.793   2.938  16.522  1.3020  0.4371 -1.0128
 5334TIP3    H237494   2.814   3.087  16.521 -0.6642  0.7617  0.2128
 5335TIP3   OH237495   3.287   0.907  15.828 -0.2260 -0.5487 -0.0419
 5335TIP3    H137496   3.219   0.908  15.896  0.4552 -0.7567  0.6559
 5335TIP3    H237497   3.253   0.847  15.762 -0.7483 -0.6072  0.2710
 5336TIP3   OH237498   1.888   1.038   2.505 -0.0663  0.9919  0.1902
 5336TIP3    H137499   1.865   1.109   2.445 -1.1511  0.1423 -0.4334
 5336TIP3    H237500   1.899   0.962   2.448 -1.0509  0.1773  1.0639
 5337TIP3   OH237501   3.786   5.743   3.814  0.6101  0.8344 -0.1253
 5337TIP3    H137502   3.714   5.690   3.847  0.4964  0.7548 -0.4925
 5337TIP3    H237503   3.864   5.702   3.850  0.5328  0.3368 -0.5120
 5338TIP3   OH237504   4.683   4.819   5.989 -0.2728  0.4108  0.2253
 5338TIP3    H137505   4.607   4.851   6.039 -1.3432 -0.4863 -0.7787
 5338TIP3    H237506   4.717   4.747   6.042 -0.9262 -0.0314  0.0515
 5339TIP3   OH237507   2.554   6.452  15.294 -0.1725 -0.4755 -0.6212
 5339TIP3    H137508   2.501   6.412  15.363 -1.5457 -1.7628 -2.3078
 5339TIP3    H237509   2.506   6.531  15.270 -1.2138 -1.4573 -1.9086
 5340TIP3   OH237510   2.570   4.227  12.600  0.1600 -0.1945  0.3637
 5340TIP3    H137511   2.517   4.148  12.587 -0.7746  0.2148  1.5085
 5340TIP3    H237512   2.570   4.241  12.694  0.5360  1.0367  0.2011
 5341TIP3   OH237513   6.482   5.967   1.518  0.1846 -0.2041  0.2318
 5341TIP3    H137514   6.493   6.059   1.540  0.8660 -0.7612  2.5599
 5341TIP3    H237515   6.535   5.921   1.583  1.2589 -2.2062 -1.9080
 5342TIP3   OH237516   3.178   0.074  14.357 -0.2043 -0.2781  0.1655
 5342TIP3    H137517   3.236   0.063  14.433  0.0938  0.6551  0.0784
 5342TIP3    H237518   3.133   0.157  14.373  1.6857  1.2391 -1.8651
 5343TIP3   OH237519   5.207   1.374   4.356  0.6185 -0.3696 -0.9604
 5343TIP3    H137520   5.144   1.446   4.363  0.1518 -0.6431 -2.0667
 5343TIP3    H237521   5.261   1.382   4.434 -1.7672 -1.0897  0.9111
 5344TIP3   OH237522   4.197   6.126  11.359 -0.0194 -0.4576  0.5189
 5344TIP3    H137523   4.193   6.221  11.364 -1.9603 -0.4814  0.0233
 5344TIP3    H237524   4.114   6.096  11.396  0.8500 -2.0097  1.3484
 5345TIP3   OH237525   1.849   4.301  16.708 -0.3128 -0.2855 -0.5271
 5345TIP3    H137526   1.840   4.382  16.658 -0.7653 -0.5611 -0.9063
 5345TIP3    H237527   1.919   4.252  16.665 -0.1614 -0.1734 -0.4067
 5346TIP3   OH237528   2.420   2.462   1.824  0.0194 -0.5039 -0.3294
 5346TIP3    H137529   2.378   2.390   1.870 -2.4264  1.1217  0.1700
 5346TIP3    H237530   2.435   2.528   1.891  1.4666 -0.1870 -0.9253
 5347TIP3   OH237531   0.201   0.939   0.725 -0.2878  0.3370 -0.3222
 5347TIP3    H137532   0.188   1.032   0.710  1.6084  0.5436 -0.9497
 5347TIP3    H237533   0.274   0.915   0.668 -1.2611 -1.7290 -0.8072
 5348TIP3   OH237534   2.087   5.633  14.794  0.0053  0.4530 -0.2418
 5348TIP3    H137535   2.086   5.551  14.843 -4.6916  0.2418 -0.2313
 5348TIP3    H237536   2.144   5.616  14.719 -2.0302 -3.5498 -1.1759
 5349TIP3   OH237537   5.857   5.640  11.327 -0.0116 -0.0919 -0.0120
 5349TIP3    H137538   5.868   5.555  11.370 -0.2697 -1.1672 -1.9850
 5349TIP3    H237539   5.851   5.620  11.234 -0.7401  2.0466 -0.4869
 5350TIP3   OH237540   1.328   4.422  16.389  0.6502 -0.3255  0.1248
 5350TIP3    H137541   1.407   4.385  16.426  2.0597  1.9271 -0.4513
 5350TIP3    H237542   1.343   4.422  16.294 -0.0317  0.1619  0.0061
 5351TIP3   OH237543   0.926   0.274  12.528  0.1420 -0.2825  0.1233
 5351TIP3    H137544   1.008   0.228  12.546  0.4522 -0.3369 -1.3123
 5351TIP3    H237545   0.921   0.342  12.596  0.2010 -1.7218  1.6252
 5352TIP3   OH237546   0.312   3.503  17.276 -0.1373 -0.0964 -0.4278
 5352TIP3    H137547   0.358   3.581  17.245 -0.3238  0.9702  1.7724
 5352TIP3    H237548   0.222   3.532  17.289 -0.3586 -0.8611 -0.1915
 5353TIP3   OH237549   4.205   4.121  15.423  0.2926  0.1973 -0.4728
 5353TIP3    H137550   4.165   4.163  15.499  1.1921 -1.0269  0.7188
 5353TIP3    H237551   4.284   4.173  15.406  0.3186  0.2164 -0.2970
 5354TIP3   OH237552   4.393   1.407  12.331 -0.1701 -0.0511 -0.0063
 5354TIP3    H137553   4.488   1.416  12.335 -0.1968  0.1540  0.1507
 5354TIP3    H237554   4.360   1.495  12.350 -0.3907 -0.1396  0.0155
 5355TIP3   OH237555   5.325   6.202   1.046  0.0167  0.0606 -0.1206
 5355TIP3    H137556   5.241   6.243   1.068 -0.3196  0.0497 -1.2990
 5355TIP3    H237557   5.389   6.273   1.054  0.0344 -0.0926  1.4712
 5356TIP3   OH237558   0.321   6.429   5.789 -0.4629 -0.9706  0.3338
 5356TIP3    H137559   0.328   6.384   5.873 -0.0881 -0.7584  0.4208
 5356TIP3    H237560   0.360   6.515   5.805 -0.8967 -0.7259  0.0899
 5357TIP3   OH237561   1.158   0.518  11.470 -0.4761  0.0050 -0.0374
 5357TIP3    H137562   1.103   0.595  11.452 -1.4635 -0.9415 -1.2235
 5357TIP3    H237563   1.095   0.449  11.493  0.1443 -1.2160 -1.7895
 5358TIP3   OH237564   0.690   6.198  14.344 -0.0427 -0.6252 -0.9856
 5358TIP3    H137565   0.650   6.282  14.322  1.8208  1.0386  1.4861
 5358TIP3    H237566   0.615   6.139  14.356 -1.4161  0.7445 -2.4000
 5359TIP3   OH237567   1.547   4.580   5.747  0.6799  0.0206  0.2708
 5359TIP3    H137568   1.458   4.544   5.749  0.5089  0.4797  1.0182
 5359TIP3    H237569   1.602   4.509   5.780  0.4563  0.1154  0.8557
 5360TIP3   OH237570   0.379   1.547   3.601 -0.0639  0.1259  0.3464
 5360TIP3    H137571   0.299   1.514   3.641  0.4412  0.4218  1.6408
 5360TIP3    H237572   0.447   1.487   3.629  0.3952  0.6591  0.4003
 5361TIP3   OH237573   6.071   1.049   3.953  0.3026 -0.2275 -0.6872
 5361TIP3    H137574   6.001   1.064   3.889  2.0307  0.0791 -2.6235
 5361TIP3    H237575   6.068   1.126   4.010 -0.7293 -0.0715 -0.9283
 5362TIP3   OH237576   0.522   1.295   2.936 -0.5228 -0.2386  0.0509
 5362TIP3    H137577   0.476   1.232   2.881  0.5231 -1.1755  0.2208
 5362TIP3    H237578   0.563   1.356   2.874  0.4092 -1.1194 -0.2299
 5363TIP3   OH237579   4.224   4.993   3.856 -0.0681  0.5155  0.1576
 5363TIP3    H137580   4.194   4.926   3.917  1.5812  1.1383  1.7408
 5363TIP3    H237581   4.313   4.967   3.833  0.6632  2.1888  0.9341
 5364TIP3   OH237582   1.005   3.919  15.221 -0.3807  0.3259 -0.5964
 5364TIP3    H137583   0.933   3.931  15.159 -0.9848 -0.6813 -0.1117
 5364TIP3    H237584   1.075   3.880  15.168 -0.9780 -0.7639 -0.6201
 5365TIP3   OH237585   6.432   2.385   5.354 -0.1534 -0.3520  0.0720
 5365TIP3    H137586   6.452   2.459   5.412  1.4218 -1.5564  1.1389
 5365TIP3    H237587   6.447   2.419   5.266  2.7904  0.0497  0.6184
 5366TIP3   OH237588   1.038   3.170   4.938 -0.1459 -0.1207  0.3146
 5366TIP3    H137589   0.968   3.178   4.874 -0.3950 -0.7044  0.5002
 5366TIP3    H237590   1.111   3.131   4.889  0.1122  0.6470  0.0811
 5367TIP3   OH237591   4.530   4.531  13.365 -0.0435 -0.0278 -0.0273
 5367TIP3    H137592   4.617   4.524  13.406  0.0672  1.6460  0.0886
 5367TIP3    H237593   4.515   4.625  13.356 -2.1615 -0.2626  0.5743
 5368TIP3   OH237594   2.470   1.576   1.760  0.5118 -0.4127 -0.3344
 5368TIP3    H137595   2.534   1.637   1.798  0.0997 -0.1351 -0.0760
 5368TIP3    H237596   2.447   1.519   1.833 -1.7492  1.3300  0.4407
 5369TIP3   OH237597   4.008   0.718   3.503 -0.4780 -0.2992 -0.2399
 5369TIP3    H137598   4.014   0.709   3.408 -0.9307 -0.5719 -0.2464
 5369TIP3    H237599   3.958   0.641   3.531  2.2723 -1.9191  0.5625
 5370TIP3   OH237600   1.317   2.392   0.041  0.2397  0.2777 -0.6127
 5370TIP3    H137601   1.287   2.433  -0.040 -0.6615  0.0946 -0.3835
 5370TIP3    H237602   1.350   2.306   0.014 -1.0116 -0.2099 -0.6803
 5371TIP3   OH237603   6.467   0.808  10.944  0.3027  0.3879 -0.1854
 5371TIP3    H137604   6.387   0.830  10.896 -0.0054  0.7904  0.4968
 5371TIP3    H237605   6.477   0.713  10.934 -1.1047  0.0928  0.9952
 5372TIP3   OH237606   3.498   6.442   4.154 -0.0016 -0.2832 -0.4297
 5372TIP3    H137607   3.446   6.392   4.090 -1.7903  1.3781 -0.3728
 5372TIP3    H237608   3.484   6.396   4.237  0.6349 -1.2540 -0.8450
 5373TIP3   OH237609   6.254   2.688  16.462 -0.4422 -0.5259 -0.2291
 5373TIP3    H137610   6.256   2.622  16.393  0.6232 -0.0264 -0.6932
 5373TIP3    H237611   6.176   2.741  16.442  0.7069  0.5991 -2.0281
 5374TIP3   OH237612   5.402   3.693   1.077 -0.3353  0.3276 -0.3134
 5374TIP3    H137613   5.496   3.682   1.064 -0.4912 -0.7793 -0.6168
 5374TIP3    H237614   5.370   3.728   0.994 -0.5598 -1.8126 -1.1900
 5375TIP3   OH237615   0.485   3.919  13.252  0.1686  0.2280 -0.1050
 5375TIP3    H137616   0.466   3.964  13.334  1.7375 -0.0395  0.4349
 5375TIP3    H237617   0.465   3.827  13.269  0.6132  0.1543  0.0129
 5376TIP3   OH237618   0.956   4.844  12.426 -0.1257 -0.1790 -0.1209
 5376TIP3    H137619   0.886   4.778  12.434 -0.6175  0.3407 -0.0288
 5376TIP3    H237620   1.002   4.841  12.510 -1.1695  0.7135  0.5099
 5377TIP3   OH237621   2.649   3.244   1.580  0.0845  0.0307  0.3749
 5377TIP3    H137622   2.624   3.169   1.634  2.3031 -0.6973  0.4808
 5377TIP3    H237623   2.628   3.320   1.634 -0.8902 -0.5572  0.8479
 5378TIP3   OH237624   2.830   1.191   2.198  0.3232 -0.3015 -0.0215
 5378TIP3    H137625   2.882   1.271   2.183  0.7802 -0.6797 -0.4760
 5378TIP3    H237626   2.865   1.128   2.136  0.3516 -1.0401  0.7284
 5379TIP3   OH237627   1.878   2.599   4.676 -0.2290  0.3738 -0.7155
 5379TIP3    H137628   1.954   2.627   4.727  0.8097  0.2236 -2.1348
 5379TIP3    H237629   1.810   2.662   4.699  1.1078  2.1434 -1.4010
 5380TIP3   OH237630   0.102   1.877  12.914  0.3031 -0.9684 -0.1187
 5380TIP3    H137631   0.012   1.850  12.898 -0.1362  0.6894 -0.6763
 5380TIP3    H237632   0.130   1.825  12.989 -1.8789 -0.0025  1.4613
 5381TIP3   OH237633   1.968   3.906   3.118  0.0833 -0.2186 -0.2740
 5381TIP3    H137634   1.906   3.832   3.122 -0.7709  0.3811 -1.6000
 5381TIP3    H237635   2.053   3.866   3.135 -0.1909 -1.7634 -2.0729
 5382TIP3   OH237636   2.350   4.974  12.483 -0.1995  0.7248  0.1126
 5382TIP3    H137637   2.271   5.022  12.509  0.2706  2.0119 -0.7380
 5382TIP3    H237638   2.318   4.889  12.454 -1.3844  1.5338 -1.0597
 5383TIP3   OH237639   5.052   3.599  12.887 -0.3063  0.3013 -0.2588
 5383TIP3    H137640   4.964   3.584  12.920  0.2284  0.2097  1.2079
 5383TIP3    H237641   5.074   3.517  12.841 -0.7415  0.0796 -0.0816
 5384TIP3   OH237642   1.413   6.684   0.344  0.4055 -0.1042  0.3929
 5384TIP3    H137643   1.356   6.609   0.330 -1.1158  1.0706 -0.0409
 5384TIP3    H237644   1.357   6.749   0.387  0.7702  1.8643 -1.8823
 5385TIP3   OH237645   2.910   2.489   0.720  0.2514  0.0211  0.0616
 5385TIP3    H137646   2.868   2.569   0.687 -2.1527 -1.6769 -1.2983
 5385TIP3    H237647   2.949   2.449   0.643 -0.9463 -1.4140  0.1454
 5386TIP3   OH237648   1.964   5.641   0.137  0.1514 -0.1958  0.0307
 5386TIP3    H137649   1.892   5.579   0.148  1.5049 -2.2088 -1.5761
 5386TIP3    H237650   1.944   5.690   0.058  0.0112  0.0484  0.2167
 5387TIP3   OH237651   3.723   6.088  11.561  0.8478  0.5511  0.1708
 5387TIP3    H137652   3.746   6.099  11.469  0.2439 -1.0128 -0.1884
 5387TIP3    H237653   3.701   5.995  11.570 -2.2153  1.2395  1.1497
 5388TIP3   OH237654   4.601   2.475   1.683 -0.0598  0.3719  0.2141
 5388TIP3    H137655   4.658   2.451   1.610 -0.2755 -1.9230  0.7134
 5388TIP3    H237656   4.517   2.496   1.643 -0.5113 -1.9571 -0.2184
 5389TIP3   OH237657   5.371   3.258   2.206 -0.0101  0.2240  0.7092
 5389TIP3    H137658   5.452   3.217   2.174 -0.1793  0.0993  0.4378
 5389TIP3    H237659   5.384   3.352   2.189  0.5174  0.3285  1.6436
 5390TIP3   OH237660   1.555   3.529  10.960 -1.0854 -0.0220  0.5242
 5390TIP3    H137661   1.529   3.461  10.898 -1.1807  0.0229  0.5153
 5390TIP3    H237662   1.646   3.550  10.936 -1.3114  0.4062  0.0294
 5391TIP3   OH237663   0.357   0.813  12.639  1.0505 -0.6104  0.4348
 5391TIP3    H137664   0.262   0.806  12.646  1.0583 -0.0183  1.2033
 5391TIP3    H237665   0.386   0.838  12.726  1.8906 -0.5287  0.1396
 5392TIP3   OH237666   0.607   0.222  11.456 -0.0472  0.3550  0.1340
 5392TIP3    H137667   0.655   0.215  11.374 -0.7482  0.9353 -0.3289
 5392TIP3    H237668   0.620   0.137  11.499  1.2999  0.4607 -0.0252
 5393TIP3   OH237669   5.555   6.097   0.880  0.6711 -0.0927  0.0501
 5393TIP3    H137670   5.470   6.119   0.918  0.7038 -0.4286  0.3205
 5393TIP3    H237671   5.578   6.173   0.826  1.3875  1.1079  1.9513
 5394TIP3   OH237672   1.514   0.731   3.020 -0.1819 -0.2962  0.1005
 5394TIP3    H137673   1.569   0.735   2.941 -0.0366  0.0196  0.2181
 5394TIP3    H237674   1.437   0.782   2.999 -0.3282 -0.5483  0.0192
 5395TIP3   OH237675   2.987   0.473  15.692  0.0146 -0.1604 -0.0502
 5395TIP3    H137676   3.035   0.391  15.698 -0.7245 -0.5039  1.7984
 5395TIP3    H237677   2.969   0.497  15.783 -2.8070  0.2323 -0.6208
 5396TIP3   OH237678   2.396   6.667  15.222  0.4742 -0.3446  0.3126
 5396TIP3    H137679   2.315   6.619  15.242 -0.6332  1.3774  0.2053
 5396TIP3    H237680   2.396   6.674  15.127  0.0542  0.7496  0.3790
 5397TIP3   OH237681   2.319   3.366  14.622  0.1896 -0.0979 -0.0572
 5397TIP3    H137682   2.393   3.308  14.603 -0.4421 -0.9509  0.0198
 5397TIP3    H237683   2.247   3.330  14.571 -0.5729 -0.2184  1.0633
 5398TIP3   OH237684   0.239   0.685   5.674  0.0668 -0.3129 -0.6291
 5398TIP3    H137685   0.158   0.664   5.720 -0.1783 -0.8740 -1.2994
 5398TIP3    H237686   0.304   0.696   5.744 -0.4212 -0.6117 -0.1217
 5399TIP3   OH237687   1.053   2.922  14.030 -0.3119 -0.6337  0.2776
 5399TIP3    H137688   1.094   3.008  14.017 -2.4390  0.4622  0.3137
 5399TIP3    H237689   1.124   2.866  14.060  1.3197  0.9006 -0.5211
 5400TIP3   OH237690   3.198   1.698   5.550 -0.5845 -0.1588  0.4387
 5400TIP3    H137691   3.136   1.763   5.580 -1.0438  0.4743 -1.6945
 5400TIP3    H237692   3.196   1.630   5.617 -2.6797  0.4062  1.0259
 5401TIP3   OH237693   1.233   5.239  13.509 -0.1889  0.3756 -0.1289
 5401TIP3    H137694   1.257   5.202  13.594 -0.3453 -0.6343 -0.5163
 5401TIP3    H237695   1.183   5.170  13.465  1.5010  0.1412 -1.8048
 5402TIP3   OH237696   0.649   2.944   2.687  0.1257  0.6153  0.3449
 5402TIP3    H137697   0.603   2.965   2.605  1.5336  1.4280 -0.2678
 5402TIP3    H237698   0.647   3.025   2.737  0.3935  0.4896  0.5619
 5403TIP3   OH237699   4.933   5.499  10.781 -0.6820  0.3188 -0.2417
 5403TIP3    H137700   4.925   5.591  10.809  1.5862  0.8276 -1.0498
 5403TIP3    H237701   5.020   5.494  10.741 -1.2054 -1.9385 -1.2316
 5404TIP3   OH237702   3.981   4.689   6.255 -0.6660 -0.5606 -0.2390
 5404TIP3    H137703   4.053   4.628   6.274  0.8084  0.7150 -1.4869
 5404TIP3    H237704   3.961   4.673   6.162  0.0392  1.1059 -0.7088
 5405TIP3   OH237705   5.608   3.435   5.644 -0.3389  0.6257 -0.3693
 5405TIP3    H137706   5.667   3.370   5.683 -1.5583 -1.0572 -1.1842
 5405TIP3    H237707   5.566   3.478   5.719 -0.2796 -0.2880  0.1999
 5406TIP3   OH237708   5.636   1.523  12.473  0.2467 -0.1060  0.1816
 5406TIP3    H137709   5.607   1.606  12.512 -0.3658  0.5162 -1.5150
 5406TIP3    H237710   5.674   1.548  12.389 -1.5963 -1.6483 -1.2068
 5407TIP3   OH237711   6.582   4.036  16.380 -0.4142  0.3171 -0.2816
 5407TIP3    H137712   6.562   4.004  16.468  0.3070  0.0353 -0.2067
 5407TIP3    H237713   6.660   4.090  16.391  0.9205 -1.3615 -1.0213
 5408TIP3   OH237714   1.202   4.893  11.857  0.0784  0.3453  0.4825
 5408TIP3    H137715   1.158   4.811  11.882  0.2650 -0.4387 -1.5061
 5408TIP3    H237716   1.294   4.868  11.847 -0.1363  0.2587 -1.9573
 5409TIP3   OH237717   0.470   4.571  12.869 -0.0101 -0.4305  0.8356
 5409TIP3    H137718   0.492   4.609  12.784  1.5069 -1.2990  0.7933
 5409TIP3    H237719   0.440   4.482  12.849  0.7285 -0.7789  1.2069
 5410TIP3   OH237720   6.055   6.630  16.480 -0.3032 -0.3111  0.2837
 5410TIP3    H137721   6.128   6.681  16.513  0.4699  0.1897 -2.0283
 5410TIP3    H237722   6.042   6.561  16.545  0.6330  0.9883  1.9183
 5411TIP3   OH237723   0.600   2.058   1.406  0.4368 -0.3257  0.2830
 5411TIP3    H137724   0.658   2.049   1.330  1.5799  3.8685  0.4108
 5411TIP3    H237725   0.515   2.077   1.368  1.0522  2.0043 -0.1167
 5412TIP3   OH237726   5.906   2.378   6.559 -0.0332 -0.1359 -0.0308
 5412TIP3    H137727   5.967   2.400   6.489 -1.6443 -0.3604 -1.5758
 5412TIP3    H237728   5.962   2.354   6.633  1.7215  0.6800 -1.0430
 5413TIP3   OH237729   4.164   3.814  15.873  0.0526  0.3599 -0.4704
 5413TIP3    H137730   4.074   3.843  15.856 -0.8522 -1.9892 -0.1235
 5413TIP3    H237731   4.161   3.782  15.963  2.0837  3.0177  0.6764
 5414TIP3   OH237732   6.157   0.196   5.058  0.2065  0.4531 -0.3246
 5414TIP3    H137733   6.219   0.200   4.985 -0.3343  0.3969 -0.7906
 5414TIP3    H237734   6.075   0.230   5.022  0.2362  1.5387  0.5722
 5415TIP3   OH237735   4.614   2.019  13.293  0.0132  0.0892  0.5500
 5415TIP3    H137736   4.609   2.039  13.200 -0.7977  0.4231  0.6558
 5415TIP3    H237737   4.707   2.001  13.309  0.0872 -0.4557 -0.4186
 5416TIP3   OH237738   4.708   4.723  11.029  0.1467  0.0173  0.1957
 5416TIP3    H137739   4.792   4.755  10.998 -0.6198  1.5744 -0.3585
 5416TIP3    H237740   4.674   4.670  10.957  0.0310  0.5674 -0.1610
 5417TIP3   OH237741   2.711   5.523  16.109 -0.6299  0.4741  0.3730
 5417TIP3    H137742   2.620   5.520  16.078 -0.1371 -2.7809 -1.2332
 5417TIP3    H237743   2.717   5.451  16.171  1.0278  0.0564 -0.2106
 5418TIP3   OH237744   0.334   5.109   1.825  0.3907 -1.0025  0.6218
 5418TIP3    H137745   0.273   5.128   1.754  2.8732  1.0758 -1.1602
 5418TIP3    H237746   0.284   5.127   1.905 -2.3718 -3.0228 -0.5147
 5419TIP3   OH237747   2.793   3.778   2.578 -0.5220 -0.5087 -0.8529
 5419TIP3    H137748   2.824   3.736   2.498  0.1220 -1.5823 -0.0660
 5419TIP3    H237749   2.836   3.730   2.648 -3.1776 -1.4305  0.2602
 5420TIP3   OH237750   3.836   6.467  15.698 -0.7258 -0.4712 -0.5149
 5420TIP3    H137751   3.760   6.419  15.666 -0.1375 -1.4469 -0.4940
 5420TIP3    H237752   3.848   6.538  15.635 -1.3147 -0.6365 -0.8175
 5421TIP3   OH237753   4.043   1.457  15.985  0.1340 -0.5997 -0.2266
 5421TIP3    H137754   4.044   1.548  16.016  0.3569 -0.1772 -1.4220
 5421TIP3    H237755   3.974   1.415  16.036 -0.2307  0.3402  0.0784
 5422TIP3   OH237756   5.124   2.370   0.185  0.1193 -0.2036  0.2639
 5422TIP3    H137757   5.052   2.387   0.244  0.3959  0.1601  0.4992
 5422TIP3    H237758   5.203   2.394   0.234  0.3046  0.9046 -0.5263
 5423TIP3   OH237759   6.753   6.071   5.233 -0.1924 -0.2588  0.5467
 5423TIP3    H137760   6.843   6.096   5.216  0.5646 -2.4829  0.9182
 5423TIP3    H237761   6.754   6.033   5.321 -1.1579 -1.6804 -0.0126
 5424TIP3   OH237762   6.246   5.860  12.818 -0.5516  0.2575  0.2673
 5424TIP3    H137763   6.210   5.795  12.878  0.5592 -0.9610 -0.3410
 5424TIP3    H237764   6.169   5.907  12.785 -1.1808  1.1444  2.7826
 5425TIP3   OH237765   3.543   5.280   5.346  0.7909  0.3856  0.3775
 5425TIP3    H137766   3.544   5.253   5.254  1.9509  0.6466  0.2959
 5425TIP3    H237767   3.454   5.310   5.361  0.5663  0.2719 -0.6474
 5426TIP3   OH237768   3.326   4.068   1.260 -0.1525 -0.4054 -0.2139
 5426TIP3    H137769   3.294   3.978   1.249  0.0046 -0.5727  0.6363
 5426TIP3    H237770   3.418   4.063   1.234 -0.4037 -0.2593 -1.1635
 5427TIP3   OH237771   2.674   2.625  15.689 -0.0187 -0.1853 -0.2092
 5427TIP3    H137772   2.645   2.655  15.603  0.6675  1.3889  0.0727
 5427TIP3    H237773   2.672   2.530  15.683 -1.2115 -0.1127 -1.5386
 5428TIP3   OH237774   2.327   1.145   5.035 -0.7647  0.1579 -0.2356
 5428TIP3    H137775   2.292   1.217   4.982 -1.0222  1.2391  1.3108
 5428TIP3    H237776   2.404   1.182   5.078 -0.0611 -0.9566 -0.5071
 5429TIP3   OH237777   3.845   6.602  15.232 -0.0533 -0.1967  0.5054
 5429TIP3    H137778   3.877   6.637  15.149  0.7873  0.1816  0.9787
 5429TIP3    H237779   3.910   6.537  15.257  0.2955  0.4801  1.4158
 5430TIP3   OH237780   1.232   6.565   5.304 -0.2274  0.3796 -0.2262
 5430TIP3    H137781   1.319   6.585   5.337 -0.4612  0.5085  0.3157
 5430TIP3    H237782   1.189   6.518   5.375 -0.2723 -0.5522 -0.8448
 5431TIP3   OH237783   5.173   1.694   0.810  0.0416  0.4281 -0.4911
 5431TIP3    H137784   5.096   1.735   0.769 -0.8161  0.6510  1.2151
 5431TIP3    H237785   5.140   1.612   0.847  0.3379  0.9741  1.0998
 5432TIP3   OH237786   5.561   3.444   6.299  0.8382  0.2766 -0.0880
 5432TIP3    H137787   5.587   3.385   6.370  0.9511 -0.2687 -0.5753
 5432TIP3    H237788   5.516   3.388   6.236 -3.2049  1.3672  1.4560
 5433TIP3   OH237789   4.606   3.635   0.506 -0.3086  0.0108 -0.5804
 5433TIP3    H137790   4.663   3.581   0.561  0.6358  1.3880 -0.1324
 5433TIP3    H237791   4.598   3.587   0.424  0.6851 -0.6791 -0.2886
 5434TIP3   OH237792   6.595   1.623  15.416  0.3256 -0.5136 -0.2692
 5434TIP3    H137793   6.597   1.700  15.359 -1.6623  0.5586  0.9797
 5434TIP3    H237794   6.547   1.557  15.366  1.3336 -0.6985 -1.0270
 5435TIP3   OH237795   0.898   2.626  17.082 -0.0414  0.0178  0.0516
 5435TIP3    H137796   0.937   2.649  17.167 -0.6238 -2.6559  1.1703
 5435TIP3    H237797   0.829   2.690  17.069 -0.2802  0.2035  1.8969
 5436TIP3   OH237798   5.200   1.337   0.105 -0.1071  0.4192 -0.3018
 5436TIP3    H137799   5.154   1.255   0.082 -0.3104  0.8709 -1.5962
 5436TIP3    H237800   5.131   1.403   0.105 -0.1534  0.4277  1.9289
 5437TIP3   OH237801   4.724   5.036  10.761  0.0639 -0.2477  0.1948
 5437TIP3    H137802   4.795   5.036  10.696 -0.6591 -0.5546 -0.6253
 5437TIP3    H237803   4.766   5.011  10.843  1.1291  0.7983 -0.0004
 5438TIP3   OH237804   2.200   1.086  16.158 -0.6613  0.0090 -0.3181
 5438TIP3    H137805   2.214   0.992  16.147 -2.3342 -0.3953  0.7381
 5438TIP3    H237806   2.110   1.101  16.128 -0.0829  1.4731 -1.4641
 5439TIP3   OH237807   1.302   4.714   4.342 -0.4294 -0.1804  0.5754
 5439TIP3    H137808   1.307   4.631   4.391  1.2190 -1.4114 -1.5362
 5439TIP3    H237809   1.391   4.749   4.344 -0.4243 -0.0419 -1.1184
 5440TIP3   OH237810   5.031   2.108  15.030 -0.2192  0.1538 -0.2339
 5440TIP3    H137811   5.061   2.064  14.950 -0.7733  1.6535 -1.3301
 5440TIP3    H237812   5.078   2.064  15.101  1.5927 -0.1225 -1.5293
 5441TIP3   OH237813   5.020   3.629   2.310 -0.7511 -0.2535 -0.2142
 5441TIP3    H137814   5.108   3.659   2.285 -0.8729  1.0130  0.7785
 5441TIP3    H237815   4.961   3.690   2.266 -1.0565  0.1328  0.7154
 5442TIP3   OH237816   3.243   4.463   3.548 -0.4744 -0.2160  0.0953
 5442TIP3    H137817   3.331   4.428   3.535 -0.3679 -0.0122  0.2737
 5442TIP3    H237818   3.190   4.386   3.567 -0.8085 -0.6626 -2.3007
 5443TIP3   OH237819   1.245   1.833  11.588 -0.3025  0.2563 -0.1801
 5443TIP3    H137820   1.220   1.925  11.581 -1.4387 -0.0536 -0.5309
 5443TIP3    H237821   1.183   1.796  11.651  0.3198 -0.2202  0.1683
 5444TIP3   OH237822   0.554   4.419  11.332  0.0778 -0.6213  0.3756
 5444TIP3    H137823   0.582   4.497  11.284  1.2385 -1.4375 -0.3191
 5444TIP3    H237824   0.481   4.384  11.282  1.2763 -1.4632 -0.8579
 5445TIP3   OH237825   3.469   0.613  16.825 -0.0565  0.1297 -0.5958
 5445TIP3    H137826   3.455   0.530  16.779 -0.8787 -0.6098  0.9091
 5445TIP3    H237827   3.543   0.653  16.780  0.0574 -1.2020 -1.6530
 5446TIP3   OH237828   5.683   3.012  12.997  0.0840 -0.3611  0.0546
 5446TIP3    H137829   5.748   3.076  12.969  0.2989 -0.1897  0.9234
 5446TIP3    H237830   5.647   3.048  13.079  0.3097 -1.4062  0.6291
 5447TIP3   OH237831   6.230   4.581  13.825  0.6932 -0.4325  0.1938
 5447TIP3    H137832   6.172   4.510  13.798  1.2437 -0.9844  0.4158
 5447TIP3    H237833   6.237   4.637  13.748  0.1963 -0.5792  0.0358
 5448TIP3   OH237834   2.237   0.024   2.177 -0.1047  0.2543 -0.1748
 5448TIP3    H137835   2.320   0.002   2.135 -0.9957 -3.1579 -0.4974
 5448TIP3    H237836   2.260   0.037   2.269  0.8721 -0.3159 -0.3185
 5449TIP3   OH237837   1.320   1.151  11.585 -0.0156 -0.1520  0.1149
 5449TIP3    H137838   1.350   1.080  11.529 -0.8679 -0.7944  0.4661
 5449TIP3    H237839   1.225   1.152  11.575 -0.1649 -0.1562  1.3935
 5450TIP3   OH237840   6.031   0.345  15.313  0.2537  0.4902  0.0347
 5450TIP3    H137841   5.991   0.263  15.285 -1.5379  0.9148  1.1936
 5450TIP3    H237842   6.002   0.409  15.248  2.9567  0.0216 -1.8114
 5451TIP3   OH237843   0.976   1.041  11.277 -0.0755 -0.0746 -0.0375
 5451TIP3    H137844   0.975   1.022  11.371  0.7859 -1.5249 -0.2886
 5451TIP3    H237845   0.883   1.046  11.252 -0.4701 -3.5553  0.2209
 5452TIP3   OH237846   2.097   6.561   5.911 -0.2180  0.1338  0.0422
 5452TIP3    H137847   2.084   6.483   5.964  0.0125  1.3142  1.9300
 5452TIP3    H237848   2.113   6.631   5.974 -0.0138  1.6470 -1.5933
 5453TIP3   OH237849   5.643   1.408  12.024  0.1311 -0.1292  0.1625
 5453TIP3    H137850   5.568   1.437  12.077  0.5599  1.1130  0.1301
 5453TIP3    H237851   5.621   1.437  11.935 -0.4477 -1.9405 -0.3295
 5454TIP3   OH237852   5.023   5.883   1.665 -0.1715 -0.3141 -0.2828
 5454TIP3    H137853   4.945   5.840   1.700 -0.0808  0.3398  0.7822
 5454TIP3    H237854   4.998   5.975   1.656  0.2480 -0.2322 -0.6156
 5455TIP3   OH237855   3.538   5.694  16.015  0.6572 -0.2089 -0.0128
 5455TIP3    H137856   3.599   5.622  16.032  1.2761 -0.4286 -2.6778
 5455TIP3    H237857   3.467   5.681  16.078  1.9013 -1.7219  1.1592
 5456TIP3   OH237858   5.561   5.191  13.451  0.2728  0.3438  0.1464
 5456TIP3    H137859   5.596   5.277  13.475  0.9405  0.5216 -1.3502
 5456TIP3    H237860   5.624   5.128  13.486  0.3360  0.5177  0.3402
 5457TIP3   OH237861   2.974   4.684  17.124 -0.3371  0.0415 -0.0217
 5457TIP3    H137862   3.067   4.668  17.135 -0.1583 -0.8237 -2.2419
 5457TIP3    H237863   2.967   4.779  17.111  0.1176  0.2203  0.9884
 5458TIP3   OH237864   1.919   3.178   3.544  0.1065 -0.6397 -0.2413
 5458TIP3    H137865   1.952   3.225   3.620 -0.9095  0.9633 -0.7197
 5458TIP3    H237866   1.849   3.122   3.578  0.0570 -0.3764  0.0955
 5459TIP3   OH237867   0.197   0.498  11.151  0.3830 -0.3811  0.1385
 5459TIP3    H137868   0.258   0.568  11.130  0.7926 -0.4864  0.9468
 5459TIP3    H237869   0.112   0.528  11.117  0.3881  0.8531  1.1826
 5460TIP3   OH237870   5.953   0.082   5.950  0.0026 -0.2002 -0.1211
 5460TIP3    H137871   5.930   0.063   5.859 -0.2573 -0.8085  0.0652
 5460TIP3    H237872   5.904   0.017   6.000  0.0095  0.2421  0.4648
 5461TIP3   OH237873   1.751   1.527  15.508 -0.0626  0.0930 -0.5937
 5461TIP3    H137874   1.693   1.593  15.547  1.0835  0.9074 -0.2347
 5461TIP3    H237875   1.691   1.458  15.480 -1.2405  0.9984 -0.4279
 5462TIP3   OH237876   0.869   5.644  13.978  0.5487 -0.5007  0.5121
 5462TIP3    H137877   0.783   5.603  13.980 -0.2683  0.8818 -1.9473
 5462TIP3    H237878   0.927   5.579  14.018 -1.3460 -2.1601  0.7360
 5463TIP3   OH237879   5.953   1.485   0.678  0.5077 -0.3529 -0.0514
 5463TIP3    H137880   5.992   1.513   0.595 -0.8990  0.0933 -0.5852
 5463TIP3    H237881   5.953   1.564   0.732  2.0834 -0.8037  0.6826
 5464TIP3   OH237882   2.555   3.811  16.738  0.0435 -0.1618  0.0177
 5464TIP3    H137883   2.646   3.810  16.769  0.1149  0.0950 -0.1745
 5464TIP3    H237884   2.505   3.772  16.810  0.4040 -1.0879 -0.2160
 5465TIP3   OH237885   2.982   2.424  15.343 -0.0441  0.4862  0.4208
 5465TIP3    H137886   2.899   2.421  15.294  1.0898 -0.9188 -1.5575
 5465TIP3    H237887   2.957   2.408  15.434 -1.7703 -2.3238 -0.4203
 5466TIP3   OH237888   1.370   0.487  11.858  0.3071 -1.0328  0.7351
 5466TIP3    H137889   1.318   0.431  11.800 -0.0217  0.3734 -0.4003
 5466TIP3    H237890   1.452   0.440  11.870  0.2390 -1.5475 -0.6155
 5467TIP3   OH237891   5.529   0.230   0.016 -0.1217 -0.1161 -0.4331
 5467TIP3    H137892   5.544   0.146   0.060 -2.7128 -0.1996  0.4857
 5467TIP3    H237893   5.587   0.291   0.061 -0.0275 -0.9314  0.5948
 5468TIP3   OH237894   6.616   2.277  11.531 -0.7675 -0.0987 -0.8170
 5468TIP3    H137895   6.567   2.265  11.450 -1.2807  0.6943 -0.6315
 5468TIP3    H237896   6.634   2.371  11.535 -0.9027 -0.1004  0.0744
 5469TIP3   OH237897   3.338   3.902  13.905  0.3296  0.7190 -0.2752
 5469TIP3    H137898   3.294   3.819  13.922 -0.2317  1.1513  0.4332
 5469TIP3    H237899   3.370   3.930  13.991  3.0693 -0.1598 -0.9043
 5470TIP3   OH237900   1.345   3.488   5.629 -0.1638 -0.1079 -0.3322
 5470TIP3    H137901   1.254   3.479   5.656 -0.2473  0.3056 -0.4750
 5470TIP3    H237902   1.385   3.540   5.698 -0.0548 -0.2128 -0.3156
 5471TIP3   OH237903   4.205   1.657  10.882 -0.1505  0.1843  0.3811
 5471TIP3    H137904   4.160   1.573  10.873 -1.5150  0.9608 -0.4474
 5471TIP3    H237905   4.176   1.708  10.806  2.0440  0.7941 -0.1240
 5472TIP3   OH237906   4.777   0.996  13.761  0.1362 -0.0128  0.1257
 5472TIP3    H137907   4.834   1.044  13.702  1.8089 -0.1383  1.5576
 5472TIP3    H237908   4.732   1.064  13.812 -1.5403  0.1068 -1.3965
 5473TIP3   OH237909   4.780   3.834  12.806  0.0757  0.4051  0.1798
 5473TIP3    H137910   4.790   3.753  12.757 -0.2909  0.4065  0.0978
 5473TIP3    H237911   4.720   3.887  12.752  0.2007  0.6707  0.3015
 5474TIP3   OH237912   2.592   6.638   3.560  0.6735  0.3650 -0.4514
 5474TIP3    H137913   2.609   6.643   3.466  2.0922  0.7197 -0.1940
 5474TIP3    H237914   2.679   6.637   3.600  0.1143 -0.7047  0.8203
 5475TIP3   OH237915   1.713   2.035  15.243 -0.1813  0.3023  0.1507
 5475TIP3    H137916   1.701   2.018  15.149  1.3610 -0.6465  0.0807
 5475TIP3    H237917   1.808   2.046  15.253 -0.2347 -0.4030  1.7155
 5476TIP3   OH237918   0.780   2.301  17.004 -0.9029 -0.3263  0.3612
 5476TIP3    H137919   0.698   2.344  16.979 -0.9918  2.7160  4.8505
 5476TIP3    H237920   0.848   2.351  16.959 -1.2553  2.1710  2.4034
 5477TIP3   OH237921   6.042   3.311   4.678  0.4900  0.3828  0.0173
 5477TIP3    H137922   6.113   3.285   4.619 -0.0272 -0.5252 -0.2173
 5477TIP3    H237923   6.086   3.335   4.759  1.1418  0.8102 -0.4564
 5478TIP3   OH237924   0.935   6.202   3.612 -0.0750 -0.3162 -0.6782
 5478TIP3    H137925   1.020   6.215   3.654 -0.7822  1.2623  0.3550
 5478TIP3    H237926   0.941   6.251   3.530 -0.5826  1.4427  0.2781
 5479TIP3   OH237927   1.105   2.717   3.707  0.0354 -0.0651 -0.0986
 5479TIP3    H137928   1.017   2.684   3.691  0.6456 -1.5906 -0.5130
 5479TIP3    H237929   1.152   2.643   3.746  1.3048  0.5054 -0.4784
 5480TIP3   OH237930   5.699   0.024  12.180  0.1355  0.1597  0.1902
 5480TIP3    H137931   5.675   0.086  12.249 -0.8085  0.7092 -0.6042
 5480TIP3    H237932   5.714   0.078  12.103  0.6019 -0.4968 -0.1968
 5481TIP3   OH237933   3.238   6.207   5.084 -0.2442 -0.3018  0.6373
 5481TIP3    H137934   3.285   6.127   5.105 -0.2805 -0.4290  0.2289
 5481TIP3    H237935   3.187   6.186   5.006 -0.8894 -0.1340  1.0010
 5482TIP3   OH237936   2.080   0.618   4.454  0.3782  0.5781 -0.1710
 5482TIP3    H137937   1.987   0.612   4.432  0.9003  0.5970 -2.6665
 5482TIP3    H237938   2.125   0.621   4.370  2.6777  0.3900  0.9577
 5483TIP3   OH237939   0.531   5.274  13.590  0.3697  0.1001 -0.0300
 5483TIP3    H137940   0.484   5.356  13.574  1.0189  0.1785 -1.7094
 5483TIP3    H237941   0.462   5.209  13.605 -0.1731  0.7511  0.3739
 5484TIP3   OH237942   5.461   0.634   5.670  0.4450  0.3333  0.8242
 5484TIP3    H137943   5.500   0.616   5.756  0.3898 -0.5121  0.6791
 5484TIP3    H237944   5.516   0.587   5.608  0.5069  0.9741  0.3844
 5485TIP3   OH237945   5.307   6.685   6.155  0.6455 -0.1673 -0.2783
 5485TIP3    H137946   5.399   6.685   6.128  0.9329  0.4647  0.6266
 5485TIP3    H237947   5.268   6.758   6.108  0.5846 -0.4734 -0.7103
 5486TIP3   OH237948   5.060   4.966   3.011  0.0739  0.4403  0.2612
 5486TIP3    H137949   5.032   4.875   3.003 -0.4670  0.7571 -2.1671
 5486TIP3    H237950   4.996   5.015   2.958  1.2909  2.0240  0.2000
 5487TIP3   OH237951   5.050   2.269   5.570 -0.4836  0.2265 -0.3488
 5487TIP3    H137952   5.029   2.212   5.644  0.6879 -1.7183 -1.4380
 5487TIP3    H237953   4.965   2.285   5.528 -0.8026 -1.0597 -0.2363
 5488TIP3   OH237954   0.993   6.635   2.699  0.0577  0.0664  0.2167
 5488TIP3    H137955   1.048   6.556   2.693  0.0578  0.1373 -1.0955
 5488TIP3    H237956   1.011   6.683   2.618 -0.7464  0.8859  0.5028
 5489TIP3   OH237957   3.539   4.520  15.206 -0.1173 -0.0657 -0.8463
 5489TIP3    H137958   3.532   4.440  15.154 -1.0860  0.4414 -1.5472
 5489TIP3    H237959   3.631   4.545  15.201  1.3657 -3.5379  3.1826
 5490TIP3   OH237960   1.539   6.541   0.567  0.0260  0.0310  0.0913
 5490TIP3    H137961   1.575   6.533   0.479  0.5434  2.7991 -0.0209
 5490TIP3    H237962   1.552   6.633   0.591 -1.6184 -0.2376  2.4043
 5491TIP3   OH237963   1.145   3.952   0.324 -0.0503  0.1111  0.3921
 5491TIP3    H137964   1.162   4.017   0.393  0.0133 -0.9608  1.4176
 5491TIP3    H237965   1.132   4.004   0.245 -0.1423  1.3820  1.2136
 5492TIP3   OH237966   6.396   2.425   1.405 -0.1928  0.0624 -0.9287
 5492TIP3    H137967   6.414   2.332   1.398 -0.3558 -0.0780  0.3353
 5492TIP3    H237968   6.321   2.440   1.348 -1.5659 -1.0144  0.5259
 5493TIP3   OH237969   6.531   3.308  14.709  0.3819 -0.0850 -0.0354
 5493TIP3    H137970   6.454   3.358  14.684  1.8246  1.4168 -1.7634
 5493TIP3    H237971   6.605   3.358  14.674  1.9969 -2.8800 -0.9526
 5494TIP3   OH237972   1.676   0.435   2.702 -0.2497  0.0739 -0.1334
 5494TIP3    H137973   1.635   0.398   2.780  0.2639 -1.0924 -0.4011
 5494TIP3    H237974   1.603   0.457   2.644 -0.6092 -4.6844 -1.8567
 5495TIP3   OH237975   2.005   1.666   3.274 -0.2794  0.0883  0.2016
 5495TIP3    H137976   1.952   1.639   3.199 -1.9859 -0.2112  1.4575
 5495TIP3    H237977   2.028   1.758   3.256  0.0840 -0.2331 -1.0662
 5496TIP3   OH237978   2.500   1.249   0.575  0.2231 -0.2190 -0.1667
 5496TIP3    H137979   2.499   1.269   0.481  0.7115  2.8671  0.3707
 5496TIP3    H237980   2.409   1.225   0.595 -0.1270  0.1162 -1.2535
 5497TIP3   OH237981   1.591   1.296   0.174  0.3783 -0.1903 -0.3295
 5497TIP3    H137982   1.648   1.360   0.217 -0.5984  0.8525 -0.5387
 5497TIP3    H237983   1.651   1.231   0.138  1.4573  0.9495 -0.6691
 5498TIP3   OH237984   3.188   4.162  14.441 -0.3807  0.0264  0.3864
 5498TIP3    H137985   3.148   4.081  14.473 -0.3653 -1.1862 -2.3965
 5498TIP3    H237986   3.278   4.137  14.419  0.0991  1.2238  0.8923
 5499TIP3   OH237987   2.083   5.882  14.610  0.4176  0.3072  0.0224
 5499TIP3    H137988   2.175   5.895  14.584  0.1452  3.6824  0.2362
 5499TIP3    H237989   2.086   5.877  14.706  0.4131 -0.2516 -0.0027
 5500TIP3   OH237990   0.223   3.309   0.158 -0.2873  0.3868 -0.6950
 5500TIP3    H137991   0.257   3.384   0.108  1.6370  0.0947  0.0657
 5500TIP3    H237992   0.230   3.235   0.098  1.1602  0.2048 -0.3429
 5501TIP3   OH237993   0.655   2.153   2.112  0.0228  0.0747  0.3491
 5501TIP3    H137994   0.732   2.150   2.056 -0.8578  3.1491 -1.2280
 5501TIP3    H237995   0.592   2.095   2.070 -0.0210  1.0113 -0.9122
 5502TIP3   OH237996   1.338   0.897  15.212  0.2406  0.2238 -0.1811
 5502TIP3    H137997   1.247   0.890  15.183 -0.0442 -0.3886  0.8105
 5502TIP3    H237998   1.341   0.981  15.258  0.0754  0.0818  0.0954
 5503TIP3   OH237999   3.233   5.100   4.804  0.0530  0.1012 -0.1811
 5503TIP3    H138000   3.228   5.048   4.884  1.3391 -0.2694 -0.3199
 5503TIP3    H238001   3.301   5.058   4.752  2.1026  2.6226  0.2440
 5504TIP3   OH238002   0.241   0.670   1.401  0.2005  0.2483  0.5160
 5504TIP3    H138003   0.254   0.663   1.496  2.1823  1.9061  0.4169
 5504TIP3    H238004   0.214   0.760   1.387  1.6731  0.5447 -0.6382
 5505TIP3   OH238005   2.758   1.146  15.788 -0.1682 -0.3005  0.3657
 5505TIP3    H138006   2.778   1.100  15.869 -0.2771 -0.0276  0.5519
 5505TIP3    H238007   2.673   1.111  15.761  0.0764 -0.7135  0.1305
 5506TIP3   OH238008   2.851   1.280  11.285 -0.6349 -0.8454  0.4676
 5506TIP3    H138009   2.771   1.332  11.281 -0.9424 -1.2567  1.0326
 5506TIP3    H238010   2.839   1.211  11.220  0.4169  0.6241 -1.3812
 5507TIP3   OH238011   1.770   5.627   0.770 -0.2518 -0.7764 -0.6407
 5507TIP3    H138012   1.819   5.706   0.793 -1.4960 -0.2795  0.4125
 5507TIP3    H238013   1.769   5.626   0.674  1.2082 -0.4487 -0.6794
 5508TIP3   OH238014   1.102   4.689  16.250 -0.4781  0.1000 -0.3358
 5508TIP3    H138015   1.163   4.715  16.180 -0.7288  0.6167 -0.3678
 5508TIP3    H238016   1.153   4.698  16.330  0.6459 -2.9294 -0.5758
 5509TIP3   OH238017   2.790   0.387  15.973 -0.2211  0.3362 -0.1084
 5509TIP3    H138018   2.826   0.306  15.937 -0.2310 -0.4489  1.5806
 5509TIP3    H238019   2.859   0.452  15.957 -0.0108 -0.0898 -1.0392
 5510TIP3   OH238020   5.336   1.311  15.131  0.1704 -0.2272 -0.6224
 5510TIP3    H138021   5.363   1.246  15.195 -0.8316  0.4202  0.4891
 5510TIP3    H238022   5.291   1.261  15.063 -0.8032 -0.6977  0.3425
 5511TIP3   OH238023   3.454   5.106  13.950 -0.6147 -0.4940  0.2816
 5511TIP3    H138024   3.358   5.099  13.948 -0.7404  0.6474 -2.3025
 5511TIP3    H238025   3.484   5.016  13.963 -2.0494 -1.1271 -0.4999
 5512TIP3   OH238026   1.544   3.200  12.582 -0.1211  0.8272 -0.5513
 5512TIP3    H138027   1.588   3.119  12.607 -0.3911  1.0138  0.5594
 5512TIP3    H238028   1.611   3.250  12.535  0.7793  0.9736  0.8234
 5513TIP3   OH238029   3.609   4.387   4.342 -0.0332  0.5081 -0.0917
 5513TIP3    H138030   3.645   4.475   4.351  1.8472 -0.3233  1.2569
 5513TIP3    H238031   3.668   4.344   4.281  0.0472 -0.2792  0.5259
 5514TIP3   OH238032   0.095   3.723   5.479  1.3605  0.2737  0.5103
 5514TIP3    H138033   0.188   3.735   5.497  1.4985  1.6315 -0.8458
 5514TIP3    H238034   0.055   3.807   5.501  0.7218  0.2008 -0.2959
 5515TIP3   OH238035   5.655   5.955  11.656 -0.3047 -0.3391 -0.4392
 5515TIP3    H138036   5.733   6.007  11.677 -0.8323  0.6269 -0.7978
 5515TIP3    H238037   5.646   5.962  11.561 -3.2271  3.2467 -0.1075
 5516TIP3   OH238038   4.389   4.495  15.995  0.7737  0.1893  0.5273
 5516TIP3    H138039   4.439   4.423  15.957  1.2757  0.9101 -0.2110
 5516TIP3    H238040   4.314   4.506  15.936  1.4217  1.1489 -0.1525
 5517TIP3   OH238041   6.399   0.350   1.458  0.0961 -0.6698 -0.2324
 5517TIP3    H138042   6.474   0.370   1.513 -0.6178 -0.4760  0.6934
 5517TIP3    H238043   6.358   0.434   1.440 -1.3777 -0.9686  1.4522
 5518TIP3   OH238044   3.578   6.044  10.648 -0.1087  0.1693  0.1544
 5518TIP3    H138045   3.553   6.130  10.613  0.0601  0.3637  0.4967
 5518TIP3    H238046   3.500   6.013  10.693 -0.1442  0.1847  0.1036
 5519TIP3   OH238047   3.606   4.387  15.866  0.4699 -0.2141  0.3385
 5519TIP3    H138048   3.691   4.348  15.848  0.3273 -0.6884  0.6701
 5519TIP3    H238049   3.607   4.404  15.960  0.2435 -0.1225  0.3252
 5520TIP3   OH238050   5.983   6.724  13.691 -0.2978  0.8982  0.0915
 5520TIP3    H138051   6.060   6.727  13.748 -1.1522  0.3646  1.3018
 5520TIP3    H238052   5.963   6.631  13.682 -1.0667  1.0522  0.1361
 5521TIP3   OH238053   6.823   4.993   3.137 -0.1785 -0.1681  0.1266
 5521TIP3    H138054   6.768   4.948   3.073 -0.6088  0.5953 -0.0548
 5521TIP3    H238055   6.765   5.010   3.211  0.9401 -3.4218  1.9578
 5522TIP3   OH238056   6.019   2.433   4.993  0.1432  0.4897  0.1090
 5522TIP3    H138057   6.001   2.339   4.997  0.2765  0.4306 -0.4759
 5522TIP3    H238058   6.006   2.465   5.082  0.6255 -0.1792  0.4222
 5523TIP3   OH238059   3.738   3.123   2.074 -0.1471 -0.1555  0.2885
 5523TIP3    H138060   3.819   3.079   2.048 -0.4289 -0.1380 -0.6686
 5523TIP3    H238061   3.758   3.217   2.064 -0.0084 -0.1180  0.9073
 5524TIP3   OH238062   5.799   1.788   4.572 -0.6634 -0.3045 -0.3198
 5524TIP3    H138063   5.785   1.781   4.666 -0.8945 -1.2282 -0.4096
 5524TIP3    H238064   5.723   1.835   4.539 -0.9615 -0.6487 -0.1346
 5525TIP3   OH238065   2.772   3.771  13.804 -0.0547 -0.1001 -0.1164
 5525TIP3    H138066   2.688   3.817  13.814 -0.2974 -0.6644  0.5141
 5525TIP3    H238067   2.806   3.764  13.893 -0.6576 -2.2782  0.0113
 5526TIP3   OH238068   4.433   0.933   1.963  0.1454 -0.2176 -0.1791
 5526TIP3    H138069   4.414   1.022   1.995  0.1190 -0.3810  0.2658
 5526TIP3    H238070   4.456   0.945   1.871  1.4620  0.4304  0.2050
 5527TIP3   OH238071   5.980   2.231  16.795 -0.0321  0.2887  0.6473
 5527TIP3    H138072   5.926   2.152  16.798  1.8743 -1.0681  1.6847
 5527TIP3    H238073   6.052   2.209  16.736 -0.3578  1.9088 -0.4230
 5528TIP3   OH238074   3.505   3.253  16.599 -0.0655  0.3173  0.1458
 5528TIP3    H138075   3.452   3.178  16.573 -1.2676  0.9869  0.5940
 5528TIP3    H238076   3.444   3.311  16.645  1.0723  1.0861  0.7364
 5529TIP3   OH238077   1.408   6.159   1.692  0.7158 -0.3780 -0.0817
 5529TIP3    H138078   1.359   6.235   1.660  0.5437  0.1059  1.2981
 5529TIP3    H238079   1.397   6.093   1.623 -2.6087 -0.6023  0.5088
 5530TIP3   OH238080   4.897   5.060   3.664  0.1834  0.2793  0.5316
 5530TIP3    H138081   4.882   5.105   3.747  0.2145 -1.3620  1.4848
 5530TIP3    H238082   4.809   5.037   3.633  0.1918  0.4939  0.3507
 5531TIP3   OH238083   2.837   1.090   6.465  0.3963 -0.0284  0.1402
 5531TIP3    H138084   2.859   1.173   6.507  0.3035  0.1409 -0.1436
 5531TIP3    H238085   2.756   1.108   6.417  0.2636 -0.3393  0.2458
 5532TIP3   OH238086   3.645   6.631  14.434 -0.0612 -0.5059 -0.3472
 5532TIP3    H138087   3.671   6.702  14.376  1.1333 -1.4183 -0.9616
 5532TIP3    H238088   3.564   6.663  14.476  1.0351  1.6776  0.2486
 5533TIP3   OH238089   2.089   4.847   6.004  0.8179  0.3638 -0.4213
 5533TIP3    H138090   2.105   4.883   6.091  0.3179  2.1159 -0.9992
 5533TIP3    H238091   2.163   4.789   5.987 -0.3187 -2.0766  2.1357
 5534TIP3   OH238092   5.634   4.157   3.311  0.4302 -0.6911  0.6201
 5534TIP3    H138093   5.576   4.094   3.355 -0.0822 -1.7385 -1.4571
 5534TIP3    H238094   5.596   4.242   3.330 -1.1383 -1.2798  0.2639
 5535TIP3   OH238095   0.435   0.278   4.463 -0.1188 -0.2160  0.2031
 5535TIP3    H138096   0.364   0.290   4.526  0.0492  0.5819  0.2559
 5535TIP3    H238097   0.514   0.268   4.517  0.2568  1.9816  0.1481
 5536TIP3   OH238098   5.608   4.387  11.315  0.1731  0.1166 -0.4720
 5536TIP3    H138099   5.702   4.378  11.296  0.2307  0.1205 -0.1904
 5536TIP3    H238100   5.604   4.397  11.410 -0.1634 -0.5280 -0.4165
 5537TIP3   OH238101   5.359   4.414   0.073 -0.2029  0.0025  0.4235
 5537TIP3    H138102   5.421   4.363   0.021  1.4086  1.9529  0.2693
 5537TIP3    H238103   5.394   4.410   0.162  1.4833  2.7688  0.0137
 5538TIP3   OH238104   6.623   1.248   5.285  0.6187 -0.4264 -0.4199
 5538TIP3    H138105   6.684   1.317   5.312  1.9977 -1.8067  0.1299
 5538TIP3    H238106   6.554   1.295   5.237  0.8089  1.4651  1.0417
 5539TIP3   OH238107   1.271   6.540   1.000  0.2376  0.0527  0.3444
 5539TIP3    H138108   1.366   6.549   1.005  0.5044 -0.5064 -2.1777
 5539TIP3    H238109   1.253   6.453   1.034  0.6604  0.0874  0.6571
 5540TIP3   OH238110   5.212   1.493   6.623  0.2552 -0.0122 -0.1123
 5540TIP3    H138111   5.284   1.441   6.588 -0.3667 -1.9878  1.2892
 5540TIP3    H238112   5.247   1.581   6.633  1.8671 -0.4957 -1.1889
 5541TIP3   OH238113   2.943   4.440  13.013  0.6158  0.4431 -0.3891
 5541TIP3    H138114   2.891   4.520  12.998 -1.6585 -0.7680  0.5430
 5541TIP3    H238115   3.034   4.470  13.008 -0.0745  3.5862  2.1941
 5542TIP3   OH238116   5.195   1.944   1.586 -0.1496  0.0997 -0.1516
 5542TIP3    H138117   5.156   1.890   1.516  0.2623  0.7103 -0.8621
 5542TIP3    H238118   5.287   1.952   1.562 -0.6644  3.3166 -1.5496
 5543TIP3   OH238119   4.698   4.807  15.453  0.3880 -0.5733 -0.5664
 5543TIP3    H138120   4.714   4.865  15.528  0.8454 -0.4538 -0.7519
 5543TIP3    H238121   4.781   4.761  15.441  0.2337 -0.7818 -0.8425
 5544TIP3   OH238122   4.722   4.906   2.202  0.1618 -0.1184  0.3449
 5544TIP3    H138123   4.762   4.954   2.129 -0.2466 -0.6485 -0.2441
 5544TIP3    H238124   4.793   4.852   2.237  0.9018  1.6506  1.6870
 5545TIP3   OH238125   1.429   3.022  14.110  0.2670  0.1784 -0.2401
 5545TIP3    H138126   1.524   3.009  14.113  0.3144  0.2619  3.4741
 5545TIP3    H238127   1.401   2.970  14.035  3.0271 -1.7244 -0.1274
 5546TIP3   OH238128   1.869   2.452  13.462  0.2748  0.0003  0.1895
 5546TIP3    H138129   1.817   2.533  13.464 -0.8413 -0.6842  2.4475
 5546TIP3    H238130   1.937   2.466  13.528 -0.4094 -1.1603  1.1741
 5547TIP3   OH238131   5.329   3.972   4.025  0.4655 -0.6841  0.5134
 5547TIP3    H138132   5.402   3.945   3.969  0.2491 -1.2553  0.4999
 5547TIP3    H238133   5.298   3.891   4.065 -0.4220 -0.5127  0.2079
 5548TIP3   OH238134   6.386   4.116   3.836 -1.1643 -0.1664  0.1500
 5548TIP3    H138135   6.308   4.125   3.781 -0.3862 -1.6102 -1.2730
 5548TIP3    H238136   6.459   4.121   3.774 -0.2403 -1.2551  1.1133
 5549TIP3   OH238137   1.491   1.560   5.680 -0.3621 -0.0749 -0.6395
 5549TIP3    H138138   1.429   1.487   5.676 -0.7522  0.0081  2.0517
 5549TIP3    H238139   1.434   1.638   5.680 -0.0096  0.2178 -2.0929
 5550TIP3   OH238140   1.176   1.291   4.102 -0.0925 -0.5422 -0.5725
 5550TIP3    H138141   1.151   1.235   4.176 -1.7553 -0.9564 -1.3829
 5550TIP3    H238142   1.215   1.231   4.039  0.2104 -0.3945 -0.5266
 5551TIP3   OH238143   0.499   5.536   2.268 -0.3920 -0.5117 -0.5543
 5551TIP3    H138144   0.494   5.626   2.236 -0.5947  0.3551  1.7343
 5551TIP3    H238145   0.420   5.526   2.321  1.2420 -0.8381  1.9815
 5552TIP3   OH238146   4.099   2.324  13.343  0.2614 -0.5961  0.3110
 5552TIP3    H138147   4.135   2.374  13.270  2.0101 -0.8504  0.9562
 5552TIP3    H238148   4.010   2.358  13.353  0.8967  1.3608 -0.2022
 5553TIP3   OH238149   4.842   0.745  11.857 -0.3378  0.1106 -0.5684
 5553TIP3    H138150   4.890   0.726  11.938 -2.7532  1.5277  1.3255
 5553TIP3    H238151   4.903   0.799  11.806  0.7726  0.3284  0.9123
 5554TIP3   OH238152   2.071   1.016   5.059  0.3349  0.3366 -0.5084
 5554TIP3    H138153   2.083   0.937   5.112 -0.8872  0.4808  0.0091
 5554TIP3    H238154   2.149   1.068   5.076 -0.4669  0.8583  2.0204
 5555TIP3   OH238155   4.447   5.346   1.967  0.2100  0.7112  0.0768
 5555TIP3    H138156   4.389   5.402   2.017 -0.7401 -0.4318  0.3072
 5555TIP3    H238157   4.512   5.315   2.030 -0.5760 -0.1788  0.4686
 5556TIP3   OH238158   5.719   6.263   2.874 -0.4063 -0.2095  0.1713
 5556TIP3    H138159   5.625   6.274   2.862 -0.3049 -0.3054 -0.8015
 5556TIP3    H238160   5.758   6.304   2.797  0.3998  0.6064  0.9867
 5557TIP3   OH238161   2.819   2.869  17.164 -0.1480 -0.4787 -0.2595
 5557TIP3    H138162   2.789   2.782  17.138 -0.5302 -0.5579  0.3972
 5557TIP3    H238163   2.900   2.883  17.115 -0.3214 -1.0171 -0.7088
 5558TIP3   OH238164   1.434   6.258  16.837 -0.1610  0.1607  0.0553
 5558TIP3    H138165   1.444   6.252  16.932  1.0530  2.2820  0.1147
 5558TIP3    H238166   1.517   6.225  16.803 -0.7095 -0.8833 -0.3215
 5559TIP3   OH238167   3.053   4.960  14.361 -0.6353  0.1231 -0.2192
 5559TIP3    H138168   3.147   4.975  14.351 -0.0805 -1.9244  1.3835
 5559TIP3    H238169   3.014   5.048  14.355  1.5121  1.1841  0.4908
 5560TIP3   OH238170   5.207   4.539  14.108  0.5980 -0.3218 -0.3760
 5560TIP3    H138171   5.186   4.474  14.176 -0.7992  1.7815  1.3145
 5560TIP3    H238172   5.302   4.550  14.114  0.5575 -0.5508  0.8795
 5561TIP3   OH238173   0.143   6.220  15.388  0.3735  0.0030 -0.0823
 5561TIP3    H138174   0.155   6.127  15.407 -1.7036 -0.3506 -0.2445
 5561TIP3    H238175   0.048   6.234  15.397  0.4982  1.8488 -1.2001
 5562TIP3   OH238176   6.134   6.354  13.564  0.3570 -0.4403 -0.3217
 5562TIP3    H138177   6.086   6.301  13.501  1.7938 -2.1264 -0.0554
 5562TIP3    H238178   6.225   6.324  13.558  0.7016 -0.0393  1.9033
 5563TIP3   OH238179   4.370   6.186   0.922  0.1204  0.5745  0.3927
 5563TIP3    H138180   4.341   6.277   0.928  0.1994  0.9080 -2.7848
 5563TIP3    H238181   4.417   6.181   0.839  1.7268 -1.9832  1.3260
 5564TIP3   OH238182   0.635   0.741  14.480  0.2925  0.4302  0.0479
 5564TIP3    H138183   0.598   0.654  14.465 -0.3420  0.5688  0.7227
 5564TIP3    H238184   0.730   0.729  14.474  0.2244 -0.3969  0.5544
 5565TIP3   OH238185   3.797   4.597  13.290 -0.1009 -0.3939  0.0224
 5565TIP3    H138186   3.862   4.616  13.357 -0.5096 -1.7886  0.8612
 5565TIP3    H238187   3.726   4.659  13.307 -0.1911 -0.7225  0.8862
 5566TIP3   OH238188   5.297   0.573  11.050 -0.1039  0.8268  0.0359
 5566TIP3    H138189   5.242   0.572  10.972 -1.7102  1.4283  1.1138
 5566TIP3    H238190   5.278   0.656  11.092  0.7836  0.5477  1.0469
 5567TIP3   OH238191   2.713   1.964  14.964  0.8268  0.0223 -0.2282
 5567TIP3    H138192   2.727   1.880  14.919  0.0292 -0.4703  0.4097
 5567TIP3    H238193   2.781   1.966  15.032  0.4838 -0.3847  0.1313
 5568TIP3   OH238194   0.960   4.540   3.732 -0.2200  0.2224 -0.2769
 5568TIP3    H138195   0.931   4.459   3.774  0.3636 -0.8472 -1.8723
 5568TIP3    H238196   0.881   4.575   3.690 -0.4455  0.4231  0.3061
 5569TIP3   OH238197   3.366   3.215   0.296 -0.3718  0.1909  0.4451
 5569TIP3    H138198   3.436   3.173   0.246 -0.9937 -1.3574  0.8238
 5569TIP3    H238199   3.405   3.232   0.381  0.3666  1.8824 -0.1830
 5570TIP3   OH238200   4.025   6.675   4.423  0.0544 -0.2769 -0.3921
 5570TIP3    H138201   4.004   6.734   4.495  2.1298 -1.2517  1.1236
 5570TIP3    H238202   4.055   6.732   4.352 -0.0445  0.5867  0.2470
 5571TIP3   OH238203   2.878   0.080  13.895  0.2281 -0.0303 -0.2822
 5571TIP3    H138204   2.915   0.037  13.972 -0.9929 -1.0167 -0.2165
 5571TIP3    H238205   2.953   0.094  13.838  1.0418  0.0397  0.7639
 5572TIP3   OH238206   0.269   2.699   5.867 -0.3318  0.2179  0.6482
 5572TIP3    H138207   0.291   2.740   5.951  0.0408  0.3987  0.4670
 5572TIP3    H238208   0.354   2.680   5.827 -0.5008 -0.5080  0.6193
 5573TIP3   OH238209   1.972   5.746  15.016  0.2976 -0.4947  0.0370
 5573TIP3    H138210   2.037   5.710  14.957 -0.8914  0.2930 -1.8785
 5573TIP3    H238211   1.942   5.671  15.068  0.5631 -1.4938 -1.1902
 5574TIP3   OH238212   3.655   0.910   4.957  0.2888  0.1001  0.5233
 5574TIP3    H138213   3.653   0.857   5.037 -1.4488 -1.4496 -0.4434
 5574TIP3    H238214   3.565   0.943   4.948  0.3400 -0.0874 -0.9597
 5575TIP3   OH238215   4.852   4.904  12.455 -0.1593 -0.3185 -0.3536
 5575TIP3    H138216   4.780   4.943  12.505 -1.8686 -1.2922 -1.8954
 5575TIP3    H238217   4.821   4.904  12.365  1.0857 -2.2732 -0.8557
 5576TIP3   OH238218   1.308   0.983   2.118 -0.1083 -0.3185 -0.7192
 5576TIP3    H138219   1.250   1.040   2.169  1.9643 -0.5650  2.1460
 5576TIP3    H238220   1.306   1.020   2.029 -1.8452  1.8185  0.1272
 5577TIP3   OH238221   1.208   0.200  14.539 -0.4437  0.1406  0.2387
 5577TIP3    H138222   1.256   0.120  14.517 -1.7474 -0.6206  0.0598
 5577TIP3    H238223   1.139   0.205  14.473  0.2721  2.0252 -0.4229
 5578TIP3   OH238224   1.632   6.141  13.368  0.2998 -0.2120 -0.2065
 5578TIP3    H138225   1.629   6.120  13.462  0.9563 -0.9448 -0.3420
 5578TIP3    H238226   1.719   6.112  13.340 -0.6549 -2.0320 -1.5056
 5579TIP3   OH238227   6.158   0.090   4.678  0.0924 -0.0593  0.1574
 5579TIP3    H138228   6.210   0.010   4.681 -0.3833 -0.4498 -1.1940
 5579TIP3    H238229   6.068   0.061   4.696 -0.3111 -0.0859 -1.7225
 5580TIP3   OH238230   3.698   5.956  13.140 -0.1514 -0.6514  0.1870
 5580TIP3    H138231   3.704   5.861  13.126  0.7963 -0.9235  2.1171
 5580TIP3    H238232   3.742   5.971  13.223  2.4687  1.8914 -1.4614
 5581TIP3   OH238233   3.966   3.778  13.201 -0.4958 -0.4498 -0.0835
 5581TIP3    H138234   3.886   3.798  13.153  0.6389  0.5725 -1.6798
 5581TIP3    H238235   3.938   3.766  13.291 -2.6610 -1.8842 -0.8805
 5582TIP3   OH238236   3.997   2.282  12.673 -0.5997 -0.2518  0.4724
 5582TIP3    H138237   4.018   2.300  12.765 -4.6137  2.3581  1.1362
 5582TIP3    H238238   3.907   2.250  12.675 -1.6340  1.9598 -2.6163
 5583TIP3   OH238239   2.443   1.988  16.116 -0.2943 -0.2427 -0.1425
 5583TIP3    H138240   2.377   2.038  16.067 -2.5898 -3.1394 -0.2910
 5583TIP3    H238241   2.423   1.896  16.097  2.8012 -1.3514  1.1895
 5584TIP3   OH238242   5.273   0.137   5.086 -0.2135  0.1587  0.0898
 5584TIP3    H138243   5.274   0.227   5.051  2.7618  0.2258  0.0413
 5584TIP3    H238244   5.301   0.083   5.012 -1.5748 -0.7849  0.2415
 5585TIP3   OH238245   2.672   0.188   3.393  0.7198  0.2860  0.5212
 5585TIP3    H138246   2.643   0.234   3.315  0.1556  1.0649  1.1704
 5585TIP3    H238247   2.718   0.255   3.444 -1.1708  0.5029  2.0558
 5586TIP3   OH238248   4.813   1.098   3.864 -0.3033  0.0872  0.2956
 5586TIP3    H138249   4.749   1.071   3.798 -1.7172  1.6335  0.9393
 5586TIP3    H238250   4.825   1.192   3.848  1.9187 -0.1570  0.1610
 5587TIP3   OH238251   4.544   1.671  15.369 -1.0224 -0.1696 -0.1102
 5587TIP3    H138252   4.625   1.639  15.409 -0.2821  1.8320  0.0849
 5587TIP3    H238253   4.556   1.655  15.275 -0.5978 -0.2737 -0.0397
 5588TIP3   OH238254   1.151   6.603  14.363  0.4321 -0.8827 -0.2971
 5588TIP3    H138255   1.236   6.564  14.382  2.0115  0.2250 -4.1905
 5588TIP3    H238256   1.101   6.534  14.320  0.4509 -0.6873 -0.6314
 5589TIP3   OH238257   5.744   4.414   2.192 -0.7120 -0.0649  0.5602
 5589TIP3    H138258   5.779   4.449   2.110  1.8841 -0.3873  1.4527
 5589TIP3    H238259   5.690   4.485   2.228  0.6865  1.2838  0.0826
 5590TIP3   OH238260   4.067   1.467   5.451 -0.5865 -0.3883 -0.0006
 5590TIP3    H138261   4.110   1.472   5.366  0.5856  2.8397  0.6454
 5590TIP3    H238262   3.973   1.469   5.431 -0.3220  0.9941 -1.2626
 5591TIP3   OH238263   5.915   5.556   1.289  0.6402  0.0239  0.1144
 5591TIP3    H138264   5.949   5.599   1.367 -0.3653  0.9290  0.0919
 5591TIP3    H238265   5.992   5.529   1.240  1.2856 -1.1117  1.7051
 5592TIP3   OH238266   0.435   2.001   4.526  0.0907  0.6891  0.0355
 5592TIP3    H138267   0.383   1.925   4.498  0.4394  0.4535  0.0232
 5592TIP3    H238268   0.370   2.072   4.536 -0.3086  0.2500  0.5854
 5593TIP3   OH238269   1.967   4.123  17.027 -0.3040 -0.5680  0.0824
 5593TIP3    H138270   1.892   4.072  16.998 -1.4875 -0.4585  2.7020
 5593TIP3    H238271   1.978   4.100  17.119  1.5323  1.0538  0.3331
 5594TIP3   OH238272   5.176   6.229  17.177 -0.3456  0.1136 -0.6153
 5594TIP3    H138273   5.231   6.151  17.165  0.0825  0.7621 -3.7316
 5594TIP3    H238274   5.182   6.248  17.270  1.8433 -1.9244 -0.2318
 5595TIP3   OH238275   3.413   5.525  14.775 -0.0602 -0.6471  0.4990
 5595TIP3    H138276   3.425   5.600  14.833 -0.0671 -1.5819  1.7411
 5595TIP3    H238277   3.489   5.469  14.791  0.7737 -0.1850 -1.5835
 5596TIP3   OH238278   2.897   3.912   5.047  0.1802  0.1324  0.4184
 5596TIP3    H138279   2.992   3.908   5.063  0.4438  0.3110 -0.9157
 5596TIP3    H238280   2.874   3.822   5.024  0.1824  0.2198  0.0539
 5597TIP3   OH238281   4.069   4.375   5.266  0.1360 -0.3382 -0.3287
 5597TIP3    H138282   3.977   4.394   5.246 -0.9649 -1.0099  3.3167
 5597TIP3    H238283   4.091   4.432   5.340  2.8743  0.1595 -1.4057
 5598TIP3   OH238284   6.484   3.239  14.988 -0.6031  0.3064 -0.8744
 5598TIP3    H138285   6.447   3.295  14.919  0.6031  1.2227 -0.8046
 5598TIP3    H238286   6.543   3.180  14.942  0.4186  1.1036 -0.6307
 5599TIP3   OH238287   5.172   1.383  10.493 -0.3216  0.0526 -0.2240
 5599TIP3    H138288   5.139   1.471  10.472 -2.6004 -0.5670  0.4442
 5599TIP3    H238289   5.100   1.324  10.471  1.1618 -1.6923 -0.6729
 5600TIP3   OH238290   1.051   1.644  11.328 -0.1958  0.3256  1.0627
 5600TIP3    H138291   0.969   1.603  11.299  0.2522  0.4358 -0.4533
 5600TIP3    H238292   1.120   1.593  11.285  0.4240  1.6722  0.3772
 5601TIP3   OH238293   1.078   0.854  15.090 -0.7818 -0.9511  0.0534
 5601TIP3    H138294   1.039   0.783  15.142 -2.7268  1.4829  2.1943
 5601TIP3    H238295   1.018   0.928  15.101  3.0905  2.3635  1.4772
 5602TIP3   OH238296   4.263   6.315  12.192  0.5877 -0.0473  0.0979
 5602TIP3    H138297   4.175   6.353  12.194  0.2531 -0.8380  1.7841
 5602TIP3    H238298   4.269   6.272  12.106 -0.5206  0.3322 -0.1808
 5603TIP3   OH238299   1.566   4.173  15.016  0.1253 -0.2254  0.3035
 5603TIP3    H138300   1.600   4.262  15.024  0.3327 -0.3043  0.3134
 5603TIP3    H238301   1.644   4.120  14.996  0.2319 -0.6164  1.6738
 5604TIP3   OH238302   4.450   1.641  11.609  0.0609  0.3958  0.0173
 5604TIP3    H138303   4.415   1.577  11.671  2.2999 -0.1373  0.8162
 5604TIP3    H238304   4.450   1.596  11.525 -2.0800  0.7875 -0.2479
 5605TIP3   OH238305   5.531   3.163   0.546 -0.0246 -0.1268  0.1801
 5605TIP3    H138306   5.442   3.128   0.541  0.3121 -1.0176  0.3551
 5605TIP3    H238307   5.527   3.243   0.493 -1.1870  0.4139  1.0419
 5606TIP3   OH238308   4.897   4.789  12.871 -0.7192 -0.2896 -0.2694
 5606TIP3    H138309   4.894   4.716  12.933 -0.2758 -0.1990 -0.1394
 5606TIP3    H238310   4.904   4.867  12.926 -1.9036 -0.0919 -0.3831
 5607TIP3   OH238311   2.638   2.264  13.951 -0.5085 -0.4825 -0.3047
 5607TIP3    H138312   2.562   2.241  13.897  0.4192  0.5253 -2.1002
 5607TIP3    H238313   2.599   2.304  14.030 -1.8545 -0.7518 -0.8022
 5608TIP3   OH238314   1.355   3.458  16.181  0.5769 -0.2283  0.2704
 5608TIP3    H138315   1.337   3.374  16.223  0.7064  0.8306  2.6206
 5608TIP3    H238316   1.319   3.450  16.093  0.5365 -2.7008  0.4541
 5609TIP3   OH238317   0.204   4.014  15.350 -0.1885  0.0251  0.4288
 5609TIP3    H138318   0.196   4.087  15.288  0.3523 -0.2005  0.0826
 5609TIP3    H238319   0.117   3.976  15.355  0.3128 -1.6850 -2.3322
 5610TIP3   OH238320   0.638   5.470  12.037 -0.4954 -0.4721 -0.3890
 5610TIP3    H138321   0.565   5.515  12.080  0.1751 -0.1688  0.4393
 5610TIP3    H238322   0.704   5.459  12.105 -0.2348 -1.8263 -0.8172
 5611TIP3   OH238323   6.354   5.734  15.189  0.1520 -0.1502  0.0299
 5611TIP3    H138324   6.428   5.796  15.196 -0.1936  0.2453  0.2186
 5611TIP3    H238325   6.387   5.654  15.230 -0.2425  0.6914  2.1240
 5612TIP3   OH238326   0.078   5.543  17.041 -0.2677  0.1460 -0.5770
 5612TIP3    H138327  -0.010   5.544  17.002  0.1804 -1.0941 -1.7015
 5612TIP3    H238328   0.136   5.572  16.971  0.5484 -2.0370 -0.8792
 5613TIP3   OH238329   1.734   3.039   6.097 -0.5164 -0.2229 -0.3298
 5613TIP3    H138330   1.822   3.013   6.123 -0.7372 -0.7111 -0.0559
 5613TIP3    H238331   1.676   2.985   6.150 -0.9977  0.7532  0.1836
 5614TIP3   OH238332   0.754   6.680  14.519  0.4070  0.1080 -0.5302
 5614TIP3    H138333   0.780   6.655  14.431  1.4424  0.6193 -0.3961
 5614TIP3    H238334   0.689   6.749  14.507  0.2401 -0.1119 -0.8882
 5615TIP3   OH238335   3.236   1.644  13.815  0.1482  0.0764  0.2954
 5615TIP3    H138336   3.176   1.692  13.758  1.4890  1.2828 -0.1615
 5615TIP3    H238337   3.180   1.585  13.864 -1.0063 -1.7341 -2.9138
 5616TIP3   OH238338   0.470   5.616  11.045  0.5552 -0.2783 -0.2849
 5616TIP3    H138339   0.515   5.587  11.124 -0.0923  0.3992  0.3549
 5616TIP3    H238340   0.531   5.597  10.973  1.0014 -1.2303  0.3329
 5617TIP3   OH238341   6.797   6.242   4.287  0.1285 -0.1787  0.3691
 5617TIP3    H138342   6.749   6.289   4.356  0.4204  0.0940  0.3858
 5617TIP3    H238343   6.786   6.296   4.209  0.6771  0.0518  0.4467
 5618TIP3   OH238344   4.214   4.880   5.474  0.1829 -0.0251  0.0038
 5618TIP3    H138345   4.295   4.832   5.493  0.4626  1.2701  2.4377
 5618TIP3    H238346   4.215   4.953   5.536 -1.5697  1.5495 -1.7440
 5619TIP3   OH238347   0.785   1.695   2.604 -0.6831 -0.3324  0.2301
 5619TIP3    H138348   0.722   1.627   2.627 -2.3667  1.0785 -0.0700
 5619TIP3    H238349   0.791   1.749   2.683  0.0601 -0.3606  0.2012
 5620TIP3   OH238350   4.435   2.899   4.976  0.0197 -0.1369  0.5246
 5620TIP3    H138351   4.504   2.866   5.033  0.8751  1.1702  0.2906
 5620TIP3    H238352   4.444   2.847   4.895 -1.4599 -2.2777  1.6316
 5621TIP3   OH238353   1.914   4.103   3.937 -0.4413  0.5239  0.2832
 5621TIP3    H138354   1.907   4.126   4.030  1.9930 -1.5210  1.0715
 5621TIP3    H238355   1.997   4.141   3.910 -1.7784  2.3498 -1.5575
 5622TIP3   OH238356   2.205   5.159   6.281  0.4807 -0.5089  0.2017
 5622TIP3    H138357   2.249   5.074   6.270  1.8264  0.0872  0.7451
 5622TIP3    H238358   2.247   5.198   6.357  0.5146  1.0269 -0.5599
 5623TIP3   OH238359   6.154   1.289   2.787  0.4176  0.0333  0.2588
 5623TIP3    H138360   6.232   1.248   2.749  0.5457  0.3610  0.1570
 5623TIP3    H238361   6.159   1.269   2.880 -0.1209 -1.1416  0.0550
 5624TIP3   OH238362   3.947   4.420   0.383  0.1287  0.4227  0.5208
 5624TIP3    H138363   3.899   4.392   0.305 -0.0849  0.7961  0.5173
 5624TIP3    H238364   4.034   4.442   0.351 -0.3147  1.7684  0.1679
 5625TIP3   OH238365   3.147   1.397   0.076  0.3205 -0.0773 -0.1574
 5625TIP3    H138366   3.118   1.353   0.157  2.1007 -0.6754  0.1873
 5625TIP3    H238367   3.242   1.404   0.085  0.6065 -0.5443 -2.3974
 5626TIP3   OH238368   3.578   1.295  12.775 -0.0138  0.6283 -0.4497
 5626TIP3    H138369   3.536   1.369  12.732  0.0003  0.9574  0.0814
 5626TIP3    H238370   3.506   1.243  12.809 -0.0394  0.0882 -1.3117
 5627TIP3   OH238371   4.831   4.306   6.436  0.5823  0.1566  0.2257
 5627TIP3    H138372   4.904   4.273   6.383  0.1002 -0.0915 -0.3045
 5627TIP3    H238373   4.760   4.319   6.372  0.5106  1.4638  0.5508
 5628TIP3   OH238374   4.864   5.240  16.271  0.4479 -0.2060  0.2676
 5628TIP3    H138375   4.822   5.326  16.261  0.0012 -0.3693  0.7060
 5628TIP3    H238376   4.921   5.250  16.347  0.1321 -0.4061  0.5268
 5629TIP3   OH238377   4.266   6.404   4.576  0.4995  0.5293  0.0373
 5629TIP3    H138378   4.359   6.423   4.565  0.2179  1.7416 -0.3993
 5629TIP3    H238379   4.244   6.346   4.503  1.1786 -0.8452  0.8817
 5630TIP3   OH238380   0.037   2.146   1.173  0.1870 -0.6167 -0.3333
 5630TIP3    H138381   0.016   2.090   1.248 -0.3300  0.9794  0.7533
 5630TIP3    H238382   0.133   2.147   1.170  0.3624  1.7110  2.2829
 5631TIP3   OH238383   2.784   5.245  11.581  0.4658 -0.5444 -0.2154
 5631TIP3    H138384   2.866   5.203  11.554  1.3465  2.4438 -2.7419
 5631TIP3    H238385   2.725   5.233  11.507  0.1662  1.0973 -0.2755
 5632TIP3   OH238386   4.135   4.199  16.443  0.4210 -0.1357  0.4071
 5632TIP3    H138387   4.214   4.202  16.389 -0.4064  0.3224 -0.8307
 5632TIP3    H238388   4.114   4.105  16.449  2.5460 -0.5474  3.0917
 5633TIP3   OH238389   1.972   1.069  13.040  0.3245 -0.2438  0.2656
 5633TIP3    H138390   1.968   1.012  12.963 -1.0944  0.0665  0.0792
 5633TIP3    H238391   1.951   1.156  13.006 -0.3879 -0.1208  1.0090
 5634TIP3   OH238392   4.718   2.117   3.718 -0.3390  0.3889  0.0369
 5634TIP3    H138393   4.669   2.195   3.741  2.1529  2.0466  0.1818
 5634TIP3    H238394   4.677   2.084   3.638 -0.7387  2.5874 -0.7141
 5635TIP3   OH238395   3.079   5.115  16.900  0.3008 -0.2106  0.0483
 5635TIP3    H138396   3.054   5.205  16.918  2.4326  0.6670 -0.9396
 5635TIP3    H238397   3.077   5.108  16.804  1.6520 -0.6745  0.0207
 5636TIP3   OH238398   6.652   3.951   4.501  0.0569  0.1087  0.0224
 5636TIP3    H138399   6.584   3.915   4.444  1.4008 -2.2908 -0.1976
 5636TIP3    H238400   6.711   3.998   4.442 -0.3686  0.5693 -0.0454
 5637TIP3   OH238401   1.149   5.527   1.421 -0.2245  0.4589  0.1165
 5637TIP3    H138402   1.119   5.515   1.512 -0.3507  0.7369  0.1139
 5637TIP3    H238403   1.074   5.565   1.376  0.1137  1.1089  0.0941
 5638TIP3   OH238404   4.104   5.497  13.236 -0.3151 -0.3986 -0.3715
 5638TIP3    H138405   4.196   5.519  13.221 -0.5238 -0.5412 -2.1324
 5638TIP3    H238406   4.091   5.416  13.186 -0.9157 -1.5111  1.5053
 5639TIP3   OH238407   6.698   5.408  16.393 -0.4081 -0.5066  0.3017
 5639TIP3    H138408   6.611   5.408  16.354  0.0097  2.5749 -0.9139
 5639TIP3    H238409   6.755   5.442  16.324  1.3443 -0.1373  1.8502
 5640TIP3   OH238410   2.677   0.135  15.417  0.1374  0.1476  0.3068
 5640TIP3    H138411   2.647   0.044  15.416 -1.4581  0.6265  0.7101
 5640TIP3    H238412   2.607   0.183  15.373  0.1648  1.3794  1.5455
 5641TIP3   OH238413   5.699   1.065  16.700  0.4853 -0.3011  0.0368
 5641TIP3    H138414   5.761   0.994  16.682 -0.9764 -1.4602 -0.6235
 5641TIP3    H238415   5.744   1.144  16.669  0.7264 -1.3957 -2.6299
 5642TIP3   OH238416   1.978   1.440   6.477  0.4024  0.7726 -0.2058
 5642TIP3    H138417   2.053   1.461   6.421 -0.4042  1.6488 -0.9985
 5642TIP3    H238418   1.927   1.521   6.479 -1.0784 -0.1291 -0.5606
 5643TIP3   OH238419   4.925   6.623  10.814  0.3337 -0.0046  0.5864
 5643TIP3    H138420   4.832   6.646  10.820  0.1077 -1.1653  2.5106
 5643TIP3    H238421   4.943   6.619  10.720 -1.3873  0.8689  0.1778
 5644TIP3   OH238422   3.504   0.466   5.851  0.1300 -0.0929 -0.1012
 5644TIP3    H138423   3.474   0.504   5.933 -1.4289  0.5176 -0.9114
 5644TIP3    H238424   3.565   0.530   5.815  2.7225 -1.3895  1.6070
 5645TIP3   OH238425   5.632   3.466   2.718  0.4616 -0.1049  0.6757
 5645TIP3    H138426   5.675   3.514   2.647 -0.2081  0.9478  0.9663
 5645TIP3    H238427   5.545   3.445   2.683 -0.0029  0.7307  1.2904
 5646TIP3   OH238428   2.743   2.566   1.976  0.0459 -0.1211  0.4292
 5646TIP3    H138429   2.809   2.498   1.988 -0.8037 -1.1095 -0.3250
 5646TIP3    H238430   2.747   2.587   1.883  0.0321  0.5945  0.5849
 5647TIP3   OH238431   4.164   2.661   5.634  0.0426  0.0884  0.0313
 5647TIP3    H138432   4.166   2.589   5.571  0.0539  0.2460 -0.1521
 5647TIP3    H238433   4.204   2.734   5.587 -1.2762  0.6181 -0.3007
 5648TIP3   OH238434   3.524   2.753  17.004 -0.1194 -0.0771  0.3256
 5648TIP3    H138435   3.430   2.769  16.992  0.0788 -0.2940 -2.0299
 5648TIP3    H238436   3.535   2.748  17.098 -1.8026  4.0908  0.9807
 5649TIP3   OH238437   4.922   6.016  16.896  0.1917 -0.2970 -0.6414
 5649TIP3    H138438   4.931   6.074  16.821  3.3163 -0.4289 -0.4835
 5649TIP3    H238439   4.924   6.074  16.972  0.3758 -0.3925 -0.5719
 5650TIP3   OH238440   5.419   5.934  16.728 -0.9662 -0.2803  0.6016
 5650TIP3    H138441   5.397   5.943  16.635  0.9153 -0.9925  0.0243
 5650TIP3    H238442   5.377   6.008  16.770  0.5743  1.8413 -1.3198
 5651TIP3   OH238443   3.097   2.100  10.663 -0.3121  0.1335  0.1599
 5651TIP3    H138444   3.156   2.025  10.652 -0.6925  0.0859 -1.9517
 5651TIP3    H238445   3.125   2.162  10.596 -2.3191  0.3122 -0.5617
 5652TIP3   OH238446   3.433   2.407   4.616  0.1226 -0.8291 -0.7259
 5652TIP3    H138447   3.407   2.466   4.545  0.5208  0.0355 -0.1782
 5652TIP3    H238448   3.351   2.390   4.663 -0.3557 -2.3010 -1.9973
 5653TIP3   OH238449   6.468   5.498  11.339  0.0217  0.1098  0.3939
 5653TIP3    H138450   6.491   5.589  11.320  2.5211 -0.3576  0.8601
 5653TIP3    H238451   6.417   5.469  11.263 -0.6978  1.8256  0.1864
 5654TIP3   OH238452   1.648   4.981  15.497  0.2813 -0.1266 -0.9748
 5654TIP3    H138453   1.633   5.075  15.496  0.9898 -0.0109 -1.5898
 5654TIP3    H238454   1.680   4.963  15.586 -0.6025  0.0767 -0.6042
 5655TIP3   OH238455   6.737   0.532  15.519 -0.2305 -0.3968  0.3370
 5655TIP3    H138456   6.705   0.503  15.433 -0.8930 -2.5462  1.2570
 5655TIP3    H238457   6.696   0.472  15.581 -0.2543  1.5028  2.2455
 5656TIP3   OH238458   1.645   5.153  15.986  0.3638  0.0866  0.0878
 5656TIP3    H138459   1.683   5.240  15.972 -0.7509  0.5710 -0.0652
 5656TIP3    H238460   1.705   5.110  16.046  1.5505  0.5328 -0.7381
 5657TIP3   OH238461   4.609   2.904   5.216  0.2713  0.5134  0.1068
 5657TIP3    H138462   4.665   2.906   5.293  0.4289 -0.0435  0.0111
 5657TIP3    H238463   4.669   2.891   5.143  0.0242 -0.0867  0.0024
 5658TIP3   OH238464   2.376   6.237  13.769  0.2740  0.1945  0.3990
 5658TIP3    H138465   2.405   6.145  13.770 -1.2107 -0.2854  1.1344
 5658TIP3    H238466   2.432   6.280  13.834  1.3683 -0.0469 -0.3561
 5659TIP3   OH238467   3.884   5.856   4.422  0.3019  0.0603  0.2909
 5659TIP3    H138468   3.878   5.870   4.328 -2.5820  1.2486  0.5238
 5659TIP3    H238469   3.886   5.761   4.432 -0.6733 -0.1283 -0.9773
 5660TIP3   OH238470   0.953   5.940   5.385  0.2567  0.8817  0.1363
 5660TIP3    H138471   0.899   6.012   5.418 -1.1550 -0.7439  1.4918
 5660TIP3    H238472   0.948   5.949   5.290 -1.9035  1.1803  0.2199
 5661TIP3   OH238473   5.632   3.613  16.477 -0.5079 -0.1001  0.5015
 5661TIP3    H138474   5.538   3.600  16.492 -0.3192 -0.3694  1.4881
 5661TIP3    H238475   5.648   3.703  16.507 -0.7515  0.5699 -1.2290
 5662TIP3   OH238476   3.609   2.010   6.072  0.5302 -0.4074 -0.2408
 5662TIP3    H138477   3.703   2.028   6.080  0.5110 -0.2925 -0.2776
 5662TIP3    H238478   3.567   2.092   6.096  0.4903  0.7509 -3.7794
 5663TIP3   OH238479   2.692   4.100  12.336 -0.4568  0.8303 -0.4548
 5663TIP3    H138480   2.637   4.021  12.334  1.6996 -0.7484 -0.6783
 5663TIP3    H238481   2.670   4.142  12.420 -0.7000 -0.7474  0.3058
 5664TIP3   OH238482   6.016   2.539   2.280  0.4184  0.1401 -0.5601
 5664TIP3    H138483   5.951   2.552   2.211  0.4824 -0.6128 -0.7718
 5664TIP3    H238484   6.071   2.468   2.248  1.6763  1.1081 -0.6140
 5665TIP3   OH238485   6.313   1.289  16.538  0.4014  0.3084  0.5877
 5665TIP3    H138486   6.394   1.311  16.491  0.1196 -0.0331 -0.0679
 5665TIP3    H238487   6.282   1.373  16.573  0.7625  0.5242  0.3994
 5666TIP3   OH238488   2.060   2.484   3.245  0.1873 -0.4811 -0.1417
 5666TIP3    H138489   2.107   2.402   3.261 -1.0375 -1.8522 -2.8235
 5666TIP3    H238490   2.120   2.536   3.192  0.7029  0.1268  0.9989
 5667TIP3   OH238491   1.152   5.908  15.594 -0.0813 -0.4953 -0.2498
 5667TIP3    H138492   1.104   5.980  15.633  0.2331 -0.7049  0.5415
 5667TIP3    H238493   1.091   5.870  15.531 -0.5960 -0.1457  0.0276
 5668TIP3   OH238494   4.982   2.637  12.663  0.2459  0.8791 -0.2861
 5668TIP3    H138495   4.994   2.723  12.704  0.2986  0.7899 -0.1133
 5668TIP3    H238496   4.935   2.656  12.582 -2.1010  0.8333  0.9479
 5669TIP3   OH238497   0.332   5.323  12.620  0.0473 -1.0784 -0.4720
 5669TIP3    H138498   0.287   5.338  12.704  0.2927 -1.5386 -0.2572
 5669TIP3    H238499   0.271   5.358  12.555 -0.0043 -0.4084 -0.0844
 5670TIP3   OH238500   5.983   5.619  12.133  0.3010 -0.5270  0.5006
 5670TIP3    H138501   6.021   5.625  12.045  0.3860 -1.7090  0.4519
 5670TIP3    H238502   5.985   5.709  12.165 -1.5239  0.3049 -1.4571
 5671TIP3   OH238503   3.371   0.370  11.355  0.1701 -0.1789  0.7341
 5671TIP3    H138504   3.453   0.410  11.382  1.0626 -0.9869 -0.6409
 5671TIP3    H238505   3.341   0.322  11.432  0.9968  0.1306  1.2593
 5672TIP3   OH238506   5.458   1.046   5.390  0.4077  1.1409 -0.0341
 5672TIP3    H138507   5.431   0.994   5.465 -0.4010  0.3377 -0.8508
 5672TIP3    H238508   5.390   1.113   5.382 -0.6325  0.0201 -1.1977
 5673TIP3   OH238509   5.148   4.917  16.435  0.0376  0.1206 -0.5216
 5673TIP3    H138510   5.162   4.997  16.383 -1.9421  1.4542  0.8568
 5673TIP3    H238511   5.128   4.949  16.523 -1.3513 -1.8669 -0.0486
 5674TIP3   OH238512   3.970   3.055   5.826 -0.3426 -0.4000 -0.3953
 5674TIP3    H138513   3.885   3.082   5.790 -0.4699 -0.3177 -0.0373
 5674TIP3    H238514   3.948   2.996   5.897 -0.3225  2.5778  2.3336
 5675TIP3   OH238515   5.527   0.635   2.927 -0.0767  0.5846  0.6587
 5675TIP3    H138516   5.443   0.648   2.883 -0.0224 -1.5383 -0.1855
 5675TIP3    H238517   5.532   0.706   2.991 -0.0440  4.1390 -2.8445
 5676TIP3   OH238518   0.225   5.370   1.168 -0.3411  0.2202  0.5511
 5676TIP3    H138519   0.215   5.399   1.259 -0.7563  1.2815  0.1866
 5676TIP3    H238520   0.317   5.388   1.147 -0.6227  1.4552  0.2899
 5677TIP3   OH238521   3.800   2.723  17.247  0.2377 -0.1986 -0.2245
 5677TIP3    H138522   3.886   2.708  17.207 -0.2619  0.9167 -1.7821
 5677TIP3    H238523   3.750   2.643  17.228  0.9034 -0.8726  0.7305
 5678TIP3   OH238524   5.547   2.139  15.383 -0.0221  0.2146 -0.4481
 5678TIP3    H138525   5.558   2.225  15.341 -0.2961  0.1790 -0.5916
 5678TIP3    H238526   5.517   2.160  15.471 -2.1067  0.2194 -1.1178
 5679TIP3   OH238527   0.851   2.273  13.477  0.1145  0.8747  0.9878
 5679TIP3    H138528   0.771   2.257  13.426  0.0591  2.3708  0.5552
 5679TIP3    H238529   0.915   2.212  13.440 -0.9051 -0.6561  1.6306
 5680TIP3   OH238530   5.859   5.507  12.370 -0.2401 -0.1587 -0.5637
 5680TIP3    H138531   5.843   5.584  12.425 -0.9775  0.0638 -1.0582
 5680TIP3    H238532   5.911   5.541  12.297  1.1354 -0.5484  0.2152
 5681TIP3   OH238533   2.494   0.258  16.843 -0.9581  0.2195  0.4903
 5681TIP3    H138534   2.543   0.212  16.775  1.1303 -0.8225  2.5929
 5681TIP3    H238535   2.409   0.277  16.802  0.5878  0.7616 -2.8011
 5682TIP3   OH238536   0.755   1.551  14.408  0.0226 -0.1349  0.0503
 5682TIP3    H138537   0.824   1.488  14.426 -0.2626 -0.3207  0.5103
 5682TIP3    H238538   0.785   1.633  14.447  0.1223 -0.1393 -0.0189
 5683TIP3   OH238539   1.787   6.570   3.359  0.2725  0.2783  0.1335
 5683TIP3    H138540   1.873   6.580   3.400  0.1005 -0.7318  0.7782
 5683TIP3    H238541   1.796   6.613   3.274  1.6069 -0.3253 -0.0591
 5684TIP3   OH238542   1.832   5.519  15.709  0.5975  0.0908  0.3588
 5684TIP3    H138543   1.870   5.431  15.697 -0.1245  0.1010 -2.7485
 5684TIP3    H238544   1.889   5.577  15.659 -0.6394  0.9054 -0.1472
 5685TIP3   OH238545   5.602   4.585  13.238 -0.5666 -0.3572 -0.0859
 5685TIP3    H138546   5.507   4.579  13.247 -0.3870 -0.5276  3.2520
 5685TIP3    H238547   5.625   4.667  13.281  0.8463 -0.6839 -0.1521
 5686TIP3   OH238548   4.499   2.025   3.946  0.5782  0.1480  0.5868
 5686TIP3    H138549   4.409   2.009   3.975  0.8134 -2.2057  0.1911
 5686TIP3    H238550   4.490   2.067   3.861 -0.1495  0.3922  0.7804
 5687TIP3   OH238551   1.503   5.885   3.783 -0.9810 -0.2192 -0.1512
 5687TIP3    H138552   1.492   5.970   3.740 -0.2363 -0.6119 -1.1591
 5687TIP3    H238553   1.580   5.895   3.838  0.8959 -1.0087 -2.4420
 5688TIP3   OH238554   5.384   1.730  12.291  0.4753 -0.0247  0.0158
 5688TIP3    H138555   5.358   1.770  12.208  2.2477 -0.7176 -0.9304
 5688TIP3    H238556   5.429   1.800  12.339 -1.0545  0.5423  0.6954
 5689TIP3   OH238557   3.455   0.097  11.704 -0.4315  0.2713  0.4241
 5689TIP3    H138558   3.380   0.086  11.762  0.9811  1.9797  2.7319
 5689TIP3    H238559   3.509   0.019  11.719 -1.1671 -0.4337 -0.4379
 5690TIP3   OH238560   0.145   2.750  15.045  0.0108 -0.4271  0.1783
 5690TIP3    H138561   0.074   2.707  15.092  0.7641 -1.2750  0.5667
 5690TIP3    H238562   0.225   2.714  15.083  0.6541  0.2407 -0.4978
 5691TIP3   OH238563   1.847   3.414  16.726 -0.0753  0.3276 -0.0459
 5691TIP3    H138564   1.755   3.390  16.719  0.1848 -0.7360 -0.1609
 5691TIP3    H238565   1.864   3.421  16.820 -0.6771  2.3263 -0.0496
 5692TIP3   OH238566   5.521   3.302  11.310  0.7082  0.2651  0.1064
 5692TIP3    H138567   5.607   3.332  11.339  1.1252 -0.9636  0.1826
 5692TIP3    H238568   5.540   3.237  11.242 -0.2091  1.3454 -1.2386
 5693TIP3   OH238569   0.153   2.809  14.551  0.5443 -0.0367  0.1570
 5693TIP3    H138570   0.062   2.779  14.550  0.1091  1.2262  0.3400
 5693TIP3    H238571   0.152   2.888  14.496  1.4491  0.1925  0.4588
 5694TIP3   OH238572   3.659   1.856   6.647 -0.3552 -0.0222 -0.0488
 5694TIP3    H138573   3.694   1.820   6.729  0.3462 -1.3088 -0.8833
 5694TIP3    H238574   3.720   1.926   6.624  1.0475 -1.4786 -0.8814
 5695TIP3   OH238575   1.395   1.420  13.928 -0.3813  0.0687  0.2909
 5695TIP3    H138576   1.405   1.457  14.016 -1.3620  1.2578 -0.0813
 5695TIP3    H238577   1.399   1.325  13.942  2.4268  0.2070  1.2456
 5696TIP3   OH238578   1.871   6.519  15.184  0.1951 -0.1723 -0.2417
 5696TIP3    H138579   1.844   6.466  15.259  0.6126  0.1432  0.1378
 5696TIP3    H238580   1.794   6.572  15.164 -0.1016 -0.6538 -0.3915
 5697TIP3   OH238581   4.810   4.425  10.686 -0.7769 -0.1104  0.4268
 5697TIP3    H138582   4.867   4.447  10.760  0.4150 -0.1471 -0.4560
 5697TIP3    H238583   4.752   4.356  10.720 -1.0161  0.6611  1.6455
 5698TIP3   OH238584   4.222   6.645  15.217  0.0253  0.4907 -0.4380
 5698TIP3    H138585   4.175   6.727  15.202  0.4866  0.9168  0.3916
 5698TIP3    H238586   4.157   6.586  15.255 -0.1296  0.6975 -0.3838
 5699TIP3   OH238587   2.964   6.803   4.193  0.2667  0.2121  0.7229
 5699TIP3    H138588   2.963   6.807   4.289  3.4378  0.6296  0.8197
 5699TIP3    H238589   2.926   6.886   4.165 -0.4805  0.1796  1.5691
 5700TIP3   OH238590   0.839   4.367  17.184 -0.4377 -0.0653  0.1159
 5700TIP3    H138591   0.820   4.297  17.121 -0.6249 -0.9014  1.0681
 5700TIP3    H238592   0.754   4.409  17.199 -0.5643 -0.4399  0.4668
 5701TIP3   OH238593   0.146   6.407   2.110 -0.4890  0.6726  0.4691
 5701TIP3    H138594   0.180   6.365   2.031  3.1095  2.8150  0.6295
 5701TIP3    H238595   0.096   6.482   2.078 -2.9863 -0.9363  0.2927
 5702TIP3   OH238596   3.422   1.435  11.606  0.0014  0.1020 -0.0353
 5702TIP3    H138597   3.327   1.439  11.616  0.0689 -1.1926  1.4347
 5702TIP3    H238598   3.438   1.348  11.570  0.6538  0.2861 -0.1997
 5703TIP3   OH238599   4.814   2.748  12.460  0.2316 -0.3772 -0.3441
 5703TIP3    H138600   4.769   2.813  12.514  0.9021  0.4847 -0.7887
 5703TIP3    H238601   4.746   2.713  12.403 -0.5387 -1.4853  1.1875
 5704TIP3   OH238602   3.095   0.500   6.003 -0.1291  0.1986  0.2521
 5704TIP3    H138603   3.125   0.486   6.092  1.1746 -1.1885 -0.3582
 5704TIP3    H238604   3.009   0.458   5.999 -0.9073  1.5933  1.2089
 5705TIP3   OH238605   4.353   0.837  13.656 -0.1027 -0.3189  0.3302
 5705TIP3    H138606   4.437   0.874  13.628 -0.1905 -1.6445 -1.9666
 5705TIP3    H238607   4.290   0.909  13.646  0.1172 -0.3644 -1.8335
 5706TIP3   OH238608   2.724   2.345   0.472  0.0974 -0.5061 -0.3397
 5706TIP3    H138609   2.686   2.380   0.392 -0.5823 -1.6152 -0.5283
 5706TIP3    H238610   2.786   2.279   0.443  1.2009  0.3510  0.0140
 5707TIP3   OH238611   2.825   6.048   3.646  0.1777 -0.3304 -0.2874
 5707TIP3    H138612   2.884   6.034   3.719 -0.1704 -0.2520  0.0109
 5707TIP3    H238613   2.783   6.132   3.664 -0.0966 -0.4313 -0.4453
 5708TIP3   OH238614   3.892   1.764  15.552 -0.7644 -0.0110 -0.0235
 5708TIP3    H138615   3.926   1.842  15.507 -0.7429 -0.9513 -1.7140
 5708TIP3    H238616   3.897   1.786  15.645 -0.8714  2.0444 -0.4559
 5709TIP3   OH238617   4.049   3.506  13.120  0.1425 -0.3080  0.0997
 5709TIP3    H138618   4.041   3.584  13.176  1.0048  0.5371 -0.9144
 5709TIP3    H238619   3.971   3.454  13.141  0.0264  0.3682  1.4822
 5710TIP3   OH238620   0.339   4.123   3.030 -0.1898  0.2618 -0.5411
 5710TIP3    H138621   0.393   4.077   2.966  1.7438  1.0132  0.4665
 5710TIP3    H238622   0.399   4.187   3.070 -1.0490 -0.7210  2.6005
 5711TIP3   OH238623   5.743   3.049   0.971  0.2823  0.2112 -0.0130
 5711TIP3    H138624   5.747   3.117   0.903  2.2889  0.0551 -0.1290
 5711TIP3    H238625   5.834   3.037   0.997 -0.1437 -1.7318  0.7314
 5712TIP3   OH238626   1.298   6.137   0.983 -0.1125  0.2268  0.3205
 5712TIP3    H138627   1.246   6.214   1.008  1.8176  2.5796 -2.2916
 5712TIP3    H238628   1.389   6.162   1.002  0.4973 -1.9845  0.6259
 5713TIP3   OH238629   2.072   4.932  17.269  0.2476 -0.6729 -0.1272
 5713TIP3    H138630   2.084   4.910  17.177  2.2127 -0.6300  0.0710
 5713TIP3    H238631   2.139   4.880  17.315 -0.2852 -0.2357  1.2044
 5714TIP3   OH238632   4.730   3.076   0.158  0.2302  0.0582  0.2342
 5714TIP3    H138633   4.677   3.050   0.234  2.0018  1.9956  2.2541
 5714TIP3    H238634   4.793   3.005   0.147  1.0602  0.5146  1.7387
 5715TIP3   OH238635   6.664   2.498  15.981 -0.1250  0.4175 -0.2322
 5715TIP3    H138636   6.689   2.507  16.073  0.1892 -0.3842 -0.2318
 5715TIP3    H238637   6.643   2.587  15.953 -3.3853  0.3620  1.5132
 5716TIP3   OH238638   6.730   2.830  15.927  0.2576 -0.7341  0.3579
 5716TIP3    H138639   6.750   2.873  16.010 -0.2857 -1.3901  0.8322
 5716TIP3    H238640   6.636   2.843  15.914  0.3891 -0.3889 -0.2988
 5717TIP3   OH238641   4.257   3.006  11.753  0.0930  0.3775 -0.9443
 5717TIP3    H138642   4.251   3.045  11.840  0.9014  2.7641 -1.8869
 5717TIP3    H238643   4.351   2.994  11.738  0.0494  1.1343 -1.9301
 5718TIP3   OH238644   5.965   1.243   0.577 -0.3572  0.6614 -0.7053
 5718TIP3    H138645   5.948   1.330   0.612 -1.3479  0.4717 -0.6977
 5718TIP3    H238646   5.879   1.205   0.564  0.0516 -0.0966 -1.2811
 5719TIP3   OH238647   0.291   5.582   5.725 -0.9283 -0.0302  0.2053
 5719TIP3    H138648   0.300   5.521   5.799  1.3975  0.0655  0.0871
 5719TIP3    H238649   0.381   5.609   5.706 -1.4843  0.2365 -2.4405
 5720TIP3   OH238650   1.212   1.620  16.136  0.3970 -0.1460 -0.5091
 5720TIP3    H138651   1.281   1.646  16.075  0.4292  0.3899 -0.2422
 5720TIP3    H238652   1.248   1.544  16.181  2.2712  2.1013  2.0896
 5721TIP3   OH238653   0.606   5.587   0.346  0.8358  0.0079  0.2193
 5721TIP3    H138654   0.661   5.583   0.268  0.3953 -1.4942 -0.0413
 5721TIP3    H238655   0.655   5.537   0.412  0.9506  0.8152  0.7717
 5722TIP3   OH238656   2.181   3.787  15.331  0.0010  0.3631  0.2795
 5722TIP3    H138657   2.088   3.781  15.354 -0.4508 -2.5563 -1.7588
 5722TIP3    H238658   2.181   3.795  15.236  1.7813 -1.5628  0.0526
 5723TIP3   OH238659   6.070   5.516  12.725  0.2387 -0.3314 -0.3084
 5723TIP3    H138660   6.064   5.558  12.811 -0.8243  0.9683 -0.9939
 5723TIP3    H238661   6.041   5.426  12.741 -1.4237  0.2996  0.4359
 5724TIP3   OH238662   3.103   5.615   0.445  0.6190 -0.0136 -0.3813
 5724TIP3    H138663   3.032   5.673   0.474  1.1577  0.8367 -0.7188
 5724TIP3    H238664   3.158   5.671   0.391  2.1382 -0.3628  0.7402
 5725TIP3   OH238665   6.196   0.376   4.734  0.2452  0.2592 -0.8763
 5725TIP3    H138666   6.184   0.281   4.727  0.5432 -0.0164  1.4378
 5725TIP3    H238667   6.113   0.407   4.771  1.1083  0.4750  0.9643
 5726TIP3   OH238668   0.682   1.950  11.448  0.1412  0.4254 -0.1852
 5726TIP3    H138669   0.750   2.018  11.453  1.4180 -0.8229 -0.0839
 5726TIP3    H238670   0.703   1.901  11.369 -0.8639  0.2225 -0.3420
 5727TIP3   OH238671   5.834   0.931  15.881 -0.1582 -0.0427  0.0919
 5727TIP3    H138672   5.901   0.930  15.949 -1.1898  1.1024  1.1933
 5727TIP3    H238673   5.781   0.852  15.898 -1.1769  0.8912  1.4808
 5728TIP3   OH238674   4.290   6.797   5.893 -0.6261 -0.0426  0.5619
 5728TIP3    H138675   4.325   6.718   5.934 -0.0908 -0.2933 -0.3423
 5728TIP3    H238676   4.320   6.792   5.802 -0.5664  1.2006  0.4904
 5729TIP3   OH238677   2.596   2.382   5.444  0.0448 -0.0605 -0.0588
 5729TIP3    H138678   2.617   2.385   5.538  1.9218 -1.4322 -0.3647
 5729TIP3    H238679   2.516   2.330   5.439 -0.7247  0.9883  0.8339
 5730TIP3   OH238680   0.376   1.914   2.836  0.3965  0.2191  0.1396
 5730TIP3    H138681   0.430   1.859   2.779  0.6195 -0.9391  1.4112
 5730TIP3    H238682   0.311   1.854   2.873  0.2720  0.9181  1.1118
 5731TIP3   OH238683   1.491   2.506  14.970  0.3471 -0.1892 -0.6342
 5731TIP3    H138684   1.433   2.504  15.046 -0.2549 -1.6487 -1.1049
 5731TIP3    H238685   1.574   2.470  15.002  0.6782  0.8860 -0.2363
 5732TIP3   OH238686   5.247   4.031  12.367  0.7336  0.2821 -0.0541
 5732TIP3    H138687   5.291   4.018  12.283  1.4295  1.1769  0.1453
 5732TIP3    H238688   5.317   4.056  12.427  0.2243 -0.2134  0.7636
 5733TIP3   OH238689   1.612   5.558  10.732 -0.1697  0.7157  0.2418
 5733TIP3    H138690   1.614   5.600  10.818  0.2952 -0.3258  0.7493
 5733TIP3    H238691   1.699   5.519  10.722 -0.7764 -0.6406  0.0530
 5734TIP3   OH238692   3.480   5.081   3.729  0.1261  0.0882 -0.0982
 5734TIP3    H138693   3.547   5.107   3.792 -0.5328 -0.8948  1.0569
 5734TIP3    H238694   3.398   5.115   3.766 -0.4491 -1.6440  0.3241
 5735TIP3   OH238695   1.478   5.441  15.315  0.2253 -0.3572 -0.5023
 5735TIP3    H138696   1.545   5.496  15.356 -1.8916  1.3048  0.9778
 5735TIP3    H238697   1.413   5.502  15.282 -0.5050 -1.8982 -2.0865
 5736TIP3   OH238698   4.445   3.247  16.550 -0.6730  0.1882 -0.0878
 5736TIP3    H138699   4.380   3.220  16.485 -1.7436 -0.9382  1.3859
 5736TIP3    H238700   4.431   3.341  16.560 -2.1613 -0.0490  0.2646
 5737TIP3   OH238701   1.323   4.838  14.437 -0.1536 -0.0282  0.1119
 5737TIP3    H138702   1.367   4.755  14.456  0.6308  0.5307  0.8171
 5737TIP3    H238703   1.287   4.866  14.521  0.0119  0.5818 -0.0194
 5738TIP3   OH238704   0.881   2.186   0.604 -0.1950  0.0149  0.3799
 5738TIP3    H138705   0.898   2.094   0.621  1.5888  0.1151 -0.5360
 5738TIP3    H238706   0.810   2.210   0.663 -0.9326 -2.0233  0.3727
 5739TIP3   OH238707   3.355   3.921   2.962  0.3251  0.2627  0.2234
 5739TIP3    H138708   3.410   3.999   2.959 -1.0505  1.3364  1.5531
 5739TIP3    H238709   3.415   3.849   2.939  2.0437  1.4849  0.6515
 5740TIP3   OH238710   3.445   6.063   4.242 -0.1918 -0.5193 -0.4821
 5740TIP3    H138711   3.511   6.128   4.217  0.5304 -0.6562  0.9349
 5740TIP3    H238712   3.489   5.979   4.228 -0.6183 -0.6620 -0.9724
 5741TIP3   OH238713   6.092   6.394   4.481  0.2741 -0.0703 -0.5393
 5741TIP3    H138714   6.020   6.352   4.434  0.2005  0.8749 -1.2945
 5741TIP3    H238715   6.166   6.390   4.421  0.6608 -0.4044 -0.0448
 5742TIP3   OH238716   5.524   1.671   2.097 -0.1771 -0.0396 -0.1817
 5742TIP3    H138717   5.530   1.738   2.029  0.4081 -1.2299 -1.3462
 5742TIP3    H238718   5.434   1.679   2.130 -0.4993  0.5121 -1.1425
 5743TIP3   OH238719   1.976   0.185   0.160  1.2104 -0.2744  0.2602
 5743TIP3    H138720   1.917   0.230   0.221 -0.2068 -1.7110  0.0290
 5743TIP3    H238721   2.035   0.253   0.128  0.1535  1.0785  1.0967
 5744TIP3   OH238722   2.508   5.754  12.671 -0.2322 -0.4389 -0.2642
 5744TIP3    H138723   2.464   5.760  12.755  0.7624 -0.8843  0.3083
 5744TIP3    H238724   2.595   5.790  12.687 -0.1745 -0.1310 -1.2137
 5745TIP3   OH238725   0.971   0.640  16.121  0.5703 -0.6508 -0.8298
 5745TIP3    H138726   1.064   0.654  16.104  0.8013 -0.5549  0.3748
 5745TIP3    H238727   0.956   0.680  16.207 -0.4101 -1.3481 -0.6532
 5746TIP3   OH238728   1.132   5.710  13.317 -0.3359 -0.4654 -0.5189
 5746TIP3    H138729   1.103   5.719  13.408  1.2962 -1.4263  0.1400
 5746TIP3    H238730   1.105   5.622  13.291  0.5410 -0.7643 -0.4379
 5747TIP3   OH238731   3.404   6.504   2.348 -1.0200 -0.4307  0.0672
 5747TIP3    H138732   3.421   6.554   2.428 -1.7198 -0.8901  0.5120
 5747TIP3    H238733   3.484   6.455   2.332 -0.1735  1.1006 -0.5883
 5748TIP3   OH238734   2.180   1.229   5.432  0.6154 -0.0595 -0.2039
 5748TIP3    H138735   2.158   1.294   5.499 -0.4651 -0.0212 -0.5781
 5748TIP3    H238736   2.255   1.182   5.468 -0.6168 -0.7914  1.5400
 5749TIP3   OH238737   6.814   0.039  16.405 -0.8132 -0.4122  0.7080
 5749TIP3    H138738   6.888   0.006  16.455 -0.5079 -0.3514  0.2995
 5749TIP3    H238739   6.805   0.130  16.432  0.7673  0.2921 -0.9668
 5750TIP3   OH238740   6.713   2.840  12.243 -0.1847  0.0615  0.5262
 5750TIP3    H138741   6.765   2.885  12.309  0.7997 -1.4291  0.8080
 5750TIP3    H238742   6.778   2.804  12.182 -0.9146 -1.1268  0.4248
 5751TIP3   OH238743   2.695   1.456  13.870 -0.1363  0.0210  0.0316
 5751TIP3    H138744   2.619   1.398  13.859  0.4568 -0.8154  0.2860
 5751TIP3    H238745   2.701   1.469  13.965 -0.6970  1.1075 -0.0594
 5752TIP3   OH238746   4.588   4.547  11.744 -0.3065 -0.2893  0.2259
 5752TIP3    H138747   4.646   4.564  11.819 -1.8090  0.3911  1.2896
 5752TIP3    H238748   4.541   4.629  11.732  0.0814 -0.3110 -1.6705
 5753TIP3   OH238749   3.974   0.744  11.638  0.1347  0.7338 -0.2162
 5753TIP3    H138750   3.935   0.750  11.725  1.9969 -1.2945  0.8573
 5753TIP3    H238751   4.049   0.804  11.640  1.1004 -0.4404  0.1759
 5754TIP3   OH238752   3.624   2.005   1.973  0.1096 -0.0746  0.4737
 5754TIP3    H138753   3.572   1.940   1.926 -0.7876  1.2913 -0.4824
 5754TIP3    H238754   3.715   1.984   1.950 -0.3075  1.0303 -2.6112
 5755TIP3   OH238755   3.501   3.396  16.272  0.3106 -1.0103  0.1473
 5755TIP3    H138756   3.426   3.444  16.308  0.2306 -0.9216 -0.1380
 5755TIP3    H238757   3.540   3.353  16.348  0.1899 -0.7554  0.3569
 5756TIP3   OH238758   2.006   0.082  14.980 -0.3337  0.2727 -0.2749
 5756TIP3    H138759   1.965   0.166  14.959  0.2422  0.2156 -1.7407
 5756TIP3    H238760   2.068   0.067  14.909  3.3005  1.0026  2.4467
 5757TIP3   OH238761   6.755   1.892  11.100  0.2855 -0.3203 -0.2908
 5757TIP3    H138762   6.660   1.888  11.094  0.2315 -2.6176  1.0257
 5757TIP3    H238763   6.785   1.808  11.064  1.9083  0.7008 -1.4936
 5758TIP3   OH238764   5.351   6.285   4.510 -0.2734  0.0395 -0.1181
 5758TIP3    H138765   5.423   6.287   4.573 -0.2805  3.5476 -0.0038
 5758TIP3    H238766   5.393   6.305   4.426 -0.6736 -1.5826 -0.7365
 5759TIP3   OH238767   3.679   2.846  14.589  0.1547 -0.1833 -0.1572
 5759TIP3    H138768   3.753   2.790  14.612 -0.0480  0.0332  1.0986
 5759TIP3    H238769   3.611   2.785  14.559  0.1624 -0.5593  0.5665
 5760TIP3   OH238770   2.702   5.303   3.780  0.2519  0.2124  0.3689
 5760TIP3    H138771   2.620   5.269   3.816  1.0132 -0.0756  1.9308
 5760TIP3    H238772   2.727   5.374   3.839  2.5823 -1.5896  1.7430
 5761TIP3   OH238773   3.415   1.393   3.729 -0.2603  0.0742  0.2749
 5761TIP3    H138774   3.362   1.470   3.707  1.1536  0.8725 -0.5021
 5761TIP3    H238775   3.355   1.320   3.719 -0.8096  0.7767 -2.4023
 5762TIP3   OH238776   1.687   1.814   2.224 -0.0859  0.4811  0.0093
 5762TIP3    H138777   1.596   1.787   2.229  0.0158  0.3872  2.0674
 5762TIP3    H238778   1.730   1.767   2.296  1.9273 -0.6574 -1.8260
 5763TIP3   OH238779   0.206   1.217   2.694  0.1940  0.4292 -0.7796
 5763TIP3    H138780   0.226   1.287   2.631 -0.1186  0.2817 -1.0502
 5763TIP3    H238781   0.133   1.169   2.653  0.0290  0.2955 -0.3320
 5764TIP3   OH238782   0.564   6.456   1.450  0.6544 -0.0339  0.1629
 5764TIP3    H138783   0.654   6.487   1.443  1.4513 -1.9228  1.1654
 5764TIP3    H238784   0.530   6.458   1.361  1.7792  0.4386 -0.2656
 5765TIP3   OH238785   2.102   1.310  15.848  0.4754 -0.1159  0.0980
 5765TIP3    H138786   2.072   1.350  15.767 -0.8660 -1.0918  0.0806
 5765TIP3    H238787   2.123   1.383  15.906 -1.6499  0.6258 -0.0143
 5766TIP3   OH238788   0.924   2.423  11.700 -0.0505 -0.3952 -0.5594
 5766TIP3    H138789   0.918   2.354  11.766 -3.1124 -0.7736 -1.0776
 5766TIP3    H238790   0.938   2.503  11.750 -0.9229 -0.8583  0.4749
 5767TIP3   OH238791   0.898   2.785   0.343  0.2921  0.1504  0.4282
 5767TIP3    H138792   0.971   2.844   0.326  0.7022 -0.7636 -1.0981
 5767TIP3    H238793   0.927   2.731   0.416  0.9665  0.0902  0.1186
 5768TIP3   OH238794   2.700   6.059   2.017 -0.2104  0.1693 -0.2567
 5768TIP3    H138795   2.721   6.150   1.998  2.0007 -0.0845  0.6655
 5768TIP3    H238796   2.670   6.059   2.108 -1.4660  0.1163 -0.6504
 5769TIP3   OH238797   0.778   0.626  10.228 -0.2593 -0.2495  0.6114
 5769TIP3    H138798   0.691   0.661  10.211 -0.5143 -0.2430  1.8661
 5769TIP3    H238799   0.774   0.536  10.197 -0.4629 -0.0251 -0.0421
 5770TIP3   OH238800   5.989   2.014  12.927  0.3669 -0.3929 -0.3047
 5770TIP3    H138801   6.014   2.100  12.958 -0.7219  0.2968 -1.2378
 5770TIP3    H238802   6.008   2.016  12.833 -2.8386  0.1375 -1.0616
 5771TIP3   OH238803   3.033   6.284   3.361 -0.4005  0.3561  0.2237
 5771TIP3    H138804   2.967   6.256   3.297 -1.0167 -0.4619  1.1791
 5771TIP3    H238805   3.064   6.202   3.400  1.7177  0.6801 -0.6924
 5772TIP3   OH238806   4.718   4.266   1.769 -0.3591  0.2103 -0.4131
 5772TIP3    H138807   4.670   4.325   1.826  0.1661  0.0222  0.2449
 5772TIP3    H238808   4.705   4.179   1.809 -0.9442 -0.0977 -1.2414
 5773TIP3   OH238809   0.697   4.084  15.050 -0.0744  0.1541  0.2396
 5773TIP3    H138810   0.693   4.176  15.076  0.1398  0.4519 -0.7523
 5773TIP3    H238811   0.673   4.083  14.957 -1.6902 -0.9998  0.6260
 5774TIP3   OH238812   3.235   6.132  13.698 -0.3826  0.1459  0.2623
 5774TIP3    H138813   3.259   6.175  13.780 -1.7090  1.4328  0.0169
 5774TIP3    H238814   3.218   6.041  13.723  0.5607  0.1950  1.1477
 5775TIP3   OH238815   2.630   0.525   1.853  0.1696 -0.4998 -0.5678
 5775TIP3    H138816   2.651   0.446   1.902  0.7686 -0.8118 -1.3212
 5775TIP3    H238817   2.535   0.534   1.862  0.2821 -0.4053  0.8575
 5776TIP3   OH238818   1.230   4.590  17.273  0.8272 -0.0070 -0.1406
 5776TIP3    H138819   1.192   4.651  17.336  0.2845  0.3112 -0.7666
 5776TIP3    H238820   1.240   4.642  17.192 -1.5218 -1.2259 -1.3131
 5777TIP3   OH238821   1.335   5.930  11.189  0.1543 -0.0273 -0.3143
 5777TIP3    H138822   1.418   5.914  11.145  0.0155 -0.1338 -0.5391
 5777TIP3    H238823   1.356   5.992  11.260  0.5304 -0.5195  0.0040
 5778TIP3   OH238824   5.805   1.251   2.644  0.7374 -0.1082  0.0878
 5778TIP3    H138825   5.774   1.227   2.557 -1.3361  0.5395  0.5903
 5778TIP3    H238826   5.867   1.182   2.668  0.2694 -1.0530 -1.3078
 5779TIP3   OH238827   5.185   2.800   1.616  0.1332 -0.1051  0.6249
 5779TIP3    H138828   5.100   2.763   1.640  0.5702 -0.8486  1.0481
 5779TIP3    H238829   5.210   2.756   1.535  1.1580 -1.5863  1.7017
 5780TIP3   OH238830   1.998   6.786   0.718  0.3383 -0.8529 -0.0452
 5780TIP3    H138831   2.089   6.815   0.729 -0.3501  1.7883 -0.4422
 5780TIP3    H238832   1.954   6.816   0.797 -0.9202  1.6688 -1.5395
 5781TIP3   OH238833   3.650   1.026   3.574  0.3499 -0.2332 -0.0201
 5781TIP3    H138834   3.699   1.074   3.507  0.8135 -1.4800 -0.6057
 5781TIP3    H238835   3.580   0.983   3.526 -0.2335  0.0774  0.5409
 5782TIP3   OH238836   4.981   2.952  15.230  0.3903 -0.2864  0.3484
 5782TIP3    H138837   5.042   3.024  15.220  0.5598 -0.4946 -0.1824
 5782TIP3    H238838   5.018   2.882  15.175 -1.2669  0.2073 -1.5154
 5783TIP3   OH238839   3.208   0.586  13.551 -0.1967  0.0682 -0.0383
 5783TIP3    H138840   3.235   0.662  13.603  0.9972 -0.6153  0.3609
 5783TIP3    H238841   3.136   0.547  13.601 -2.6609  2.3484 -1.4917
 5784TIP3   OH238842   0.410   3.434  11.638 -0.2612 -0.2569 -0.3378
 5784TIP3    H138843   0.493   3.388  11.650 -1.1692 -2.1017 -0.8168
 5784TIP3    H238844   0.375   3.443  11.727  0.1630  0.0118 -0.1911
 5785TIP3   OH238845   6.351   0.013   2.021  0.7194 -0.1044 -0.3209
 5785TIP3    H138846   6.337  -0.025   1.934 -2.0958  1.3964 -0.6288
 5785TIP3    H238847   6.329  -0.058   2.081 -1.4335  0.0088 -0.8908
 5786TIP3   OH238848   1.865   0.567   5.858  0.4601 -0.3636 -0.0703
 5786TIP3    H138849   1.882   0.630   5.929  0.0662  0.3327 -0.5822
 5786TIP3    H238850   1.815   0.617   5.793 -0.8252 -1.5091  0.0027
 5787TIP3   OH238851   3.887   0.592   2.499  0.0382  0.0596  0.3071
 5787TIP3    H138852   3.828   0.618   2.569 -0.2837 -2.1681  0.9496
 5787TIP3    H238853   3.846   0.515   2.460  2.6819 -1.8861  1.1030
 5788TIP3   OH238854   0.991   3.850   1.981 -0.4502 -0.0590 -0.3714
 5788TIP3    H138855   0.997   3.873   2.073  2.1929  0.2699 -0.5495
 5788TIP3    H238856   0.971   3.933   1.937 -4.6821 -0.6515 -0.0115
 5789TIP3   OH238857   1.841   2.679   3.242  0.0144  0.4805  0.2303
 5789TIP3    H138858   1.877   2.590   3.243 -1.1751 -0.1368 -2.7013
 5789TIP3    H238859   1.914   2.735   3.215  0.2176  0.0743 -0.0659
 5790TIP3   OH238860   6.097   0.803  11.530 -0.0776  0.2257  0.1741
 5790TIP3    H138861   6.106   0.710  11.549  0.8287  0.5000  1.1933
 5790TIP3    H238862   6.163   0.821  11.463 -0.1189  0.1669  0.1183
 5791TIP3   OH238863   1.614   6.045  17.237 -0.2662  0.5540  0.2036
 5791TIP3    H138864   1.545   6.071  17.299 -0.5009  0.6596 -0.1025
 5791TIP3    H238865   1.583   5.964  17.199 -0.0769  0.4398  0.2870
 5792TIP3   OH238866   6.180   6.504   2.883  0.1608 -0.2725  0.4632
 5792TIP3    H138867   6.244   6.450   2.929  0.1086 -0.1290  0.7037
 5792TIP3    H238868   6.225   6.588   2.869  0.0664 -0.2111  0.5298
 5793TIP3   OH238869   5.259   6.121   3.977 -0.2960  0.2695  0.2656
 5793TIP3    H138870   5.222   6.158   3.897 -0.8029  0.2974  0.5121
 5793TIP3    H238871   5.344   6.087   3.950 -1.2602 -1.4820 -0.7197
 5794TIP3   OH238872   1.344   0.969  13.131  0.1319  0.0386  0.2891
 5794TIP3    H138873   1.435   0.945  13.117 -0.2642 -0.5494 -1.5001
 5794TIP3    H238874   1.336   1.057  13.094 -0.4262 -0.6624 -1.3593
 5795TIP3   OH238875   3.271   0.080   1.656  0.2066 -0.0758 -0.0235
 5795TIP3    H138876   3.240   0.138   1.587  0.1663 -0.0366  0.0275
 5795TIP3    H238877   3.239  -0.007   1.631  0.3919 -0.1016 -0.1766
 5796TIP3   OH238878   0.530   5.140   0.788 -0.0240 -0.3733  0.0308
 5796TIP3    H138879   0.605   5.124   0.731 -0.5790  1.3602 -1.2737
 5796TIP3    H238880   0.567   5.181   0.866  0.4049  0.3226 -0.5334
 5797TIP3   OH238881   4.405   1.140  16.676 -0.6606  0.3795  0.3828
 5797TIP3    H138882   4.464   1.072  16.708 -0.0449  0.7331  0.0167
 5797TIP3    H238883   4.379   1.109  16.589 -1.5354 -0.0866  0.7915
 5798TIP3   OH238884   4.688   4.296   5.715 -0.5838  0.0717  0.2454
 5798TIP3    H138885   4.610   4.270   5.764  0.2242 -0.7947  1.1063
 5798TIP3    H238886   4.700   4.227   5.650 -0.8585  0.5068 -0.2770
 5799TIP3   OH238887   4.078   6.113   1.246  0.2592  0.2657 -0.4249
 5799TIP3    H138888   4.155   6.169   1.240 -0.6500  1.5881 -0.4013
 5799TIP3    H238889   4.068   6.075   1.159  0.0636  1.3211 -0.8785
 5800TIP3   OH238890   2.177   5.188  11.104  0.2076 -0.3318  0.1838
 5800TIP3    H138891   2.137   5.110  11.140  2.1238 -1.1639  0.6423
 5800TIP3    H238892   2.204   5.162  11.015  2.3251 -0.7997  0.9022
 5801TIP3   OH238893   0.216   4.023   6.177 -0.4000 -0.3840  0.1383
 5801TIP3    H138894   0.146   3.970   6.138 -0.3705  0.0746 -0.5517
 5801TIP3    H238895   0.279   3.960   6.210 -0.2004 -0.7787 -0.9781
 5802TIP3   OH238896   1.464   2.059   5.366 -0.0448  0.4608 -0.0436
 5802TIP3    H138897   1.538   2.034   5.421 -0.4814 -0.9308 -0.0466
 5802TIP3    H238898   1.495   2.045   5.276 -0.5182 -0.8656 -0.0306
 5803TIP3   OH238899   2.248   0.006   3.680  0.1061  0.0253 -0.5449
 5803TIP3    H138900   2.332   0.006   3.725 -0.1077  1.2076 -0.1063
 5803TIP3    H238901   2.266   0.044   3.594  0.0213  0.3020 -0.4418
 5804TIP3   OH238902   0.215   6.738  16.558  0.1672 -0.2046  0.0849
 5804TIP3    H138903   0.172   6.744  16.643  0.8719  0.5016  0.4066
 5804TIP3    H238904   0.190   6.653  16.524 -1.5059  0.1832  0.2451
 5805TIP3   OH238905   3.226   3.153  14.635  0.1502  0.0253  0.2096
 5805TIP3    H138906   3.199   3.212  14.706  0.5010  0.3145  0.1064
 5805TIP3    H238907   3.303   3.196  14.596  1.7883 -1.5331  1.5236
 5806TIP3   OH238908   4.788   2.509  13.539 -0.0943 -0.2034  0.2476
 5806TIP3    H138909   4.791   2.593  13.586 -0.3897 -0.0322 -0.0345
 5806TIP3    H238910   4.742   2.450  13.599  0.7586 -0.3728  0.7602
 5807TIP3   OH238911   4.322   2.357   3.311 -0.7084 -0.1358  0.6815
 5807TIP3    H138912   4.329   2.453   3.304  0.5017 -0.2009  0.7821
 5807TIP3    H238913   4.349   2.325   3.225 -0.1601 -0.4128  0.9509
 5808TIP3   OH238914   3.151   4.181   2.051 -0.2397 -0.3324 -0.2587
 5808TIP3    H138915   3.146   4.137   1.966 -0.8483  2.5878 -1.8883
 5808TIP3    H238916   3.127   4.272   2.032 -0.1938  0.4991  3.0390
 5809TIP3   OH238917   6.067   5.155  14.512 -0.2200  0.4790  0.8722
 5809TIP3    H138918   6.091   5.075  14.559  1.5102  1.1269  1.1986
 5809TIP3    H238919   6.071   5.224  14.579  0.0002  1.0814  0.2515
 5810TIP3   OH238920   4.608   3.855   2.491  0.3297  0.8745 -0.1890
 5810TIP3    H138921   4.610   3.878   2.398 -1.2423  0.9398 -0.2306
 5810TIP3    H238922   4.696   3.822   2.510  0.2131 -0.6842 -2.0964
 5811TIP3   OH238923   1.720   5.656   1.163  0.6633  0.0065 -0.4629
 5811TIP3    H138924   1.682   5.569   1.170  2.5376 -0.9288 -1.3832
 5811TIP3    H238925   1.800   5.644   1.112  0.8562  2.3027 -0.8188
 5812TIP3   OH238926   4.650   1.328   0.753  0.2646  0.2900  0.2033
 5812TIP3    H138927   4.619   1.300   0.839  0.6200 -0.9701 -0.0487
 5812TIP3    H238928   4.686   1.248   0.714  2.2949  1.3377 -0.1799
 5813TIP3   OH238929   2.955   3.366  15.549  0.5671  0.2417  0.1765
 5813TIP3    H138930   2.927   3.371  15.641 -1.5888 -0.8376 -0.3507
 5813TIP3    H238931   2.912   3.440  15.507  0.8015  0.1941 -0.1445
 5814TIP3   OH238932   3.139   6.306   4.286 -0.0033 -0.3079  0.3726
 5814TIP3    H138933   3.129   6.384   4.231  0.0359 -1.1233 -0.8208
 5814TIP3    H238934   3.217   6.325   4.339 -1.1755  1.3263  1.6587
 5815TIP3   OH238935   5.852   3.531  13.517  0.2498  0.3937 -0.1101
 5815TIP3    H138936   5.853   3.568  13.429 -1.7300  1.0755  0.1177
 5815TIP3    H238937   5.871   3.606  13.574 -1.0033  0.5117  0.1774
 5816TIP3   OH238938   0.382   2.312  15.034  0.1386 -0.3334 -0.2639
 5816TIP3    H138939   0.330   2.240  14.998 -4.0880  2.4489 -0.4193
 5816TIP3    H238940   0.385   2.294  15.128  0.3428 -1.3456 -0.4460
 5817TIP3   OH238941   5.375   2.534  13.094  0.2594  0.5941 -0.4321
 5817TIP3    H138942   5.429   2.548  13.172 -1.3393  1.8716  0.5067
 5817TIP3    H238943   5.434   2.551  13.021  1.8129 -0.6616  0.4458
 5818TIP3   OH238944   4.107   0.835  13.468  0.1678 -0.7776 -0.1069
 5818TIP3    H138945   4.139   0.814  13.380  1.5015 -0.5415  0.3028
 5818TIP3    H238946   4.130   0.758  13.520 -1.4612 -1.3288 -0.1298
 5819TIP3   OH238947   2.268   3.412  15.598  0.6293  0.1447 -0.2794
 5819TIP3    H138948   2.311   3.475  15.540  2.0793 -1.0613 -0.5721
 5819TIP3    H238949   2.338   3.379  15.654 -0.4332  0.0472  1.0597
 5820TIP3   OH238950   6.549   0.876  16.866 -0.2014 -0.1189  0.4350
 5820TIP3    H138951   6.471   0.851  16.915  0.0493 -0.2263  0.7812
 5820TIP3    H238952   6.591   0.793  16.843 -0.6452 -0.0934 -0.5063
 5821TIP3   OH238953   2.340   5.681   0.344 -1.0999  0.2059 -0.2815
 5821TIP3    H138954   2.334   5.592   0.380  0.8703  0.1481 -0.0158
 5821TIP3    H238955   2.361   5.667   0.251 -1.9030  0.4127 -0.5067
 5822TIP3   OH238956   4.289   6.145   5.697  0.3755 -0.7995 -0.5208
 5822TIP3    H138957   4.282   6.204   5.772 -1.7636 -1.0773 -0.4343
 5822TIP3    H238958   4.377   6.107   5.705  1.1166  0.9782  0.4327
 5823TIP3   OH238959   5.770   4.690  11.348 -0.3072  0.2688  0.1288
 5823TIP3    H138960   5.819   4.772  11.358  0.9265 -0.2440 -1.2728
 5823TIP3    H238961   5.682   4.716  11.323  0.3918  1.1680 -1.4926
 5824TIP3   OH238962   6.573   5.594  12.583 -0.0202 -0.0793  0.0777
 5824TIP3    H138963   6.515   5.525  12.551 -0.0271 -0.1062  0.1478
 5824TIP3    H238964   6.529   5.676  12.559 -0.3597 -0.0969  0.6148
 5825TIP3   OH238965   0.272   1.985  16.660  0.5010 -0.2800 -0.2643
 5825TIP3    H138966   0.342   2.029  16.708  0.9817 -0.1843 -1.0450
 5825TIP3    H238967   0.200   1.979  16.723  0.4341  1.5877 -0.1244
 5826TIP3   OH238968   1.917   1.591   2.982 -0.5648 -0.1041 -0.2569
 5826TIP3    H138969   1.838   1.626   2.942 -2.2182 -1.4776  1.6222
 5826TIP3    H238970   1.983   1.597   2.912 -2.2399  1.1691 -1.8605
 5827TIP3   OH238971   5.350   3.435   0.247 -0.4519 -0.0806  0.0456
 5827TIP3    H138972   5.366   3.373   0.175 -0.2462  1.6959 -1.5088
 5827TIP3    H238973   5.268   3.478   0.223 -0.4787  0.4037  0.9921
 5828TIP3   OH238974   4.089   1.808  16.554  0.0525  0.0127 -0.1012
 5828TIP3    H138975   4.107   1.893  16.514 -1.5207 -0.0334 -0.9954
 5828TIP3    H238976   3.995   1.810  16.573  0.4552 -0.5757  2.2099
 5829TIP3   OH238977   3.296   1.347   1.733  0.3357 -0.0543  0.0048
 5829TIP3    H138978   3.288   1.429   1.783  0.3924  1.3490 -2.1567
 5829TIP3    H238979   3.226   1.352   1.668  1.2239 -1.0769 -1.0537
 5830TIP3   OH238980   3.028   4.602  12.154  0.9250  0.0081 -0.0113
 5830TIP3    H138981   2.974   4.552  12.093  0.8087  1.6790 -1.3569
 5830TIP3    H238982   3.118   4.574  12.136  0.7747 -0.5963  0.1398
 5831TIP3   OH238983   4.586   3.546  12.826 -0.9301 -0.2023 -0.2307
 5831TIP3    H138984   4.573   3.641  12.833 -0.3610 -0.1899  0.9403
 5831TIP3    H238985   4.681   3.535  12.826 -0.9674 -0.7197 -1.5172
 5832TIP3   OH238986   1.650   0.036   2.947 -0.1825  0.0951  0.5127
 5832TIP3    H138987   1.565   0.078   2.949 -0.2494  0.0592 -0.7410
 5832TIP3    H238988   1.654  -0.008   2.861  0.5555 -1.0275  1.0927
 5833TIP3   OH238989   4.521   4.666   2.621 -0.2761  0.3978  0.1476
 5833TIP3    H138990   4.475   4.583   2.608  0.9256 -0.2223 -0.2984
 5833TIP3    H238991   4.560   4.659   2.708 -1.7790  1.3287  0.9481
 5834TIP3   OH238992   1.253   5.925  12.259 -0.5102  0.2502 -0.1071
 5834TIP3    H138993   1.256   5.970  12.174 -1.0532 -0.5960 -0.5864
 5834TIP3    H238994   1.306   5.846  12.246  0.0958  0.5320  0.6049
 5835TIP3   OH238995   1.403   2.665   0.986  0.1853 -0.2051 -0.1673
 5835TIP3    H138996   1.341   2.734   1.012  0.0404  0.2203 -1.5561
 5835TIP3    H238997   1.349   2.599   0.944  0.7137  0.4443 -1.9256
 5836TIP3   OH238998   2.949   2.683  14.991  0.2393 -0.2790 -0.0287
 5836TIP3    H138999   3.023   2.712  15.045  1.8035  0.2325 -2.2781
 5836TIP3    H239000   2.894   2.761  14.983  1.4045  0.4670 -1.2828
 5837TIP3   OH239001   4.097   4.782  15.837 -0.6419 -0.2469 -0.3286
 5837TIP3    H139002   4.124   4.852  15.776 -0.4674  0.2326  0.2916
 5837TIP3    H239003   4.130   4.810  15.922 -1.5392 -0.5417  0.1301
 5838TIP3   OH239004   5.707   5.466  14.364 -0.5982  0.2808 -1.2149
 5838TIP3    H139005   5.681   5.379  14.332 -0.2305  0.1506 -1.1709
 5838TIP3    H239006   5.632   5.496  14.415 -1.4722  0.7762 -2.7188
 5839TIP3   OH239007   0.063   3.937   0.697  0.2424 -0.0663 -0.6247
 5839TIP3    H139008   0.104   4.022   0.715 -0.0455 -0.5191  2.8986
 5839TIP3    H239009  -0.029   3.959   0.677 -0.3646  0.4811  2.3053
 5840TIP3   OH239010   1.660   3.298   4.061  0.0603  0.6374 -0.2497
 5840TIP3    H139011   1.638   3.229   4.123 -0.3982 -0.3614 -1.4751
 5840TIP3    H239012   1.586   3.300   4.000  0.5686  1.4849 -0.8661
 5841TIP3   OH239013   2.337   6.023  16.878  0.0016 -0.1358 -0.8340
 5841TIP3    H139014   2.341   5.950  16.938 -0.8703 -0.2502 -0.8995
 5841TIP3    H239015   2.426   6.058  16.876 -0.3399  1.1393  2.0674
 5842TIP3   OH239016   1.414   5.234   3.378  0.0494  0.2649 -0.5964
 5842TIP3    H139017   1.415   5.263   3.286  0.1623  0.0077 -0.6776
 5842TIP3    H239018   1.460   5.150   3.377  0.2637  0.3751 -0.2650
 5843TIP3   OH239019   4.000   2.745  15.808  0.0006 -0.4960  1.2377
 5843TIP3    H139020   4.094   2.735  15.824  0.1529  1.3497  1.6701
 5843TIP3    H239021   3.994   2.767  15.715 -0.2344 -2.9471  0.6087
 5844TIP3   OH239022   0.611   3.773  14.703  0.4339  0.0313 -0.3693
 5844TIP3    H139023   0.616   3.763  14.798 -2.1171  0.4188 -0.1303
 5844TIP3    H239024   0.635   3.865  14.687  0.0641  0.1979  0.0101
 5845TIP3   OH239025   4.836   6.659   4.206  0.3531 -0.5550 -0.1136
 5845TIP3    H139026   4.760   6.602   4.216  0.5555 -0.6736  0.8647
 5845TIP3    H239027   4.799   6.743   4.177 -0.0658 -0.8215 -0.3599
 5846TIP3   OH239028   3.948   4.666  12.562  0.6515 -0.0830 -0.1103
 5846TIP3    H139029   3.934   4.668  12.468 -1.7896 -0.5765  0.1730
 5846TIP3    H239030   3.937   4.757  12.590  0.6152 -0.0569 -0.2120
 5847TIP3   OH239031   3.612   2.321   0.124  0.6310  0.1687  0.4216
 5847TIP3    H139032   3.633   2.267   0.200 -2.4618 -0.2454  1.0913
 5847TIP3    H239033   3.636   2.410   0.150 -1.0713  0.1558  2.2464
 5848TIP3   OH239034   3.041   1.842  13.097  0.0854  0.1839 -0.4564
 5848TIP3    H139035   3.045   1.815  13.005 -1.0863  0.7004 -0.6743
 5848TIP3    H239036   3.132   1.860  13.120  0.5571 -1.2185 -1.1199
 5849TIP3   OH239037   2.915   4.806   2.297 -0.2584  0.6201  0.4773
 5849TIP3    H139038   2.879   4.781   2.211  1.5971 -2.1212  0.3682
 5849TIP3    H239039   2.860   4.759   2.360  1.6871 -1.9487  0.4062
 5850TIP3   OH239040   4.724   1.176  16.406 -0.0102  0.3541 -0.1355
 5850TIP3    H139041   4.681   1.206  16.326  0.2827  2.6732  0.4973
 5850TIP3    H239042   4.707   1.245  16.470  2.6903  0.2780  0.7900
 5851TIP3   OH239043   4.518   4.156   0.178 -0.0339 -0.5358 -0.0459
 5851TIP3    H139044   4.552   4.106   0.252  0.8581  0.2072  0.0717
 5851TIP3    H239045   4.515   4.093   0.106 -0.6024 -1.1846  0.5385
 5852TIP3   OH239046   0.927   4.115   0.917 -0.3459  0.4670  0.1420
 5852TIP3    H139047   0.848   4.142   0.965 -1.6589 -0.8728 -1.1454
 5852TIP3    H239048   0.918   4.157   0.831  0.5949  0.6601  0.1257
 5853TIP3   OH239049   1.012   4.636  13.788 -0.1976 -0.5996  0.0107
 5853TIP3    H139050   1.036   4.547  13.762 -0.3997 -1.4925  2.6284
 5853TIP3    H239051   0.917   4.634  13.795 -0.1172 -0.5364  1.2353
 5854TIP3   OH239052   6.663   4.369  13.390 -0.1088 -0.1041 -0.6023
 5854TIP3    H139053   6.689   4.288  13.433  0.1650  0.1918 -0.2028
 5854TIP3    H239054   6.635   4.342  13.302 -2.0619 -0.9046  0.2111
 5855TIP3   OH239055   4.732   0.375   2.053 -0.4761 -0.0458  0.3356
 5855TIP3    H139056   4.703   0.467   2.050 -2.8528 -0.7296 -0.3408
 5855TIP3    H239057   4.801   0.370   1.987  0.2247  1.4133  0.9230
 5856TIP3   OH239058   4.396   5.449  11.999  0.3947  0.1578 -0.3233
 5856TIP3    H139059   4.344   5.369  12.009 -0.9894  1.2373  2.2019
 5856TIP3    H239060   4.404   5.461  11.905  1.6930 -3.5247 -0.8357
 5857TIP3   OH239061   5.025   3.369   1.046  1.0859 -0.4227  0.5791
 5857TIP3    H139062   5.111   3.385   1.010  1.2334  2.2352  1.8898
 5857TIP3    H239063   4.968   3.434   1.004  0.0990 -0.9696  1.0278
 5858TIP3   OH239064   3.549   3.388  15.387  0.2654  0.3832 -0.3557
 5858TIP3    H139065   3.471   3.439  15.366 -0.5673 -0.5768  0.3071
 5858TIP3    H239066   3.530   3.350  15.473  1.6289  0.4342 -0.0096
 5859TIP3   OH239067   0.029   3.308  15.252 -0.0589  0.1732 -0.0125
 5859TIP3    H139068  -0.023   3.363  15.193 -0.0851 -0.0372 -0.1856
 5859TIP3    H239069   0.118   3.338  15.240 -0.0516  0.0662 -0.2324
 5860TIP3   OH239070   2.076   6.270  11.168 -0.1654 -0.5505  0.0853
 5860TIP3    H139071   2.042   6.304  11.085 -0.7060 -0.2460  0.4223
 5860TIP3    H239072   2.057   6.340  11.231 -1.2267 -1.4362  0.7813
 5861TIP3   OH239073   5.782   2.836   7.177 -0.6651  0.4987  0.1517
 5861TIP3    H139074   5.696   2.798   7.160 -0.3909 -0.3134  0.5085
 5861TIP3    H239075   5.795   2.899   7.107 -1.6279  0.7572  0.1991
 5862TIP3   OH239076   1.244   2.668  17.214  0.9942 -0.8453  0.2842
 5862TIP3    H139077   1.187   2.729  17.260 -0.7076 -3.4249  1.8527
 5862TIP3    H239078   1.333   2.694  17.239  0.3743  1.1375  0.6063
 5863TIP3   OH239079   0.100   0.680   3.619  0.7174 -0.3263  0.0787
 5863TIP3    H139080   0.119   0.632   3.700 -1.1797 -0.6253  0.3857
 5863TIP3    H239081   0.005   0.692   3.620  0.9684  2.3517 -0.6160
 5864TIP3   OH239082   2.764   6.508   0.002 -0.3081 -0.1178 -0.7371
 5864TIP3    H139083   2.842   6.523  -0.051  0.9643  0.2134  1.1344
 5864TIP3    H239084   2.781   6.426   0.049  0.0139  1.0949  1.4275
 5865TIP3   OH239085   1.915   2.593  14.717 -0.0010  0.4577  0.4410
 5865TIP3    H139086   1.957   2.523  14.768  0.3493 -0.9145 -1.5757
 5865TIP3    H239087   1.823   2.567  14.713 -0.2481  1.1756  1.3021
 5866TIP3   OH239088   4.671   1.693  16.675 -0.4597  0.3641  0.6012
 5866TIP3    H139089   4.612   1.690  16.750  1.0736  0.4237  1.8606
 5866TIP3    H239090   4.680   1.786  16.655 -0.9942  0.3396  0.2162
 5867TIP3   OH239091   5.208   4.624   2.236  0.2841  0.2211  0.3665
 5867TIP3    H139092   5.192   4.628   2.330 -1.4470 -0.0714  0.1240
 5867TIP3    H239093   5.159   4.698   2.200  1.6615  0.8748 -0.2514
 5868TIP3   OH239094   6.738   6.578  15.278  0.0726  0.5310  0.2208
 5868TIP3    H139095   6.663   6.636  15.291 -1.5909 -1.3945 -0.2483
 5868TIP3    H239096   6.763   6.592  15.187  0.8043  1.7376  0.5922
 5869TIP3   OH239097   6.194   6.109  14.656 -0.6491  0.4409  0.1181
 5869TIP3    H139098   6.182   6.090  14.563  0.6954  0.0089  0.0169
 5869TIP3    H239099   6.211   6.024  14.696  2.3681  0.9527  0.1505
 5870TIP3   OH239100   2.502   2.763  16.257 -0.6753 -0.0857  0.2950
 5870TIP3    H139101   2.422   2.789  16.212 -1.5341 -2.1671  0.5053
 5870TIP3    H239102   2.515   2.672  16.231  1.3120  0.0266  0.7440
 5871TIP3   OH239103   3.039   6.195   0.234  0.2326  0.1839 -0.3539
 5871TIP3    H139104   3.108   6.261   0.240 -0.2403  0.8374 -1.7791
 5871TIP3    H239105   2.989   6.205   0.315  1.4143  0.1157  0.4180
 5872TIP3   OH239106   4.054   6.230   0.827 -0.4637  0.4545 -0.2047
 5872TIP3    H139107   4.029   6.147   0.869  0.2817  0.8075  0.9975
 5872TIP3    H239108   4.092   6.281   0.898  0.2760  1.3316 -1.2124
 5873TIP3   OH239109   0.027   4.365   2.678  0.4200 -0.2938  0.0353
 5873TIP3    H139110   0.089   4.367   2.751  0.5499  1.3508 -0.0644
 5873TIP3    H239111  -0.051   4.410   2.711 -0.3826 -1.5288 -0.1348
 5874TIP3   OH239112   0.532   1.019   5.325 -0.4473  0.0675  1.0929
 5874TIP3    H139113   0.521   0.930   5.292  0.8087 -0.1867  1.2998
 5874TIP3    H239114   0.572   1.066   5.252 -0.3479  0.2514  1.2676
 5875TIP3   OH239115   2.314   1.084  15.888  1.0359  0.0021  0.4549
 5875TIP3    H139116   2.279   1.061  15.974 -0.7841 -0.9668 -0.4937
 5875TIP3    H239117   2.240   1.120  15.840  1.7238 -0.5473 -1.0872
 5876TIP3   OH239118   2.524   1.621  14.110  0.3076 -0.2340  0.0452
 5876TIP3    H139119   2.495   1.573  14.188  0.3137 -0.5944 -0.1694
 5876TIP3    H239120   2.493   1.710  14.124  1.5667  0.0775  1.1469
 5877TIP3   OH239121   3.785   5.961  14.211  0.4295 -0.9387  0.2247
 5877TIP3    H139122   3.792   5.971  14.116  1.5307 -1.0171  0.2842
 5877TIP3    H239123   3.870   5.925  14.238  0.4350 -0.1453  1.3341
 5878TIP3   OH239124   6.260   5.586  14.996  0.1296 -0.4473 -0.1118
 5878TIP3    H139125   6.217   5.516  15.046  0.3717 -0.2048  0.4494
 5878TIP3    H239126   6.270   5.657  15.060  0.6114 -0.1972 -0.4634
 5879TIP3   OH239127   2.465   5.165  13.044 -0.2544  0.0578 -0.7143
 5879TIP3    H139128   2.376   5.199  13.047  0.1451  1.1024 -0.3371
 5879TIP3    H239129   2.465   5.105  12.969 -1.5146 -0.6897 -0.1354
 5880TIP3   OH239130   1.695   6.616  16.442  0.0722  0.4876 -0.1487
 5880TIP3    H139131   1.659   6.689  16.494 -0.9007  0.0615 -0.1981
 5880TIP3    H239132   1.700   6.544  16.504 -2.8091 -0.5606 -0.9822
 5881TIP3   OH239133   3.012   3.527  16.570 -0.3345 -0.8593  0.4078
 5881TIP3    H139134   3.049   3.441  16.586  1.3386 -0.0803  0.9688
 5881TIP3    H239135   2.962   3.548  16.649 -0.3147 -1.1048  0.4843
 5882TIP3   OH239136   0.537   6.164  16.234 -0.9170 -0.3900  0.2857
 5882TIP3    H139137   0.607   6.156  16.169 -0.6527 -1.0753  0.6425
 5882TIP3    H239138   0.456   6.148  16.185 -0.6953 -1.2319  0.1778
 5883TIP3   OH239139   2.011   2.507  17.145  0.3070  0.3634 -0.2359
 5883TIP3    H139140   2.103   2.521  17.168  0.0628  2.3512 -0.3369
 5883TIP3    H239141   2.015   2.451  17.067  1.3421 -0.8901  0.6594
 5884TIP3   OH239142   1.204   0.316   1.274  0.1105 -0.0417  0.6990
 5884TIP3    H139143   1.149   0.240   1.260  2.1556 -1.5946  0.5978
 5884TIP3    H239144   1.171   0.382   1.213 -0.6125 -1.4636 -0.4896
 5885TIP3   OH239145   0.101   1.038   5.934  0.1703 -0.6657  0.4087
 5885TIP3    H139146   0.164   1.095   5.977 -1.2956  2.7979 -1.5913
 5885TIP3    H239147   0.130   1.035   5.843 -1.6714 -0.2512 -0.2252
 5886TIP3   OH239148   0.376   3.029  16.018  0.2181 -0.4508 -0.3709
 5886TIP3    H139149   0.290   3.036  16.060  0.0958  0.0359 -0.6905
 5886TIP3    H239150   0.386   2.936  15.999  0.2056 -0.6563  0.5843
 5887TIP3   OH239151   1.892   0.490   1.974 -0.1901 -0.0819 -0.3366
 5887TIP3    H139152   1.921   0.471   2.063  1.9819  0.5943 -0.8343
 5887TIP3    H239153   1.953   0.557   1.943 -1.8208  0.7998 -1.8281
 5888TIP3   OH239154   0.753   3.314  10.272 -0.2131 -0.2463  0.8829
 5888TIP3    H139155   0.763   3.278  10.360  1.0027  0.1458  0.9136
 5888TIP3    H239156   0.673   3.366  10.276 -0.4787 -0.6994  1.5953
 5889TIP3   OH239157   3.773   6.750   6.220  0.1952 -0.7656 -0.3762
 5889TIP3    H139158   3.853   6.764   6.171  0.8822  1.3223  1.2243
 5889TIP3    H239159   3.787   6.667   6.266  0.7558 -1.2044 -1.3207
 5890TIP3   OH239160   4.345   5.233  15.928  0.0259  0.1784  0.0043
 5890TIP3    H139161   4.293   5.301  15.971  1.6624  0.3137  1.8987
 5890TIP3    H239162   4.395   5.192  15.999  1.2069 -1.1052 -1.4927
 5891TIP3   OH239163   0.554   5.967   6.264 -0.1356  0.0701 -0.6759
 5891TIP3    H139164   0.494   6.016   6.321 -0.7370  1.2313 -2.2042
 5891TIP3    H239165   0.498   5.903   6.220  0.2787 -0.6676 -0.1435
 5892TIP3   OH239166   5.196   5.493  11.192 -0.1490 -0.1992  0.1856
 5892TIP3    H139167   5.277   5.543  11.197 -1.0823  1.4632 -0.6037
 5892TIP3    H239168   5.128   5.555  11.217 -1.4362 -0.8051 -1.6173
 5893TIP3   OH239169   5.498   3.912   3.353  0.2806 -0.4253  0.0404
 5893TIP3    H139170   5.486   3.872   3.266  1.3777 -1.0508  0.1527
 5893TIP3    H239171   5.564   3.856   3.395  1.0744  0.9073  0.6104
 5894TIP3   OH239172   3.862   6.446  14.859  0.4930  0.3511  0.1607
 5894TIP3    H139173   3.868   6.469  14.766  0.9206  1.5028  0.4468
 5894TIP3    H239174   3.886   6.354  14.863  1.8961  0.6382 -0.7251
 5895TIP3   OH239175   2.656   6.297  16.083  0.1848  0.2666 -0.3875
 5895TIP3    H139176   2.718   6.279  16.154 -0.3892 -1.2118 -0.2285
 5895TIP3    H239177   2.706   6.279  16.003 -0.4237 -2.5913 -0.2421
 5896TIP3   OH239178   0.989   5.836  12.376  0.3013  0.4298  0.9199
 5896TIP3    H139179   0.903   5.878  12.384  0.8835  2.0322 -0.4944
 5896TIP3    H239180   1.016   5.854  12.286  1.8317 -0.6509  1.1161
 5897TIP3   OH239181   6.071   4.776   4.198  0.1441 -0.4447  0.3269
 5897TIP3    H139182   6.097   4.810   4.284  2.1458 -1.6891  0.2768
 5897TIP3    H239183   6.105   4.840   4.136 -0.8594  0.1943  0.4152
 5898TIP3   OH239184   5.899   3.420   1.421 -0.7735  0.0174  0.3323
 5898TIP3    H139185   5.962   3.482   1.383  2.0216 -1.5161  2.1209
 5898TIP3    H239186   5.876   3.363   1.348  0.4059  0.2674 -0.2759
 5899TIP3   OH239187   6.688   6.734   3.197  0.4571  0.2752 -0.1892
 5899TIP3    H139188   6.648   6.673   3.135  0.1422 -0.0027  0.2893
 5899TIP3    H239189   6.738   6.794   3.141  0.1385  0.0583 -0.7202
 5900TIP3   OH239190   0.021   5.584  11.042 -0.3959  0.5519  0.4634
 5900TIP3    H139191   0.014   5.610  11.134 -0.8540  0.8010  0.3634
 5900TIP3    H239192  -0.070   5.571  11.014 -0.3057  1.1305 -0.1334
 5901TIP3   OH239193   2.716   6.378  10.543  0.0454  0.8936 -0.3875
 5901TIP3    H139194   2.626   6.408  10.527 -0.9920 -1.8061 -0.2201
 5901TIP3    H239195   2.727   6.384  10.638 -0.9368 -0.9839 -0.0891
 5902TIP3   OH239196   4.770   6.756   3.120 -0.5970 -0.0615 -0.7585
 5902TIP3    H139197   4.739   6.719   3.202 -0.8499 -1.1714 -1.3345
 5902TIP3    H239198   4.708   6.826   3.101 -1.0788 -0.4044 -0.4662
 5903TIP3   OH239199   3.677   4.867   0.242  0.0203 -0.1701 -0.3469
 5903TIP3    H139200   3.668   4.796   0.178  2.2262 -0.5375 -0.3356
 5903TIP3    H239201   3.638   4.943   0.198 -2.0077 -1.2570 -0.5242
 5904TIP3   OH239202   3.445   5.474  12.706  0.4034  0.4195 -0.6816
 5904TIP3    H139203   3.524   5.446  12.661  0.8412 -0.5611  0.6337
 5904TIP3    H239204   3.475   5.545  12.764  0.3323  0.0391 -0.1726
 5905TIP3   OH239205   4.478   2.537  14.013  0.5583  0.1483 -0.5900
 5905TIP3    H139206   4.556   2.493  14.048  0.4128 -1.0780 -1.7636
 5905TIP3    H239207   4.415   2.534  14.085  1.2549  0.3351  0.0549
 5906TIP3   OH239208   5.709   0.403   5.901  0.1185  0.0436  0.2914
 5906TIP3    H139209   5.670   0.335   5.845 -0.6368  0.3366  0.4403
 5906TIP3    H239210   5.773   0.447   5.846 -0.9787  0.6739 -0.5319
 5907TIP3   OH239211   6.415   6.309   2.502 -0.0352 -0.1995 -0.1059
 5907TIP3    H139212   6.347   6.364   2.463 -1.7952 -0.2308  2.6570
 5907TIP3    H239213   6.495   6.333   2.456 -1.4269  1.8708 -1.5989
 5908TIP3   OH239214   1.128   1.876   1.521 -0.5021 -0.1378 -0.3301
 5908TIP3    H139215   1.179   1.904   1.445 -0.9025 -0.0020 -0.5514
 5908TIP3    H239216   1.189   1.882   1.594 -0.6831  1.8604 -0.2688
 5909TIP3   OH239217   1.474   4.924  12.683 -0.2814  0.1462  0.3880
 5909TIP3    H139218   1.432   4.968  12.756 -0.0413  1.7027 -0.3803
 5909TIP3    H239219   1.561   4.964  12.676  0.0631 -0.6514 -0.1491
 5910TIP3   OH239220   4.812   0.823  16.982  0.0083  0.4408 -0.1849
 5910TIP3    H139221   4.798   0.896  16.922  3.7004  1.2263 -0.3577
 5910TIP3    H239222   4.838   0.750  16.925 -0.9298 -0.2117  0.1915
 5911TIP3   OH239223   3.532   5.032   2.261  0.4111 -0.1605 -0.0154
 5911TIP3    H139224   3.444   5.053   2.291  0.9945 -0.0927  1.7441
 5911TIP3    H239225   3.544   5.086   2.182 -0.7890  0.4836  0.2163
 5912TIP3   OH239226   4.225   5.278   5.231 -0.0615 -0.7036 -0.0538
 5912TIP3    H139227   4.292   5.240   5.175  1.2962 -0.1183  1.1374
 5912TIP3    H239228   4.142   5.245   5.194  0.7897 -0.7312 -2.0891
 5913TIP3   OH239229   4.127   1.444  14.737 -0.2127  0.0887 -0.1877
 5913TIP3    H139230   4.215   1.409  14.725 -0.1669  0.0028  0.3577
 5913TIP3    H239231   4.096   1.461  14.649  0.6499  0.8574 -0.3584
 5914TIP3   OH239232   1.825   6.138  13.089 -0.3055  0.1098 -0.6656
 5914TIP3    H139233   1.829   6.232  13.107  0.5615  0.4522 -2.4716
 5914TIP3    H239234   1.876   6.126  13.009 -1.7664 -1.6861 -1.4028
 5915TIP3   OH239235   5.990   3.333   5.723  1.1316 -0.1284  0.0494
 5915TIP3    H139236   5.964   3.379   5.644 -0.2119 -1.3416 -0.2624
 5915TIP3    H239237   6.074   3.371   5.747  0.4348  1.9244 -0.5937
 5916TIP3   OH239238   0.070   2.835  14.062  0.3093  0.0152  0.4545
 5916TIP3    H139239   0.095   2.924  14.089  0.2478  0.3327 -0.4970
 5916TIP3    H239240  -0.024   2.841  14.042  0.1426 -0.4402  1.0766
 5917TIP3   OH239241   3.939   2.578   2.792 -1.0421  0.8221 -0.2899
 5917TIP3    H139242   3.987   2.510   2.840 -0.0489  1.0601 -0.9093
 5917TIP3    H239243   3.847   2.563   2.816 -0.9743 -1.3068 -1.0942
 5918TIP3   OH239244   3.954   0.192  13.872 -0.0373  0.5439 -0.1027
 5918TIP3    H139245   3.965   0.179  13.778  0.9459  1.0057 -0.0594
 5918TIP3    H239246   4.036   0.161  13.911  0.4419  2.3209  0.4090
 5919TIP3   OH239247   6.823   1.170   3.028  0.0757 -0.2900 -0.0896
 5919TIP3    H139248   6.797   1.130   3.111  1.3503 -1.3330 -0.1472
 5919TIP3    H239249   6.917   1.183   3.037  0.3077 -0.8045 -1.5098
 5920TIP3   OH239250   4.926   2.190   1.581  0.5315  0.0976  0.0688
 5920TIP3    H139251   4.885   2.152   1.503  0.9130 -1.0578  0.4247
 5920TIP3    H239252   4.875   2.156   1.654 -0.3401  1.8114  0.3263
 5921TIP3   OH239253   2.576   1.321   5.457 -0.4789  0.3415 -0.0603
 5921TIP3    H139254   2.575   1.225   5.447  0.4510  0.2862  0.2643
 5921TIP3    H239255   2.594   1.335   5.550  1.0833  0.8154 -0.4004
 5922TIP3   OH239256   5.047   3.955  13.716  0.1355  0.2781  0.0597
 5922TIP3    H139257   5.078   3.915  13.797 -0.7450 -1.3462 -0.3493
 5922TIP3    H239258   5.105   4.030  13.702  3.1889 -1.9383 -0.1290
 5923TIP3   OH239259   3.849   4.966  15.936  0.7492 -0.5194  1.0882
 5923TIP3    H139260   3.907   5.041  15.921  0.3907 -0.2940  0.8154
 5923TIP3    H239261   3.902   4.905  15.988  1.7140 -0.9378 -0.3325
 5924TIP3   OH239262   3.326   0.886   1.567 -0.6254 -0.0786  0.5459
 5924TIP3    H139263   3.406   0.839   1.542 -0.5949 -0.1331  0.7430
 5924TIP3    H239264   3.275   0.822   1.617 -1.6748 -0.6673 -1.1939
 5925TIP3   OH239265   6.592   1.765  12.938  0.5852 -0.6859  0.3568
 5925TIP3    H139266   6.551   1.815  12.867 -0.1592 -0.9727  0.5816
 5925TIP3    H239267   6.534   1.777  13.013 -0.2571 -2.8091  0.1179
 5926TIP3   OH239268   3.553   0.916  12.512 -0.0786  0.1261 -0.1288
 5926TIP3    H139269   3.583   0.969  12.438  0.9081 -0.4281 -0.1458
 5926TIP3    H239270   3.623   0.923  12.577 -0.1663 -0.7474  0.0713
 5927TIP3   OH239271   4.008   3.267   4.412  0.1447 -0.1342 -0.6955
 5927TIP3    H139272   3.955   3.264   4.492  0.9418 -0.7825 -0.1793
 5927TIP3    H239273   3.988   3.352   4.373  0.1124  0.3882  0.4380
 5928TIP3   OH239274   4.842   3.061  11.175  0.0626 -0.1015  0.3519
 5928TIP3    H139275   4.786   3.099  11.107 -0.7510 -1.3066  0.3066
 5928TIP3    H239276   4.865   3.135  11.231 -0.3861  0.6776 -0.4606
 5929TIP3   OH239277   4.487   4.936   5.608 -0.1721 -0.2794  0.4491
 5929TIP3    H139278   4.573   4.904   5.636  0.7736  1.5857 -0.1308
 5929TIP3    H239279   4.507   5.012   5.554 -2.2067  0.1321  0.2089
 5930TIP3   OH239280   3.096   6.101  15.641 -0.5256  0.2907 -0.3435
 5930TIP3    H139281   3.087   6.049  15.721 -1.0679 -1.2277 -1.3472
 5930TIP3    H239282   3.023   6.073  15.586 -0.4170  1.6291 -1.2220
 5931TIP3   OH239283   0.780   6.393  15.654 -0.0158  0.0284  0.4186
 5931TIP3    H139284   0.777   6.379  15.559  0.5745 -2.1302  0.6672
 5931TIP3    H239285   0.830   6.473  15.665 -0.6444  0.6680 -1.1022
 5932TIP3   OH239286   5.032   3.388   5.993  0.2119  0.0632  0.2322
 5932TIP3    H139287   5.101   3.402   6.058 -1.2572  0.0984  1.8557
 5932TIP3    H239288   4.951   3.389   6.044 -0.9270 -0.9427 -1.4717
 5933TIP3   OH239289   3.741   6.100  12.894  0.1377 -0.1750  0.3198
 5933TIP3    H139290   3.822   6.151  12.883 -0.5974  1.0412  0.4136
 5933TIP3    H239291   3.748   6.063  12.982  1.0877 -1.0112 -0.0800
 5934TIP3   OH239292   6.762   0.278   2.142 -0.1010 -0.2154 -0.3598
 5934TIP3    H139293   6.702   0.203   2.141  1.5728 -1.6538  0.9139
 5934TIP3    H239294   6.725   0.337   2.208 -0.7450 -0.4950 -0.4592
 5935TIP3   OH239295   5.197   2.684  14.717  0.0883  0.3676  0.6513
 5935TIP3    H139296   5.166   2.634  14.792  3.4107 -1.9347  0.7113
 5935TIP3    H239297   5.141   2.657  14.644  0.1377 -1.4662  1.2645
 5936TIP3   OH239298   2.605   4.610  15.404 -0.0686  0.4037  0.4298
 5936TIP3    H139299   2.567   4.647  15.483  2.4854  0.6359  1.6394
 5936TIP3    H239300   2.605   4.682  15.341 -0.5357  0.7338  0.8045
 5937TIP3   OH239301   5.666   6.378  11.871  0.2916 -0.5002 -0.4638
 5937TIP3    H139302   5.605   6.386  11.944 -1.1987  0.0105 -1.7268
 5937TIP3    H239303   5.741   6.432  11.897 -0.2579 -0.2273  0.6248
 5938TIP3   OH239304   1.160   0.446   5.050  0.6837 -0.1517 -0.3782
 5938TIP3    H139305   1.146   0.410   4.962  1.6082  0.1050 -0.6450
 5938TIP3    H239306   1.139   0.539   5.041 -1.3819 -0.5075  0.2306
 5939TIP3   OH239307   0.554   6.745  14.934 -0.4898 -0.3754  0.3295
 5939TIP3    H139308   0.646   6.770  14.924 -0.1080 -2.2607 -1.4241
 5939TIP3    H239309   0.555   6.682  15.006 -1.0366  2.2052  2.7830
 5940TIP3   OH239310   2.638   4.648  14.745  0.4356  0.0193 -0.7008
 5940TIP3    H139311   2.579   4.717  14.776  0.7332  0.6189 -1.4395
 5940TIP3    H239312   2.589   4.567  14.760 -0.0750  0.4121 -0.1710
 5941TIP3   OH239313   0.659   4.034   0.756 -0.0231 -0.2393  0.6518
 5941TIP3    H139314   0.625   4.123   0.751  0.4575 -0.1195 -0.5836
 5941TIP3    H239315   0.711   4.022   0.677 -0.1173 -1.6376  0.7671
 5942TIP3   OH239316   4.088   6.404  15.842 -0.1770  0.4553  0.4159
 5942TIP3    H139317   4.008   6.419  15.792  0.5920 -0.4866 -1.1876
 5942TIP3    H239318   4.066   6.332  15.901 -0.1316 -0.7832 -1.0301
 5943TIP3   OH239319   4.925   1.677  16.002 -0.2180 -0.1771 -0.0389
 5943TIP3    H139320   4.965   1.610  16.056  1.1420  0.4684 -0.1964
 5943TIP3    H239321   4.999   1.731  15.973 -0.8115 -0.7351 -2.8715
 5944TIP3   OH239322   1.239   3.720  14.409  0.3555 -0.2367 -0.6751
 5944TIP3    H139323   1.177   3.750  14.476  0.2289  1.5669 -1.5391
 5944TIP3    H239324   1.191   3.652  14.361  0.2884 -1.2337  0.7296
 5945TIP3   OH239325   2.380   2.564  14.671  0.1480 -0.0161 -0.3275
 5945TIP3    H139326   2.293   2.526  14.659 -0.4100  1.1085  0.0074
 5945TIP3    H239327   2.403   2.601  14.586  0.9247 -1.4941 -0.8070
 5946TIP3   OH239328   3.713   2.896  16.623 -0.2182 -0.0814 -0.0171
 5946TIP3    H139329   3.788   2.850  16.585 -0.1461 -1.7418  1.9670
 5946TIP3    H239330   3.722   2.986  16.591  1.2415 -0.7810 -1.7636
 5947TIP3   OH239331   4.485   6.359  14.562  0.3219  0.1881 -0.5420
 5947TIP3    H139332   4.451   6.356  14.473 -0.1889  0.2626 -0.3529
 5947TIP3    H239333   4.421   6.411  14.611  0.5721  0.1097 -0.1203
 5948TIP3   OH239334   1.562   5.255  15.145 -0.6239 -0.0137 -0.3258
 5948TIP3    H139335   1.494   5.273  15.080 -0.6367  0.6716 -0.1353
 5948TIP3    H239336   1.558   5.330  15.205  0.0035 -0.1820 -0.0638
 5949TIP3   OH239337   2.921   5.960   6.261  0.1985  0.1576  0.7519
 5949TIP3    H139338   2.872   6.035   6.293  1.2082  0.7596  0.9355
 5949TIP3    H239339   2.882   5.885   6.306  0.0248  0.7253  1.5639
 5950TIP3   OH239340   5.893   3.410  15.655 -0.0222 -0.2457  0.0904
 5950TIP3    H139341   5.943   3.398  15.735 -0.0632 -0.7474  0.0437
 5950TIP3    H239342   5.816   3.460  15.682 -0.7003 -1.5143  0.6320
 5951TIP3   OH239343   3.981   6.678   1.442  0.1668 -0.2749  0.6219
 5951TIP3    H139344   3.971   6.772   1.432 -1.0716 -0.4419  0.1534
 5951TIP3    H239345   4.048   6.654   1.378 -1.5668 -0.1012 -1.3657
 5952TIP3   OH239346   1.288   4.880   1.268  0.3066 -0.6238  0.4104
 5952TIP3    H139347   1.223   4.859   1.201  0.2044  1.0658 -0.0499
 5952TIP3    H239348   1.255   4.960   1.309  2.7630  1.0539 -0.7360
 5953TIP3   OH239349   3.106   2.909   1.000 -0.0330 -0.0315  0.1095
 5953TIP3    H139350   3.191   2.865   0.995  0.4348  0.7701  0.6817
 5953TIP3    H239351   3.119   2.977   1.066 -1.1146  0.1241  0.1715
 5954TIP3   OH239352   0.041   1.027   0.047 -0.1930  0.2029 -0.2257
 5954TIP3    H139353   0.108   0.986   0.101 -0.7667  0.1503  0.4517
 5954TIP3    H239354   0.051   0.986  -0.039  0.0359 -0.4743  0.1206
 5955TIP3   OH239355   3.787   4.641   3.065  0.3317 -0.1780 -0.3495
 5955TIP3    H139356   3.846   4.716   3.067  1.0620 -0.7484 -0.0411
 5955TIP3    H239357   3.830   4.577   3.008  0.0161 -0.5959 -0.1285
 5956TIP3   OH239358   0.484   6.659   1.761 -0.3645 -0.2059 -0.3804
 5956TIP3    H139359   0.515   6.686   1.848  1.0699 -1.1067 -0.5714
 5956TIP3    H239360   0.547   6.592   1.733 -2.3417 -1.9374 -0.9603
 5957TIP3   OH239361   3.045   2.499  16.790  0.5327  0.0871  0.1885
 5957TIP3    H139362   3.011   2.515  16.878  1.2828 -0.7609  0.6532
 5957TIP3    H239363   3.135   2.532  16.793  1.4537 -2.2615  0.5771
 5958TIP3   OH239364   2.567   6.131  17.125  0.4957 -0.0265  0.1667
 5958TIP3    H139365   2.659   6.103  17.129  0.4001 -0.4809 -0.6474
 5958TIP3    H239366   2.544   6.125  17.033 -1.0405 -2.1362  0.6074
 5959TIP3   OH239367   3.469   3.793  15.919  0.1198 -0.1930  0.5446
 5959TIP3    H139368   3.388   3.742  15.927  0.7844 -1.1074  1.9292
 5959TIP3    H239369   3.468   3.851  15.996  1.9852 -2.0911  2.1278
 5960TIP3   OH239370   0.918   3.328  12.597 -0.2263 -0.0929 -0.1000
 5960TIP3    H139371   0.853   3.360  12.660  0.1354  0.4009  0.0285
 5960TIP3    H239372   1.002   3.343  12.640 -0.0076 -0.3796 -0.4219
 5961TIP3   OH239373   4.291   4.192   1.096  0.1815  0.2798 -0.1110
 5961TIP3    H139374   4.344   4.267   1.126  0.1336  0.8109 -1.3121
 5961TIP3    H239375   4.226   4.231   1.038  0.2032 -0.7144 -0.8089
 5962TIP3   OH239376   2.374   3.867  15.580  0.2608  0.9062  0.2362
 5962TIP3    H139377   2.326   3.937  15.536  0.7241  0.6236 -0.7299
 5962TIP3    H239378   2.464   3.877  15.550  0.5639  0.6313  1.0317
 5963TIP3   OH239379   2.562   3.165   5.235 -0.2131 -0.1099  0.4693
 5963TIP3    H139380   2.587   3.219   5.160 -1.9148  0.3720  0.2144
 5963TIP3    H239381   2.607   3.205   5.310  0.4358  0.2023 -0.0775
 5964TIP3   OH239382   2.915   1.130  16.447  0.5447  0.2282 -0.2973
 5964TIP3    H139383   2.834   1.079  16.452 -0.8819  2.4902  2.0573
 5964TIP3    H239384   2.959   1.114  16.530  1.6479  0.3973 -0.8349
 5965TIP3   OH239385   5.904   4.965   3.346 -0.5319  0.7326 -0.0963
 5965TIP3    H139386   5.839   4.919   3.293 -1.1068  0.4620  0.8035
 5965TIP3    H239387   5.953   4.896   3.390  0.4597  0.9341 -0.8600
 5966TIP3   OH239388   0.223   1.499   2.782 -0.2297  0.5428  0.0656
 5966TIP3    H139389   0.212   1.510   2.877  1.0695 -0.2257  0.3221
 5966TIP3    H239390   0.159   1.431   2.759  0.2205 -0.0740  0.5955
 5967TIP3   OH239391   3.349   1.659  14.527  0.1090 -0.2898  0.1494
 5967TIP3    H139392   3.421   1.665  14.590 -0.1329 -0.6268  0.4655
 5967TIP3    H239393   3.270   1.666  14.580 -0.0915  0.5408 -0.2513
 5968TIP3   OH239394   1.684   0.357  11.384  0.7551  0.0725  0.3688
 5968TIP3    H139395   1.589   0.342  11.391  1.0299 -1.2693  1.6809
 5968TIP3    H239396   1.721   0.272  11.362  1.7758  0.2790  1.2000
 5969TIP3   OH239397   2.323   2.467  13.660  0.0507 -0.3433 -0.0837
 5969TIP3    H139398   2.322   2.425  13.574  2.3079 -0.2884 -0.1969
 5969TIP3    H239399   2.398   2.527  13.656 -0.3701  0.3492  1.6226
 5970TIP3   OH239400   5.783   6.245   3.143  0.3384 -0.2020 -0.2914
 5970TIP3    H139401   5.725   6.183   3.187 -0.8157  0.5237 -0.7614
 5970TIP3    H239402   5.752   6.247   3.052  1.9479 -0.7991 -0.8877
 5971TIP3   OH239403   2.502   3.888  13.610  0.5506  0.1277  0.1557
 5971TIP3    H139404   2.477   3.860  13.698  2.0489 -1.4910  0.1247
 5971TIP3    H239405   2.521   3.981  13.619  0.0258  0.1321  1.3825
 5972TIP3   OH239406   4.052   3.223  16.550 -0.2118 -0.1665  0.2681
 5972TIP3    H139407   4.079   3.197  16.461  0.4393 -0.6401  0.5919
 5972TIP3    H239408   4.055   3.318  16.549 -0.4481 -0.1571 -0.2890
 5973TIP3   OH239409   4.029   1.256   6.055 -1.0321 -0.1529 -0.0716
 5973TIP3    H139410   3.999   1.345   6.071  1.1874  0.4608  1.0754
 5973TIP3    H239411   4.100   1.265   5.991 -1.7507 -1.2867 -1.0755
 5974TIP3   OH239412   3.498   1.249  14.831  0.0611 -0.6761 -0.0719
 5974TIP3    H139413   3.565   1.188  14.863  0.6358 -0.0621 -0.0892
 5974TIP3    H239414   3.482   1.307  14.905 -0.4532 -0.8098 -0.0727
 5975TIP3   OH239415   0.169   2.413  11.650 -0.0241 -0.2485  0.0519
 5975TIP3    H139416   0.244   2.355  11.667  0.7846  0.8917  0.5380
 5975TIP3    H239417   0.135   2.385  11.566  0.6484 -1.1242  0.0610
 5976TIP3   OH239418   1.335   2.888   3.159  0.7406  0.0790  0.3531
 5976TIP3    H139419   1.424   2.854   3.156  0.5490 -0.4838  0.8594
 5976TIP3    H239420   1.309   2.881   3.251  0.4435  0.9611  0.3490
 5977TIP3   OH239421   4.003   0.885   4.129 -0.2112 -0.8452 -0.1781
 5977TIP3    H139422   4.009   0.970   4.173 -0.9345  0.5470 -2.5818
 5977TIP3    H239423   4.088   0.873   4.088 -1.1382  0.4962 -2.7143
 5978TIP3   OH239424   0.936   5.323   5.889  0.2731 -0.6482 -0.8355
 5978TIP3    H139425   0.985   5.402   5.910 -2.1925  0.6778  0.3217
 5978TIP3    H239426   0.918   5.330   5.796  1.7055 -0.8678 -1.1540
 5979TIP3   OH239427   6.076   2.387   6.769  0.1399 -0.4148  0.2927
 5979TIP3    H139428   6.091   2.473   6.729 -2.1275 -0.8412 -1.7294
 5979TIP3    H239429   6.018   2.404   6.843  0.1896 -0.1323  0.2669
 5980TIP3   OH239430   1.889   3.420  11.091  1.0598 -0.5023  0.4588
 5980TIP3    H139431   1.883   3.394  11.183 -0.6154 -0.1184  0.4942
 5980TIP3    H239432   1.881   3.516  11.093  0.3646 -0.5469 -0.1276
 5981TIP3   OH239433   2.850   2.124   1.167  0.0183 -0.3752 -0.4024
 5981TIP3    H139434   2.809   2.195   1.216  1.3148  0.8182 -0.9692
 5981TIP3    H239435   2.806   2.125   1.082  0.1241 -0.1635 -0.4549
 5982TIP3   OH239436   5.562   6.117  11.391  0.4123  0.0107 -0.1594
 5982TIP3    H139437   5.486   6.119  11.450  1.3179 -1.8801  1.1781
 5982TIP3    H239438   5.556   6.198  11.341 -2.7188 -0.2575 -0.4171
 5983TIP3   OH239439   2.747   3.756  12.497 -0.2901  0.3659 -0.3029
 5983TIP3    H139440   2.718   3.669  12.470 -2.0010  0.7495  0.1397
 5983TIP3    H239441   2.695   3.816  12.443  0.3586  1.1150 -0.1160
 5984TIP3   OH239442   1.131   4.445  16.803 -0.0937  0.0318 -0.1886
 5984TIP3    H139443   1.206   4.493  16.839 -0.6037  0.6450  0.0529
 5984TIP3    H239444   1.146   4.354  16.831  0.6304  0.1200 -0.2613
 5985TIP3   OH239445   4.497   0.904  14.957 -0.5789  0.5811  0.0320
 5985TIP3    H139446   4.506   0.924  15.050 -1.9606 -1.7778  0.7693
 5985TIP3    H239447   4.529   0.814  14.948  0.2092  1.0022 -1.9442
 5986TIP3   OH239448   2.998   0.555  12.445 -0.0908  0.1795  0.1480
 5986TIP3    H139449   3.000   0.609  12.524 -0.3139 -3.7052  3.1205
 5986TIP3    H239450   2.905   0.541  12.428 -0.0341  0.7065 -0.6723
 5987TIP3   OH239451   0.005   1.492   1.756 -0.3685  0.0249 -0.1405
 5987TIP3    H139452   0.056   1.464   1.831 -0.5346 -0.0454 -0.0543
 5987TIP3    H239453  -0.083   1.505   1.790 -0.2284  0.9862 -0.0971
 5988TIP3   OH239454   6.042   1.446   1.581 -0.3207  0.3755 -0.2338
 5988TIP3    H139455   5.974   1.420   1.520  0.0187 -0.6998 -0.1774
 5988TIP3    H239456   6.011   1.529   1.618 -0.6787  0.8916 -1.6134
 5989TIP3   OH239457   0.067   5.081   5.872  0.2365 -0.4031  0.5099
 5989TIP3    H139458   0.029   4.993   5.880  2.2934 -1.4309 -0.2351
 5989TIP3    H239459   0.114   5.095   5.954  0.6831 -0.4163  0.2618
 5990TIP3   OH239460   6.004   1.241   4.780 -0.5902  0.0180  0.2634
 5990TIP3    H139461   5.965   1.325   4.755 -1.5267 -0.3199  0.5607
 5990TIP3    H239462   5.932   1.179   4.775 -0.0088 -0.6833  0.5135
 5991TIP3   OH239463   2.671   0.254  12.630 -0.8178  0.0273  0.5261
 5991TIP3    H139464   2.601   0.190  12.640 -1.3445  0.5155  0.0009
 5991TIP3    H239465   2.629   0.339  12.643 -0.0593  0.2648  1.5471
 5992TIP3   OH239466   6.637   2.940  15.183  0.7024  0.1249 -0.6879
 5992TIP3    H139467   6.726   2.952  15.216  0.1747  0.2162  0.8041
 5992TIP3    H239468   6.636   2.985  15.099  1.9282  0.5472 -0.4945
 5993TIP3   OH239469   0.553   0.783  16.911  0.6853 -0.0600 -0.3670
 5993TIP3    H139470   0.517   0.838  16.980 -0.6923  1.3435 -2.1015
 5993TIP3    H239471   0.539   0.833  16.831 -1.2813 -3.1958 -2.1765
 5994TIP3   OH239472   3.603   6.005  15.820  0.0321  0.2080 -0.1102
 5994TIP3    H139473   3.538   6.038  15.883  1.6643 -0.5245  2.0988
 5994TIP3    H239474   3.590   5.910  15.820 -0.3592  0.2399 -1.4269
 5995TIP3   OH239475   1.176   0.361   0.769  0.0259  0.1132  0.0961
 5995TIP3    H139476   1.122   0.282   0.768  0.0549  0.0814 -1.7310
 5995TIP3    H239477   1.257   0.335   0.725 -0.0926  1.2462 -0.8389
 5996TIP3   OH239478   5.873   0.921  12.219  0.4474 -0.6374 -0.0191
 5996TIP3    H139479   5.847   0.998  12.168  0.9781  0.4222  1.2681
 5996TIP3    H239480   5.794   0.898  12.269 -0.0800 -1.6897 -1.2704
 5997TIP3   OH239481   6.530   3.156   3.393 -0.7174 -0.2813 -0.4024
 5997TIP3    H139482   6.467   3.086   3.377 -0.3525 -0.6192 -0.3830
 5997TIP3    H239483   6.613   3.110   3.410 -0.1876  0.1813 -1.6005
 5998TIP3   OH239484   0.806   1.729   3.705 -0.1166 -0.0341  0.2243
 5998TIP3    H139485   0.817   1.637   3.728 -1.4817 -0.2402  0.0959
 5998TIP3    H239486   0.729   1.757   3.754 -0.7488  0.5695 -1.0732
 5999TIP3   OH239487   0.197   1.062  12.442  0.3945  0.0425 -0.0325
 5999TIP3    H139488   0.241   1.050  12.357  1.6614  0.8604  0.4817
 5999TIP3    H239489   0.210   0.979  12.487  0.0392 -0.2656 -0.4787
 6000TIP3   OH239490   3.903   3.454   0.364 -0.0834  0.0231 -0.1232
 6000TIP3    H139491   3.890   3.373   0.314  1.5981 -0.9776  0.9920
 6000TIP3    H239492   3.971   3.501   0.316 -0.6212  0.5154 -0.4236
 6001TIP3   OH239493   6.593   3.200  13.668  0.2462  0.3960  0.3737
 6001TIP3    H139494   6.661   3.136  13.649  0.7712  0.9414  0.3827
 6001TIP3    H239495   6.583   3.197  13.763  0.3729  0.4302  0.3881
 6002TIP3   OH239496   3.444   6.600  16.793 -0.1019 -0.2229 -0.0783
 6002TIP3    H139497   3.432   6.511  16.827  1.4018 -0.6291 -0.5204
 6002TIP3    H239498   3.367   6.648  16.822 -0.7896 -1.5995  0.4285
 6003TIP3   OH239499   2.348   3.222   0.541  0.6432 -0.1463  0.0144
 6003TIP3    H139500   2.390   3.169   0.609 -2.6136 -1.5503  1.1383
 6003TIP3    H239501   2.297   3.159   0.490 -1.5057  1.6048 -0.0947
 6004TIP3   OH239502   1.884   5.093   2.485 -0.5631  0.5311  0.0718
 6004TIP3    H139503   1.948   5.124   2.549  0.7783 -1.5846 -0.1472
 6004TIP3    H239504   1.846   5.016   2.525 -1.0392  0.2394 -0.9140
 6005TIP3   OH239505   2.198   5.512  10.795  0.0040  0.2028  0.0456
 6005TIP3    H139506   2.147   5.437  10.765  1.6917 -0.2380 -1.9123
 6005TIP3    H239507   2.225   5.489  10.884 -0.0880 -1.1924 -0.2676
 6006TIP3   OH239508   3.946   5.147  11.726  0.2331 -0.5111 -0.0548
 6006TIP3    H139509   3.896   5.227  11.708 -1.3957 -1.2637  0.8653
 6006TIP3    H239510   3.964   5.111  11.639 -0.9896 -0.2811 -0.4322
 6007TIP3   OH239511   3.611   5.706   0.767  0.7264 -0.5955 -0.2736
 6007TIP3    H139512   3.690   5.670   0.726  1.8824  2.7347 -1.3001
 6007TIP3    H239513   3.555   5.729   0.693  0.8697  1.3582  0.1828
 6008TIP3   OH239514   5.492   4.792   4.330  0.1104  0.3272  0.5463
 6008TIP3    H139515   5.585   4.792   4.310 -0.2681 -1.5506 -1.5058
 6008TIP3    H239516   5.479   4.715   4.385 -0.2297  0.6987  1.0007
 6009TIP3   OH239517   0.882   4.103   2.504 -0.3626  0.4518  0.1441
 6009TIP3    H139518   0.946   4.159   2.549 -0.0303  0.2873 -0.1125
 6009TIP3    H239519   0.828   4.164   2.454 -0.0101  0.5483 -0.1249
 6010TIP3   OH239520   1.157   3.510  12.589  0.1528 -0.1222 -0.5363
 6010TIP3    H139521   1.236   3.460  12.613  0.0371 -0.4838 -0.9072
 6010TIP3    H239522   1.130   3.473  12.505  0.0092  0.5068 -0.7667
 6011TIP3   OH239523   5.588   2.883  14.946 -0.0837 -0.0544  0.0991
 6011TIP3    H139524   5.500   2.889  14.908  0.2492 -0.0938 -0.6868
 6011TIP3    H239525   5.599   2.966  14.992 -0.9367 -0.4737  1.0971
 6012TIP3   OH239526   4.602   4.085   1.161  0.1257  0.5227  0.1149
 6012TIP3    H139527   4.623   4.148   1.231 -0.4437  0.1925  0.5912
 6012TIP3    H239528   4.585   4.003   1.207  2.3385 -0.4122 -0.5834
 6013TIP3   OH239529   5.434   0.004  14.869 -0.3568  0.3754 -0.0973
 6013TIP3    H139530   5.367  -0.059  14.894  0.9578 -0.5077  1.4173
 6013TIP3    H239531   5.385   0.080  14.836 -2.0126 -0.8543 -0.6049
 6014TIP3   OH239532   6.556   1.211   1.515  0.2684  0.2039  0.1697
 6014TIP3    H139533   6.503   1.264   1.455  0.2180  1.5154  1.3274
 6014TIP3    H239534   6.604   1.151   1.457  1.4239  2.4531 -1.3668
 6015TIP3   OH239535   1.770   1.788  11.982 -0.1396  0.1216 -0.0293
 6015TIP3    H139536   1.735   1.773  11.894  0.2464 -0.8098 -0.0356
 6015TIP3    H239537   1.824   1.866  11.973  2.4506 -1.6692 -1.4132
 6016TIP3   OH239538   4.902   5.973   5.285  0.4900 -0.0277 -0.8254
 6016TIP3    H139539   4.835   5.905   5.282 -0.1632  0.4902  1.1296
 6016TIP3    H239540   4.878   6.028   5.358  1.1525  2.2172 -2.2027
 6017TIP3   OH239541   1.194   3.795   0.553 -0.2642 -0.0303 -0.3814
 6017TIP3    H139542   1.170   3.850   0.479 -0.8782  0.0897 -0.1067
 6017TIP3    H239543   1.210   3.709   0.516 -1.1957 -0.1257 -0.5791
 6018TIP3   OH239544   2.945   0.669  11.493  0.0700  0.3435 -0.2096
 6018TIP3    H139545   2.933   0.751  11.446 -1.3212 -0.2505 -0.9454
 6018TIP3    H239546   2.993   0.613  11.433  1.4768  0.7565  0.4871
 6019TIP3   OH239547   1.467   2.815  17.281 -0.1910 -0.1718  0.0804
 6019TIP3    H139548   1.553   2.825  17.240 -0.4214  0.9222 -0.1789
 6019TIP3    H239549   1.478   2.742  17.342  0.4993 -1.0335 -1.0180
 6020TIP3   OH239550   2.012   1.154  14.677 -0.2738 -0.1592 -0.2534
 6020TIP3    H139551   2.030   1.083  14.738  0.7186 -0.4798 -0.8903
 6020TIP3    H239552   1.945   1.118  14.618 -0.8007 -0.0575  0.2754
 6021TIP3   OH239553   4.971   1.057   0.528 -0.3944 -0.2813 -0.8014
 6021TIP3    H139554   5.063   1.041   0.549  0.1181  0.3459 -2.4476
 6021TIP3    H239555   4.966   1.151   0.512 -1.7175  0.0035  0.9595
 6022TIP3   OH239556   6.301   4.406   1.229 -0.6519 -0.3828  0.0524
 6022TIP3    H139557   6.299   4.322   1.182 -2.1644 -0.2744 -0.1449
 6022TIP3    H239558   6.327   4.383   1.318 -0.1377 -0.9240 -0.2267
 6023TIP3   OH239559   3.619   6.250  16.292 -0.2352 -0.5371 -0.1703
 6023TIP3    H139560   3.644   6.174  16.240 -1.0326 -0.9760  0.0735
 6023TIP3    H239561   3.524   6.241  16.305 -0.1000 -0.3098  1.1459
 6024TIP3   OH239562   1.998   3.497  15.705  0.4400  0.4869  0.4537
 6024TIP3    H139563   2.029   3.406  15.697 -0.5745 -0.0506  2.1295
 6024TIP3    H239564   2.078   3.550  15.700  1.3918 -0.6849  2.1940
 6025TIP3   OH239565   2.509   1.571  15.845  0.3799  0.3550  0.8714
 6025TIP3    H139566   2.485   1.478  15.850 -0.3482  0.4311 -0.5973
 6025TIP3    H239567   2.542   1.582  15.756  2.0943  1.1579  1.5661
 6026TIP3   OH239568   2.305   5.579  16.235 -0.3192  0.0902  0.0351
 6026TIP3    H139569   2.368   5.564  16.164 -3.0925 -1.5505 -2.3017
 6026TIP3    H239570   2.312   5.673  16.253  1.0895  0.4038 -1.8140
 6027TIP3   OH239571   3.767   1.649  14.386 -0.2631 -0.2978 -0.5172
 6027TIP3    H139572   3.699   1.581  14.390  1.4711 -2.0907 -0.1158
 6027TIP3    H239573   3.759   1.685  14.297 -2.4698  0.4115 -0.1068
 6028TIP3   OH239574   0.218   6.294  11.506 -0.0504  0.5481  0.6336
 6028TIP3    H139575   0.149   6.243  11.549 -1.0386  0.0882 -1.3582
 6028TIP3    H239576   0.224   6.256  11.418  1.0774  2.1459 -0.0222
 6029TIP3   OH239577   1.922   3.415   1.085 -0.6118  0.0532  0.4541
 6029TIP3    H139578   1.902   3.324   1.067 -1.0778  0.0385  1.0060
 6029TIP3    H239579   1.975   3.444   1.011  2.2908 -1.5307  1.7610
 6030TIP3   OH239580   2.335   5.071   3.166  0.1941  0.6209  0.1190
 6030TIP3    H139581   2.314   5.103   3.078  0.4522  1.0571  0.2118
 6030TIP3    H239582   2.428   5.092   3.177  0.6128 -0.9371 -0.1455
 6031TIP3   OH239583   3.954   4.625   3.584  0.2518 -0.4284  0.1519
 6031TIP3    H139584   3.897   4.634   3.508  0.8161  0.0408 -0.2258
 6031TIP3    H239585   3.940   4.535   3.614 -0.1061 -0.5606 -0.3994
 6032TIP3   OH239586   5.324   0.552   5.272  0.2459 -0.2847 -0.1701
 6032TIP3    H139587   5.276   0.573   5.352 -0.3130  0.4114 -0.6822
 6032TIP3    H239588   5.409   0.595   5.282 -0.3108  0.9402 -0.5219
 6033TIP3   OH239589   5.422   4.800  13.969 -0.5045  0.6875  0.0520
 6033TIP3    H139590   5.452   4.711  13.985 -0.8367  0.8812  1.9777
 6033TIP3    H239591   5.497   4.844  13.929  0.4866  0.1842  1.3184
 6034TIP3   OH239592   2.350   6.093  12.203 -0.4236  0.4057  0.3491
 6034TIP3    H139593   2.390   6.179  12.220  0.6612  0.4122 -1.9016
 6034TIP3    H239594   2.289   6.109  12.131  1.4692 -1.0581 -1.7064
 6035TIP3   OH239595   5.535   0.604   6.024  0.1501 -0.3448 -0.4956
 6035TIP3    H139596   5.626   0.576   6.022  0.1736 -0.2963 -0.2109
 6035TIP3    H239597   5.516   0.616   6.118 -0.5112 -1.5773 -0.4412
 6036TIP3   OH239598   2.068   3.245  14.921 -0.3464 -0.2105  0.4189
 6036TIP3    H139599   2.034   3.212  15.004 -1.4834 -1.5104 -0.5259
 6036TIP3    H239600   1.997   3.232  14.858  0.4964  0.6974 -0.7866
 6037TIP3   OH239601   5.914   0.285  10.439 -0.0828 -0.3925 -0.5298
 6037TIP3    H139602   5.847   0.216  10.446 -0.4626 -0.0772 -1.0195
 6037TIP3    H239603   5.997   0.239  10.452 -0.4801 -0.3135  3.5162
 6038TIP3   OH239604   6.502   3.743   3.956 -0.3046  0.2546  0.4612
 6038TIP3    H139605   6.540   3.672   3.905 -0.1076  0.7711 -0.1335
 6038TIP3    H239606   6.550   3.743   4.038  0.3712  0.3250  0.0718
 6039TIP3   OH239607   3.631   5.962  11.246  0.0228  0.4665 -0.8671
 6039TIP3    H139608   3.579   5.946  11.325 -1.1673  0.6349 -1.5933
 6039TIP3    H239609   3.720   5.972  11.278 -0.2615 -0.5673  0.3433
 6040TIP3   OH239610   6.234   0.834  10.825  0.4198 -0.3202  0.2988
 6040TIP3    H139611   6.145   0.868  10.818  0.1279 -0.7294  1.7423
 6040TIP3    H239612   6.248   0.787  10.743 -0.3112  0.5902 -0.3808
 6041TIP3   OH239613   1.206   3.045   0.736 -0.2741 -0.4632  0.1239
 6041TIP3    H139614   1.205   3.042   0.641 -2.1046 -2.7082  0.1494
 6041TIP3    H239615   1.298   3.028   0.759 -0.2312 -2.4275 -1.2408
 6042TIP3   OH239616   1.570   0.474  13.708 -0.3708  0.0747  0.0645
 6042TIP3    H139617   1.536   0.527  13.780  0.2561  0.0936  0.3539
 6042TIP3    H239618   1.622   0.406  13.751  0.1304  0.1711 -0.3757
 6043TIP3   OH239619   0.145   3.636  16.053 -0.8662 -0.0281  0.1218
 6043TIP3    H139620   0.175   3.560  16.002  0.6578  0.7583 -0.1836
 6043TIP3    H239621   0.104   3.693  15.988 -1.4578 -0.2849  0.2565
 6044TIP3   OH239622   6.601   4.082   0.596  0.4773 -0.1912  0.3558
 6044TIP3    H139623   6.522   4.061   0.646  1.2708 -1.1609  1.2646
 6044TIP3    H239624   6.604   4.177   0.593  0.0198 -0.1267  1.5346
 6045TIP3   OH239625   0.185   2.931  11.022  0.6392  0.7406  0.1110
 6045TIP3    H139626   0.178   2.961  11.112 -0.9802 -1.0764  0.6858
 6045TIP3    H239627   0.143   2.845  11.023  3.2173 -0.6851 -1.7672
 6046TIP3   OH239628   3.335   5.105   4.232  0.3212 -0.8046 -0.5473
 6046TIP3    H139629   3.427   5.079   4.234  0.3928 -0.5244  0.4184
 6046TIP3    H239630   3.311   5.103   4.139  1.3768 -0.6234 -0.8367
 6047TIP3   OH239631   4.550   3.314  14.983  0.2837 -0.0658  0.7538
 6047TIP3    H139632   4.625   3.322  15.042 -0.0202 -1.0247  1.2922
 6047TIP3    H239633   4.478   3.286  15.039 -0.0331 -0.9430 -0.0527
 6048TIP3   OH239634   4.267   5.805   5.123 -0.3333 -0.1104  0.4584
 6048TIP3    H139635   4.362   5.793   5.116 -0.3381  0.0026  0.2097
 6048TIP3    H239636   4.236   5.724   5.163 -0.1343 -0.1534  0.5323
 6049TIP3   OH239637   1.986   5.418  12.461 -0.6096 -0.1714  0.2651
 6049TIP3    H139638   2.069   5.431  12.415 -1.1382  1.3828 -0.3087
 6049TIP3    H239639   2.012   5.399  12.552  0.3737 -0.5306 -0.0809
 6050TIP3   OH239640   3.915   3.684   4.563 -0.5879 -0.1159 -0.4146
 6050TIP3    H139641   3.978   3.743   4.520  2.8496 -3.1277 -0.0302
 6050TIP3    H239642   3.906   3.719   4.652 -3.3190  2.9414 -1.6783
 6051TIP3   OH239643   6.263   0.608   4.590 -0.3293 -0.3871 -0.4311
 6051TIP3    H139644   6.257   0.519   4.626 -0.5252  0.0990  0.7748
 6051TIP3    H239645   6.354   0.632   4.602 -0.5522  0.0518  0.4363
 6052TIP3   OH239646   3.477   6.047   3.760  0.0456  0.3211 -0.1965
 6052TIP3    H139647   3.457   6.139   3.780 -0.5934  0.0649  0.4149
 6052TIP3    H239648   3.421   5.998   3.820  3.2089 -0.4906  2.3170
 6053TIP3   OH239649   0.244   4.392   4.101 -0.2468  0.3529 -0.0265
 6053TIP3    H139650   0.304   4.401   4.175 -0.9696 -4.1342  1.4577
 6053TIP3    H239651   0.209   4.479   4.087  0.8814  1.6938  4.1040
 6054TIP3   OH239652   5.030   1.861   2.109 -0.3858  0.0214 -0.3092
 6054TIP3    H139653   4.999   1.940   2.064 -1.7301  0.2524  0.9474
 6054TIP3    H239654   4.962   1.795   2.092 -1.6817  0.5101  2.4330
 6055TIP3   OH239655   5.305   2.997  13.232  0.0297  0.0803 -0.1415
 6055TIP3    H139656   5.338   2.918  13.189  1.2376 -0.6412  1.9807
 6055TIP3    H239657   5.363   3.067  13.202  2.2107 -0.7813  1.7805
 6056TIP3   OH239658   4.341   0.672  12.336 -0.0650  0.6494  0.1668
 6056TIP3    H139659   4.358   0.766  12.347 -0.5076  0.7370  0.1371
 6056TIP3    H239660   4.246   0.667  12.322  0.0017  0.2237 -0.1330
 6057TIP3   OH239661   6.801   1.086   2.553 -0.4538  0.2182 -0.7218
 6057TIP3    H139662   6.727   1.027   2.561 -0.2300  0.0258  0.0232
 6057TIP3    H239663   6.789   1.129   2.469 -2.1021  1.1404 -0.0539
 6058TIP3   OH239664   5.464   3.272   1.208  0.3670 -0.0547  0.8998
 6058TIP3    H139665   5.461   3.176   1.208  1.9114 -0.1434 -0.2765
 6058TIP3    H239666   5.510   3.295   1.289  2.0621 -0.4589  0.0968
 6059TIP3   OH239667   6.001   6.608  16.777 -0.2798 -0.6487  0.1475
 6059TIP3    H139668   6.052   6.530  16.798  0.3302 -1.2592 -3.0296
 6059TIP3    H239669   6.061   6.681  16.792 -0.4496 -0.8463  1.9547
 6060TIP3   OH239670   2.210   0.245   4.780 -0.2392  0.4288  0.3980
 6060TIP3    H139671   2.294   0.223   4.740 -1.2129 -0.1920 -1.4315
 6060TIP3    H239672   2.225   0.236   4.874  1.5429 -0.3312  0.0804
 6061TIP3   OH239673   5.424   3.674  15.717  0.4967 -0.6115  0.0348
 6061TIP3    H139674   5.441   3.764  15.747 -0.2065 -0.2655 -0.5735
 6061TIP3    H239675   5.392   3.629  15.795 -0.7312  0.1128 -0.0301
 6062TIP3   OH239676   5.167   0.567   4.525 -0.0352  0.0750 -0.7113
 6062TIP3    H139677   5.167   0.583   4.430  0.9222  2.5039 -0.3794
 6062TIP3    H239678   5.220   0.488   4.535 -0.2421 -0.2946 -2.1892
 6063TIP3   OH239679   6.226   3.956   5.760 -0.4855  0.0577  0.2194
 6063TIP3    H139680   6.205   3.869   5.793 -0.4460  0.3053  0.9251
 6063TIP3    H239681   6.224   4.012   5.838 -0.8253  0.7452 -0.2715
 6064TIP3   OH239682   2.163   1.354  12.102  0.7692  0.5595 -0.6860
 6064TIP3    H139683   2.121   1.434  12.072 -0.6041 -0.8505 -2.7525
 6064TIP3    H239684   2.091   1.293  12.119  1.7178 -0.0397  1.7413
 6065TIP3   OH239685   0.485   4.461  12.484 -0.3046 -0.5970 -0.4403
 6065TIP3    H139686   0.565   4.468  12.535  1.4347 -0.0643 -3.0188
 6065TIP3    H239687   0.478   4.544  12.437 -1.5588 -1.1845 -1.3754
 6066TIP3   OH239688   3.239   3.922   4.158  0.4986  0.1475 -0.5690
 6066TIP3    H139689   3.230   3.833   4.192  3.1751  0.0271 -0.0207
 6066TIP3    H239690   3.333   3.934   4.147  0.5749  4.0013  2.3541
 6067TIP3   OH239691   1.990   6.332   1.034  0.2478 -0.3814 -0.1358
 6067TIP3    H139692   2.012   6.297   1.121  1.0446 -0.5794 -0.4075
 6067TIP3    H239693   1.987   6.427   1.047 -1.2328 -0.4767  0.4518
 6068TIP3   OH239694   0.410   4.693  13.765 -0.1686 -0.1066  0.4018
 6068TIP3    H139695   0.371   4.609  13.787  1.5572 -0.6766  1.4664
 6068TIP3    H239696   0.390   4.749  13.841 -0.1075  0.0282  0.3194
 6069TIP3   OH239697   3.898   1.745   5.887 -0.1125  1.1058 -0.4317
 6069TIP3    H139698   3.926   1.707   5.971 -2.0330 -0.9139 -0.6217
 6069TIP3    H239699   3.951   1.700   5.821 -0.7765  0.4377 -0.5078
 6070TIP3   OH239700   1.439   3.099   4.760 -0.2233 -0.1505 -0.1578
 6070TIP3    H139701   1.360   3.137   4.721 -1.3400 -1.4778  0.7291
 6070TIP3    H239702   1.444   3.139   4.847  0.9827  1.0794 -0.7465
 6071TIP3   OH239703   6.560   5.980   5.924 -0.3868  0.0761 -0.5989
 6071TIP3    H139704   6.469   5.951   5.930  0.1748 -1.6965  0.0093
 6071TIP3    H239705   6.579   6.017   6.010 -0.1143 -0.8942 -0.2370
 6072TIP3   OH239706   2.037   4.206  15.839  0.0240 -0.0267 -0.0154
 6072TIP3    H139707   1.942   4.207  15.839  0.0111 -0.8089  0.1532
 6072TIP3    H239708   2.061   4.119  15.870  0.7807 -0.2024 -1.0061
 6073TIP3   OH239709   1.605   1.700  10.691  0.1629 -0.5388 -0.0929
 6073TIP3    H139710   1.687   1.652  10.681  0.0021 -0.6423 -0.9796
 6073TIP3    H239711   1.631   1.781  10.735  0.4115 -1.4644  1.5587
 6074TIP3   OH239712   2.765   0.214  16.181 -0.1178 -0.3314  0.1413
 6074TIP3    H139713   2.844   0.236  16.230 -1.5303  2.6210  1.3007
 6074TIP3    H239714   2.774   0.261  16.098 -0.8909  0.5768  0.5486
 6075TIP3   OH239715   5.410   0.685  13.014  0.2266  0.4460  0.0700
 6075TIP3    H139716   5.320   0.657  12.998 -0.1893  1.4821  0.5065
 6075TIP3    H239717   5.401   0.762  13.071  1.4469 -0.3326  1.3767
 6076TIP3   OH239718   1.087   6.295   6.129 -0.0855  0.5077 -0.3399
 6076TIP3    H139719   1.020   6.339   6.078 -2.9805 -2.5016  0.4857
 6076TIP3    H239720   1.091   6.344   6.211 -2.1203  0.1691  0.0016
 6077TIP3   OH239721   3.674   4.834  16.878 -0.1596 -0.2217 -0.4648
 6077TIP3    H139722   3.636   4.921  16.878  0.4435  0.0767  1.3552
 6077TIP3    H239723   3.647   4.795  16.961 -0.9839 -2.0650 -1.5190
 6078TIP3   OH239724   5.135   0.065  14.101  0.8222  0.1548  0.3208
 6078TIP3    H139725   5.193  -0.012  14.097  1.2886  0.5466 -1.6539
 6078TIP3    H239726   5.191   0.138  14.074  0.5040  1.3119  2.5730
 6079TIP3   OH239727   6.459   2.653  16.759 -0.2944 -0.2636  0.2567
 6079TIP3    H139728   6.487   2.693  16.842 -0.2848  2.2649 -0.8715
 6079TIP3    H239729   6.386   2.596  16.783  1.0816 -1.2863  2.2680
 6080TIP3   OH239730   0.777   3.129   4.430 -0.2898 -0.0982  0.4055
 6080TIP3    H139731   0.689   3.116   4.465 -0.5027 -1.1722 -0.4571
 6080TIP3    H239732   0.835   3.100   4.501 -0.6827 -1.1223  0.3319
 6081TIP3   OH239733   3.233   3.038  11.360 -0.6771 -0.2929  0.5918
 6081TIP3    H139734   3.285   3.045  11.280  0.2846  1.0850  1.2901
 6081TIP3    H239735   3.154   3.090  11.343 -0.1763  0.5405  0.7286
 6082TIP3   OH239736   4.353   4.973   3.492 -0.3331  0.3051  0.3170
 6082TIP3    H139737   4.398   4.899   3.533  0.0282 -0.2430 -1.0258
 6082TIP3    H239738   4.330   4.943   3.404 -0.8695  1.5287  0.0034
 6083TIP3   OH239739   6.141   2.278   4.365  0.0237  0.5658  0.0453
 6083TIP3    H139740   6.197   2.342   4.409  0.5347 -0.0941  0.3790
 6083TIP3    H239741   6.075   2.255   4.430  1.8077 -1.7258  1.1765
 6084TIP3   OH239742   3.432   6.453  12.449 -0.2251 -0.5388  0.3649
 6084TIP3    H139743   3.412   6.526  12.391  1.1218 -0.0789  0.4675
 6084TIP3    H239744   3.450   6.379  12.391  0.2621 -0.3022  0.2125
 6085TIP3   OH239745   0.792   0.149   2.949 -0.2050 -0.2782 -0.1347
 6085TIP3    H139746   0.871   0.096   2.960  1.7398  2.2125 -1.2845
 6085TIP3    H239747   0.780   0.154   2.854 -0.1321  1.5825 -0.0706
 6086TIP3   OH239748   0.575   3.656   5.941  0.1106  0.0172  0.4891
 6086TIP3    H139749   0.601   3.729   5.997 -1.1641 -0.2045  1.4268
 6086TIP3    H239750   0.546   3.588   6.002 -1.0219 -0.3464 -0.4188
 6087TIP3   OH239751   0.585   3.148   2.414 -0.0994 -0.3254 -0.1657
 6087TIP3    H139752   0.606   3.104   2.332  0.5752  1.3105 -0.9233
 6087TIP3    H239753   0.670   3.165   2.455 -0.2356  1.2400 -0.4576
 6088TIP3   OH239754   2.183   3.662   5.529  0.3092 -0.5465  0.3033
 6088TIP3    H139755   2.199   3.677   5.436  0.1920 -1.1467  0.1848
 6088TIP3    H239756   2.107   3.716   5.550 -0.4526 -1.3651 -0.2492
 6089TIP3   OH239757   4.190   5.997   2.584 -0.0543  0.0251  0.2053
 6089TIP3    H139758   4.204   6.026   2.494 -0.1706  1.9407  0.7602
 6089TIP3    H239759   4.275   6.012   2.627 -0.5913  1.2164  0.9086
 6090TIP3   OH239760   1.487   4.863  11.136  0.5301 -0.8235 -0.7063
 6090TIP3    H139761   1.457   4.795  11.076  1.2494 -0.5674 -1.3748
 6090TIP3    H239762   1.562   4.903  11.091  0.6621 -0.1811  0.0682
 6091TIP3   OH239763   1.862   4.023  16.078  0.2967  0.6425 -0.2977
 6091TIP3    H139764   1.910   4.025  15.996 -2.3777  1.2417 -1.9483
 6091TIP3    H239765   1.868   3.932  16.107  0.8302  0.2988 -1.4252
 6092TIP3   OH239766   2.929   2.112   1.844 -0.0087  0.1146 -0.2984
 6092TIP3    H139767   2.916   2.145   1.756  0.6895 -0.4531 -0.6265
 6092TIP3    H239768   2.995   2.043   1.835 -0.8102 -0.7885  0.4869
 6093TIP3   OH239769   2.765   3.519  16.273 -0.3526  0.2843 -0.1821
 6093TIP3    H139770   2.696   3.507  16.338 -1.2592  0.3285 -1.1114
 6093TIP3    H239771   2.816   3.593  16.306 -0.3274 -0.1760  0.8596
 6094TIP3   OH239772   4.260   3.547  12.019 -0.2656 -0.2984  0.5156
 6094TIP3    H139773   4.225   3.620  11.968 -1.0651  0.0431  1.5358
 6094TIP3    H239774   4.253   3.472  11.960  0.4148  0.3895 -0.4919
 6095TIP3   OH239775   3.088   4.623  15.086  0.0563 -0.2284 -0.6705
 6095TIP3    H139776   3.092   4.538  15.129  1.1289 -1.3634 -2.9086
 6095TIP3    H239777   3.022   4.613  15.018  0.1612  0.7558 -0.9373
 6096TIP3   OH239778   4.999   1.169   5.707 -0.7204  0.0287 -0.7781
 6096TIP3    H139779   5.060   1.238   5.683 -0.4831  0.3865  0.7500
 6096TIP3    H239780   4.965   1.136   5.624 -1.3287  2.4146 -1.5468
 6097TIP3   OH239781   2.966   0.976   3.791  0.1896  0.3622  0.4542
 6097TIP3    H139782   2.926   0.979   3.704 -0.8804 -0.0941  0.9116
 6097TIP3    H239783   3.023   0.900   3.789 -0.2141  0.0604  0.3026
 6098TIP3   OH239784   3.754   0.722  10.758 -0.1260  0.1846  0.1253
 6098TIP3    H139785   3.828   0.675  10.795  0.5947  1.6089  0.5407
 6098TIP3    H239786   3.790   0.769  10.682 -0.3096  1.7857  0.9818
 6099TIP3   OH239787   6.747   2.500  10.914 -0.1341 -0.1524 -0.1061
 6099TIP3    H139788   6.799   2.579  10.929  0.5050 -0.7908  1.1922
 6099TIP3    H239789   6.747   2.455  10.998  0.6403 -2.2061 -1.1501
 6100TIP3   OH239790   1.340   5.960   5.483  0.4343 -0.7907  0.3955
 6100TIP3    H139791   1.423   5.988   5.519 -0.3192  2.0953  0.1322
 6100TIP3    H239792   1.335   6.002   5.397 -1.3105 -0.8196  0.4341
 6101TIP3   OH239793   0.627   3.034   2.035  0.5001  0.4839  0.0924
 6101TIP3    H139794   0.599   2.982   1.960  2.2487 -0.6140  0.1639
 6101TIP3    H239795   0.656   3.117   1.997 -1.3486  1.0934 -0.1124
 6102TIP3   OH239796   3.187   1.229   3.616 -0.0986  0.1807  0.6210
 6102TIP3    H139797   3.102   1.198   3.647  0.7189 -0.8496  1.9373
 6102TIP3    H239798   3.165   1.296   3.551 -1.9075 -0.2630  0.7032
 6103TIP3   OH239799   5.423   3.615  13.202  0.0160  0.1647  0.0591
 6103TIP3    H139800   5.352   3.620  13.138 -0.3644 -0.1747  0.4480
 6103TIP3    H239801   5.383   3.641  13.285  0.5345  0.7151  0.1418
 6104TIP3   OH239802   1.913   3.181   4.365  0.5797 -0.4022  0.7722
 6104TIP3    H139803   1.946   3.116   4.426 -0.5634 -0.4795  1.3312
 6104TIP3    H239804   1.818   3.177   4.374  0.4557  0.8653  0.3232
 6105TIP3   OH239805   2.110   3.922   4.043 -0.3485 -0.4411 -0.5302
 6105TIP3    H139806   2.133   3.857   3.977  1.6265  0.0757 -0.4109
 6105TIP3    H239807   2.050   3.981   3.997  0.6086 -0.3600 -1.7421
 6106TIP3   OH239808   3.746   6.408  17.266  0.1237 -0.4464 -0.1934
 6106TIP3    H139809   3.766   6.424  17.358 -1.2951 -0.7499  0.1864
 6106TIP3    H239810   3.651   6.418  17.260  0.1191 -1.1170 -1.4889
 6107TIP3   OH239811   0.970   2.547  13.311 -0.7955  0.3220 -0.5583
 6107TIP3    H139812   1.018   2.630  13.307 -0.3156  0.0362 -0.8373
 6107TIP3    H239813   1.013   2.497  13.381 -0.0596 -0.3098 -1.4352
 6108TIP3   OH239814   2.945   2.973  12.303 -0.7738  0.5804  0.3493
 6108TIP3    H139815   2.968   3.027  12.227  0.7431 -0.8861 -0.3029
 6108TIP3    H239816   2.864   2.930  12.278 -0.8862  0.9745  0.0242
 6109TIP3   OH239817   0.586   6.131  16.827 -0.0447  0.0025  0.0160
 6109TIP3    H139818   0.511   6.103  16.775 -1.2202  0.5644  1.3545
 6109TIP3    H239819   0.548   6.164  16.908  1.7572 -1.3237  1.4640
 6110TIP3   OH239820   6.431   5.795  16.408 -0.4745 -0.0310  0.2676
 6110TIP3    H139821   6.415   5.889  16.405 -0.9983 -0.1238 -1.5271
 6110TIP3    H239822   6.516   5.784  16.366 -0.9562 -0.4220 -0.6450
 6111TIP3   OH239823   4.509   2.233  12.877 -0.2025  0.0500  0.4140
 6111TIP3    H139824   4.416   2.231  12.854 -0.1952  0.6639  0.3072
 6111TIP3    H239825   4.516   2.301  12.943 -0.0568 -1.0205  1.5396
 6112TIP3   OH239826   2.807   2.455   5.941 -0.6817  0.1069  0.3336
 6112TIP3    H139827   2.864   2.526   5.970  1.5986 -1.6859  0.5576
 6112TIP3    H239828   2.822   2.449   5.846 -0.2793 -0.5148  0.4273
 6113TIP3   OH239829   4.421   6.653  16.347 -0.2112 -0.4810 -1.4294
 6113TIP3    H139830   4.406   6.746  16.363  0.4804 -0.6428  0.3317
 6113TIP3    H239831   4.507   6.649  16.304 -0.1283 -0.3316 -1.2748
 6114TIP3   OH239832   1.423   3.733  17.187  0.5052  0.6762  0.4694
 6114TIP3    H139833   1.350   3.699  17.135  1.5366 -0.0357 -0.5910
 6114TIP3    H239834   1.383   3.763  17.268 -0.8864 -0.2052  0.1505
 6115TIP3   OH239835   3.477   1.784   2.574  0.0882  0.0762 -0.1550
 6115TIP3    H139836   3.445   1.781   2.664 -0.6544  1.0099 -0.3694
 6115TIP3    H239837   3.541   1.855   2.574  0.1443  0.0244 -0.3417
 6116TIP3   OH239838   3.448   0.318  17.135 -0.1639  0.1415  0.1292
 6116TIP3    H139839   3.412   0.287  17.052 -0.0235 -1.1509  0.5286
 6116TIP3    H239840   3.466   0.238  17.185 -0.5615  0.9042  1.5413
 6117TIP3   OH239841   5.712   2.454   1.961 -0.0073 -0.0976 -0.0360
 6117TIP3    H139842   5.625   2.435   1.996 -0.4150  1.4648 -0.1088
 6117TIP3    H239843   5.759   2.494   2.034 -0.0800  1.0041 -0.5619
 6118TIP3   OH239844   5.429   0.640  16.640 -0.0085  0.1666 -0.7034
 6118TIP3    H139845   5.378   0.559  16.641 -1.1687  0.8762  0.7901
 6118TIP3    H239846   5.369   0.706  16.607  0.7276  0.5749 -1.2654
 6119TIP3   OH239847   3.191   4.483  16.487  0.0580  0.0306 -0.0982
 6119TIP3    H139848   3.257   4.420  16.517 -0.5484 -0.3153  0.5379
 6119TIP3    H239849   3.109   4.448  16.521 -0.3672  0.8131 -0.3242
 6120TIP3   OH239850   3.407   1.846  16.351 -0.3808 -0.8747 -0.6703
 6120TIP3    H139851   3.394   1.926  16.301 -0.8434 -1.6591 -1.8602
 6120TIP3    H239852   3.385   1.776  16.290 -0.1522 -1.9075  0.3911
 6121TIP3   OH239853   2.691   1.885   4.196 -0.3596  0.0220  0.6879
 6121TIP3    H139854   2.607   1.874   4.151 -1.5731 -0.5781  2.9462
 6121TIP3    H239855   2.712   1.978   4.186 -1.0894  0.1032 -0.2127
 6122TIP3   OH239856   5.486   5.383  11.876  0.2806  0.0827  0.3781
 6122TIP3    H139857   5.473   5.351  11.965  1.1625 -2.6383 -0.3681
 6122TIP3    H239858   5.461   5.309  11.820 -1.4533  2.1003 -1.7512
 6123TIP3   OH239859   0.306   1.313  13.508 -0.0168  0.4162  0.5390
 6123TIP3    H139860   0.369   1.247  13.537  0.4604  1.1091  1.1106
 6123TIP3    H239861   0.351   1.396  13.521  0.0510  0.8086 -1.7854
 6124TIP3   OH239862   5.581   5.422  15.636 -0.5056  0.5207  0.0665
 6124TIP3    H139863   5.514   5.437  15.569 -0.1768  1.4374 -0.0816
 6124TIP3    H239864   5.535   5.377  15.706 -0.8178 -0.6371 -0.8414
 6125TIP3   OH239865   4.368   2.105  14.374 -0.0734 -0.3362  0.0593
 6125TIP3    H139866   4.437   2.168  14.395  1.0378 -1.5600  0.2617
 6125TIP3    H239867   4.414   2.033  14.330 -1.5628 -0.2482 -1.7600
 6126TIP3   OH239868   1.866   3.183  12.560  0.6067 -0.3736  0.7992
 6126TIP3    H139869   1.824   3.126  12.496 -2.2767  1.1817  1.1200
 6126TIP3    H239870   1.892   3.260  12.509  3.0037 -1.1956  0.6627
 6127TIP3   OH239871   3.835   0.686   5.352  0.2702  0.4850 -0.0283
 6127TIP3    H139872   3.908   0.699   5.291  0.2176 -1.1305 -0.4731
 6127TIP3    H239873   3.876   0.673   5.437  0.5078 -0.3634 -0.2688
 6128TIP3   OH239874   4.713   3.437  11.492 -0.0986 -0.1518 -0.2595
 6128TIP3    H139875   4.703   3.532  11.499  1.7631  0.0077  0.9601
 6128TIP3    H239876   4.644   3.401  11.547  0.9476  0.6196  1.6367
 6129TIP3   OH239877   2.608   3.336  16.741  0.1502 -0.4083 -0.4338
 6129TIP3    H139878   2.596   3.260  16.797 -0.4152 -0.9463 -1.2700
 6129TIP3    H239879   2.577   3.410  16.795 -0.1443 -0.8751  0.0518
 6130TIP3   OH239880   6.454   4.826  14.753  0.0451  0.1847  0.0850
 6130TIP3    H139881   6.538   4.782  14.760 -0.5021 -0.7722  0.9712
 6130TIP3    H239882   6.411   4.810  14.837 -1.1946  0.2842 -0.4999
 6131TIP3   OH239883   1.520   2.449  16.934 -0.3610 -0.2518 -0.5404
 6131TIP3    H139884   1.463   2.516  16.972  2.7998  2.0910  0.5276
 6131TIP3    H239885   1.516   2.464  16.840 -2.2683 -0.8949 -0.5976
 6132TIP3   OH239886   2.446   4.969   1.452  0.1688 -0.2662  0.1666
 6132TIP3    H139887   2.404   4.984   1.367 -1.3653 -0.7646  0.7972
 6132TIP3    H239888   2.376   4.981   1.516  1.4352  0.7513  1.4360
 6133TIP3   OH239889   6.275   6.046  13.678  0.3969 -0.0771 -0.7849
 6133TIP3    H139890   6.197   5.999  13.707  0.2447 -0.0657 -1.1662
 6133TIP3    H239891   6.292   6.110  13.746  0.0523 -0.0562 -0.7178
 6134TIP3   OH239892   0.452   3.182  11.371 -0.2503  0.1044  0.1790
 6134TIP3    H139893   0.382   3.206  11.432 -0.0636  0.2999  0.3157
 6134TIP3    H239894   0.520   3.248  11.384 -0.9941  1.3036 -1.6259
 6135TIP3   OH239895   2.713   5.023   2.325  0.7352 -0.5000  0.2368
 6135TIP3    H139896   2.648   5.018   2.396  0.5325  0.8442  0.1584
 6135TIP3    H239897   2.778   4.957   2.349 -0.9686 -2.3831 -0.0415
 6136TIP3   OH239898   0.192   5.904  14.015 -0.7245  0.1175  0.0937
 6136TIP3    H139899   0.210   5.953  13.935  0.2315  0.8243  0.7133
 6136TIP3    H239900   0.169   5.972  14.079 -0.7764 -0.3780  0.6046
 6137TIP3   OH239901   3.463   3.143   5.875  0.1192 -0.4464  0.0630
 6137TIP3    H139902   3.368   3.140   5.863  0.2419  1.8786 -2.4149
 6137TIP3    H239903   3.475   3.187   5.960 -0.9531 -1.4019  0.7431
 6138TIP3   OH239904   3.029   1.544   1.394 -0.2598  0.6881 -0.2101
 6138TIP3    H139905   2.965   1.477   1.414  1.0418 -0.4952  0.1895
 6138TIP3    H239906   3.111   1.496   1.382  0.2033  1.8970 -2.7759
 6139TIP3   OH239907   1.832   4.836   3.935 -0.3883  0.4165 -0.6664
 6139TIP3    H139908   1.865   4.897   4.000  1.9613  0.7882 -2.0707
 6139TIP3    H239909   1.895   4.764   3.934 -0.0029  0.6960 -2.8606
 6140TIP3   OH239910   3.645   3.132  13.136  0.1322  0.3558  0.4186
 6140TIP3    H139911   3.600   3.052  13.110  0.9445  0.0799 -0.1828
 6140TIP3    H239912   3.661   3.179  13.054  0.7977  0.5189  0.6330
 6141TIP3   OH239913   0.384   3.047   1.024 -0.0648 -0.4084 -0.7329
 6141TIP3    H139914   0.453   3.079   0.965 -0.2959  0.7422 -0.4015
 6141TIP3    H239915   0.303   3.069   0.980 -0.2368 -0.8653 -0.6524
 6142TIP3   OH239916   5.144   1.759   4.018 -0.1363 -0.0281  0.6260
 6142TIP3    H139917   5.210   1.710   4.068 -0.0771  1.1159  1.7102
 6142TIP3    H239918   5.170   1.748   3.927  0.3511 -1.3080  0.8995
 6143TIP3   OH239919   2.074   4.747   6.558 -0.4068 -0.5573  0.0237
 6143TIP3    H139920   2.114   4.803   6.625 -0.8701  1.7449 -1.5297
 6143TIP3    H239921   1.991   4.718   6.598 -0.2548  0.0243  0.7814
 6144TIP3   OH239922   3.496   1.688  10.871 -0.1479 -0.5223 -0.0888
 6144TIP3    H139923   3.485   1.613  10.813  0.4136 -1.3938  0.8925
 6144TIP3    H239924   3.590   1.690  10.890 -0.1358  0.5255 -0.2257
 6145TIP3   OH239925   3.090   3.662  11.996  0.0344  0.1717  0.3897
 6145TIP3    H139926   3.065   3.677  12.087  0.1507  0.0143  0.4473
 6145TIP3    H239927   3.010   3.677  11.946 -0.0482  0.1759  0.5246
 6146TIP3   OH239928   6.544   4.668   4.260  0.2261  0.0404  0.1549
 6146TIP3    H139929   6.559   4.634   4.348 -0.5841  2.1997  1.2040
 6146TIP3    H239930   6.625   4.714   4.237  0.2123  0.0064  0.0378
 6147TIP3   OH239931   6.056   3.719  15.256 -0.4497  0.1105 -0.1491
 6147TIP3    H139932   6.124   3.786  15.259 -0.7771  0.4273  0.3980
 6147TIP3    H239933   6.051   3.694  15.164 -0.2153  0.7286 -0.3347
 6148TIP3   OH239934   5.733   2.547  14.712 -0.3024  0.2419  0.6781
 6148TIP3    H139935   5.760   2.473  14.658 -0.9918  0.2680  0.2870
 6148TIP3    H239936   5.762   2.624  14.662  1.0286  0.2449  1.4099
 6149TIP3   OH239937   0.771   3.489  14.398 -0.2356  0.5152 -0.3369
 6149TIP3    H139938   0.808   3.472  14.311 -0.2751 -0.7439 -0.1318
 6149TIP3    H239939   0.689   3.535  14.382 -1.2202 -1.4090 -1.0998
 6150TIP3   OH239940   5.961   0.641  14.482 -0.1180 -0.3316 -0.0239
 6150TIP3    H139941   6.001   0.615  14.564  0.5472  2.8301  0.7763
 6150TIP3    H239942   6.030   0.629  14.416 -0.1610 -1.4005  0.1059
 6151TIP3   OH239943   0.268   0.521   2.740 -0.3475 -0.7653 -0.2709
 6151TIP3    H139944   0.226   0.553   2.660 -2.0166 -0.8990  0.5103
 6151TIP3    H239945   0.288   0.601   2.789 -2.4600 -0.7485  0.6690
 6152TIP3   OH239946   0.380   2.021   5.276  0.5473 -0.0449 -0.1324
 6152TIP3    H139947   0.405   1.974   5.356 -0.0813 -3.1081 -1.5981
 6152TIP3    H239948   0.456   2.078   5.257  0.0378  2.2062  3.4579
 6153TIP3   OH239949   0.558   4.810   5.411  0.1298 -0.5963 -0.4722
 6153TIP3    H139950   0.503   4.775   5.481  0.0570  3.0119  1.5386
 6153TIP3    H239951   0.497   4.847   5.347  0.2108 -1.0215 -0.7986
 6154TIP3   OH239952   0.569   0.481   5.664  0.1516  0.5535  0.6438
 6154TIP3    H139953   0.637   0.534   5.623  1.1397  0.8696  2.6101
 6154TIP3    H239954   0.518   0.542   5.717 -2.0161  0.4077 -1.1001
 6155TIP3   OH239955   4.164   0.390  14.873 -0.4115 -0.3383 -1.1608
 6155TIP3    H139956   4.205   0.323  14.927 -0.1808 -0.0744 -1.0076
 6155TIP3    H239957   4.075   0.399  14.908  0.0485  0.5270 -0.1960
 6156TIP3   OH239958   0.499   4.752  11.478 -0.6193 -0.1669 -0.1230
 6156TIP3    H139959   0.558   4.763  11.404 -0.1674 -2.7692 -0.2517
 6156TIP3    H239960   0.416   4.724  11.440 -0.8919  0.1046  0.2589
 6157TIP3   OH239961   3.346   3.377  14.494  0.2842 -0.0703 -0.1650
 6157TIP3    H139962   3.402   3.448  14.526  0.2592 -0.8886  1.7588
 6157TIP3    H239963   3.404   3.321  14.444  0.3676  1.1013 -1.4491
 6158TIP3   OH239964   5.053   6.067   4.155 -0.2864 -0.1366 -0.4262
 6158TIP3    H139965   5.127   6.041   4.100  0.9930 -2.0687  1.9851
 6158TIP3    H239966   5.081   6.148   4.196  1.0484 -1.3861  1.2680
 6159TIP3   OH239967   6.312   0.415  15.290  0.1579 -0.3063 -0.3539
 6159TIP3    H139968   6.221   0.394  15.309 -0.0283  0.8199  0.0205
 6159TIP3    H239969   6.330   0.495  15.338  1.1578 -0.1458 -0.9542
 6160TIP3   OH239970   6.524   5.127   4.744  0.0730  0.0772 -0.1653
 6160TIP3    H139971   6.535   5.183   4.667 -0.0233 -0.8715 -0.8816
 6160TIP3    H239972   6.502   5.188   4.815  1.7105  1.1396 -0.5147
 6161TIP3   OH239973   1.765   1.597  16.589  0.2641 -0.6942 -0.3525
 6161TIP3    H139974   1.809   1.520  16.623 -0.1200 -0.4349  0.7451
 6161TIP3    H239975   1.674   1.571  16.580  0.3822 -0.8142 -1.3787
 6162TIP3   OH239976   1.877   5.608  14.412  0.5638  0.2282  0.6308
 6162TIP3    H139977   1.923   5.675  14.361 -3.3862  2.9200  0.1396
 6162TIP3    H239978   1.834   5.554  14.346 -0.6887  0.7195  1.0136
 6163TIP3   OH239979   0.655   6.236   1.632  0.1083  0.4992 -0.0384
 6163TIP3    H139980   0.653   6.332   1.633  2.1387  0.5991 -0.3766
 6163TIP3    H239981   0.599   6.212   1.559 -1.0141  1.3795  0.4998
 6164TIP3   OH239982   1.089   3.393   0.922 -0.1702  0.0148  0.2387
 6164TIP3    H139983   1.112   3.480   0.954 -2.2645  0.4718  0.6197
 6164TIP3    H239984   1.065   3.406   0.831  0.2487 -0.3186  0.0736
 6165TIP3   OH239985   0.501   6.457   2.109 -0.3240 -0.3266  0.2486
 6165TIP3    H139986   0.467   6.423   2.026 -2.8848 -0.7633  1.4111
 6165TIP3    H239987   0.537   6.543   2.086  1.3847 -1.4515 -1.7293
 6166TIP3   OH239988   4.584   4.000  12.710 -0.4387 -0.5177 -0.5932
 6166TIP3    H139989   4.519   3.937  12.678  0.0608 -1.3983  0.0876
 6166TIP3    H239990   4.531   4.074  12.742 -0.9716  0.5707 -3.6009
 6167TIP3   OH239991   5.729   4.827   2.520 -0.2510  0.1975  0.4640
 6167TIP3    H139992   5.770   4.907   2.488 -0.5860  0.7361  1.3426
 6167TIP3    H239993   5.784   4.799   2.593  1.3136 -1.7889 -1.3536
 6168TIP3   OH239994   1.729   5.394  13.699 -0.3077  0.0876  0.1477
 6168TIP3    H139995   1.687   5.480  13.686 -1.3686 -0.3915  0.2752
 6168TIP3    H239996   1.808   5.398  13.646 -1.5232  0.3176 -1.7688
 6169TIP3   OH239997   6.697   3.208  13.211  0.4532 -0.3880  0.1966
 6169TIP3    H139998   6.739   3.181  13.292 -0.9000 -2.1545  0.3680
 6169TIP3    H239999   6.604   3.212  13.231  0.1676 -0.0267 -1.0559
 6170TIP3   OH240000   2.439   2.046   2.729  0.1776  0.0780 -0.5676
 6170TIP3    H140001   2.496   2.116   2.761  0.6997 -0.5950  0.0066
 6170TIP3    H240002   2.363   2.049   2.786  0.4804 -0.2169 -0.1422
 6171TIP3   OH240003   5.052   4.628  15.151 -0.6770 -0.3724  0.1388
 6171TIP3    H140004   5.130   4.603  15.201  1.1383  0.6245 -2.0171
 6171TIP3    H240005   5.054   4.724  15.152 -1.3856 -0.3434 -0.6990
 6172TIP3   OH240006   1.216   3.624  13.122 -0.1471  0.2398  0.5809
 6172TIP3    H140007   1.235   3.616  13.029  2.7136 -1.4875  1.2105
 6172TIP3    H240008   1.236   3.716  13.143 -0.9541  0.6765 -0.4939
 6173TIP3   OH240009   6.408   6.528  13.780 -0.3546  0.4626 -0.3593
 6173TIP3    H140010   6.438   6.438  13.770  0.1800  0.6219 -0.1784
 6173TIP3    H240011   6.486   6.578  13.800 -0.8558  0.7331  1.0556
 6174TIP3   OH240012   0.142   0.597  11.882 -1.8446  0.3022  0.0799
 6174TIP3    H140013   0.194   0.562  11.954 -1.2593  0.9971 -0.0020
 6174TIP3    H240014   0.056   0.613  11.921 -1.3831  1.1690  0.7760
 6175TIP3   OH240015   5.562   4.240  13.494 -0.5168 -0.7476  0.0941
 6175TIP3    H140016   5.517   4.216  13.575  0.7504  0.7613  1.3151
 6175TIP3    H240017   5.505   4.207  13.424 -2.9392  0.1130  1.5494
 6176TIP3   OH240018   2.466   2.782   0.895  0.2380  0.1832 -0.2437
 6176TIP3    H140019   2.559   2.766   0.883 -0.2642 -2.3571 -1.5179
 6176TIP3    H240020   2.452   2.775   0.990  1.0626 -1.5044 -0.2129
 6177TIP3   OH240021   6.499   3.846   4.292  0.1476  0.2862 -0.4853
 6177TIP3    H140022   6.417   3.797   4.286  0.2606  0.1983 -1.5701
 6177TIP3    H240023   6.480   3.929   4.248 -0.4507  1.8500  2.4736
 6178TIP3   OH240024   3.727   3.776   2.842  0.8731 -0.4612  0.2029
 6178TIP3    H140025   3.802   3.742   2.793  0.1179 -0.2053 -1.1634
 6178TIP3    H240026   3.655   3.777   2.779  0.0330  0.5110  1.1377
 6179TIP3   OH240027   2.246   6.750   5.209  0.1182  0.0987  0.2155
 6179TIP3    H140028   2.305   6.775   5.280 -0.3183  1.7777  0.0133
 6179TIP3    H240029   2.233   6.830   5.159 -1.7630 -0.3918 -0.1577
 6180TIP3   OH240030   3.888   3.853   1.518  0.1028  0.1815  0.9874
 6180TIP3    H140031   3.924   3.805   1.443 -2.0535 -1.4004  0.8764
 6180TIP3    H240032   3.856   3.935   1.482 -0.3580 -0.3036  0.2653
 6181TIP3   OH240033   2.954   4.214  13.231  0.1182  0.1402 -0.6255
 6181TIP3    H140034   3.028   4.225  13.291  2.1032 -2.3810 -2.3839
 6181TIP3    H240035   2.966   4.283  13.165  1.3456 -0.6503 -1.2581
 6182TIP3   OH240036   2.137   3.038   5.083  0.3365 -0.1046 -0.7324
 6182TIP3    H140037   2.132   3.078   4.997  1.8231 -1.9309 -1.7281
 6182TIP3    H240038   2.230   3.022   5.098  0.1539  0.4529  1.3733
 6183TIP3   OH240039   4.788   6.270   0.063 -0.0103 -0.5735  0.2059
 6183TIP3    H140040   4.787   6.260  -0.033 -1.9583 -0.1337  0.1508
 6183TIP3    H240041   4.812   6.362   0.076 -0.9919 -0.2964  0.0910
 6184TIP3   OH240042   3.938   1.666   6.162 -0.1835 -0.4615  0.5443
 6184TIP3    H140043   4.013   1.702   6.210 -0.0943  0.1105  0.0034
 6184TIP3    H240044   3.862   1.684   6.217 -0.2113  1.0653  0.0560
 6185TIP3   OH240045   0.788   5.581  15.903 -0.0503 -0.1054  0.1229
 6185TIP3    H140046   0.838   5.618  15.975  0.5186 -0.4071 -0.1126
 6185TIP3    H240047   0.703   5.626  15.906  0.3835  0.7142  0.2576
 6186TIP3   OH240048   1.214   1.755  12.108  0.2102  0.1887 -0.5294
 6186TIP3    H140049   1.126   1.717  12.104  0.8624 -1.9173  2.0604
 6186TIP3    H240050   1.272   1.683  12.082  1.2872  0.7157  0.3629
 6187TIP3   OH240051   3.310   0.700   0.624 -0.1605  0.3252 -0.0279
 6187TIP3    H140052   3.326   0.662   0.538 -1.0346 -0.0722 -0.0162
 6187TIP3    H240053   3.356   0.642   0.685 -0.6153 -0.1139 -0.1065
 6188TIP3   OH240054   3.244   2.979   0.496  0.1089 -0.6564 -0.6233
 6188TIP3    H140055   3.237   3.075   0.503 -2.4955 -0.8224 -0.0457
 6188TIP3    H240056   3.219   2.947   0.583 -1.5644 -1.8942 -1.4988
 6189TIP3   OH240057   1.310   3.361  12.160  0.0072  0.2518  0.2500
 6189TIP3    H140058   1.264   3.358  12.076  0.8738 -0.2840 -0.2261
 6189TIP3    H240059   1.333   3.453  12.171  2.0028  0.0135 -1.3248
 6190TIP3   OH240060   3.770   3.869   0.602  0.2198  0.4339  0.1598
 6190TIP3    H140061   3.795   3.777   0.597 -0.4806  0.2609 -0.2503
 6190TIP3    H240062   3.833   3.908   0.663  0.9719 -0.1638 -0.2153
 6191TIP3   OH240063   2.866   2.161   2.579 -0.2625 -0.5131  0.3440
 6191TIP3    H140064   2.849   2.081   2.627  0.0064 -1.0670 -0.4604
 6191TIP3    H240065   2.939   2.140   2.521 -1.2553 -0.2032 -1.0743
 6192TIP3   OH240066   4.587   3.358  12.619 -0.9888  0.1366 -0.2332
 6192TIP3    H140067   4.560   3.438  12.574  0.4054  0.5569 -0.3570
 6192TIP3    H240068   4.551   3.367  12.707 -1.7794  0.3721 -0.5677
 6193TIP3   OH240069   2.918   2.602   5.522  0.3913  0.3598 -0.2618
 6193TIP3    H140070   2.897   2.654   5.444  0.4347  0.7490 -0.0165
 6193TIP3    H240071   3.007   2.571   5.507 -0.0219 -0.5501 -0.9000
 6194TIP3   OH240072   1.447   2.866  16.387 -0.8073 -0.5161 -0.1251
 6194TIP3    H140073   1.379   2.892  16.326 -1.0409  1.3042  0.8559
 6194TIP3    H240074   1.526   2.857  16.333 -0.8992  1.5135 -0.6774
 6195TIP3   OH240075   3.003   4.480   6.228  0.0543 -0.4040 -0.6038
 6195TIP3    H140076   2.927   4.442   6.271  0.5893  1.2239  2.0135
 6195TIP3    H240077   3.078   4.435   6.268  0.5433  0.2480 -0.7787
 6196TIP3   OH240078   6.164   0.850   1.378 -0.7006  0.4355  0.0970
 6196TIP3    H140079   6.245   0.857   1.427 -0.0268 -0.6976 -0.7948
 6196TIP3    H240080   6.103   0.808   1.439  0.2036 -1.2176 -0.0757
 6197TIP3   OH240081   1.141   5.237   5.093 -0.1160 -0.1783  0.0391
 6197TIP3    H140082   1.172   5.189   5.170  0.7590  0.1230 -0.1074
 6197TIP3    H240083   1.151   5.329   5.116 -3.4994  0.0666  1.0230
 6198TIP3   OH240084   5.319   1.984  16.579  0.1144 -0.2897 -0.2981
 6198TIP3    H140085   5.336   1.898  16.540 -0.2567 -1.5725  2.1009
 6198TIP3    H240086   5.342   1.972  16.672 -1.7304  1.6476  0.4919
 6199TIP3   OH240087   0.663   3.818  16.401  0.6511 -0.4622 -0.1693
 6199TIP3    H140088   0.581   3.824  16.352  0.5336 -0.9327 -0.0341
 6199TIP3    H240089   0.639   3.842  16.491  0.6180 -0.8126 -0.0849
 6200TIP3   OH240090   0.012   2.452  13.944  0.1007 -0.4306  0.5058
 6200TIP3    H140091  -0.012   2.435  14.035 -0.5895 -0.8051  0.2593
 6200TIP3    H240092   0.104   2.426  13.938  0.0200 -0.8393  0.9883
 6201TIP3   OH240093   5.016   0.576   3.074 -0.7102  0.3420 -0.0073
 6201TIP3    H140094   5.001   0.527   3.155 -1.2018  1.0171  0.3163
 6201TIP3    H240095   5.066   0.516   3.019  1.9339  0.7833  1.7467
 6202TIP3   OH240096   5.247   5.840   3.396  0.2890 -0.4956  0.3022
 6202TIP3    H140097   5.290   5.879   3.320 -1.0766  0.7144  0.1138
 6202TIP3    H240098   5.320   5.813   3.452  1.3565  1.7638  0.1421
 6203TIP3   OH240099   2.346   6.519  14.745  0.4159  0.2147  0.2358
 6203TIP3    H140100   2.418   6.569  14.785  0.4893  1.4658 -1.3753
 6203TIP3    H240101   2.267   6.563  14.775  0.4818  1.3948 -1.2185
 6204TIP3   OH240102   2.110   5.287   3.452 -0.7835 -0.3213  0.5260
 6204TIP3    H140103   2.108   5.194   3.432  0.8331 -0.0947 -0.8990
 6204TIP3    H240104   2.133   5.329   3.369  1.0994  1.1055  1.6828
 6205TIP3   OH240105   4.924   4.599  13.705  0.0160  0.1685 -0.1827
 6205TIP3    H140106   4.880   4.526  13.747  0.0440 -0.2711 -0.9073
 6205TIP3    H240107   5.012   4.599  13.742  0.6636 -1.4229 -1.6543
 6206TIP3   OH240108   1.881   4.930   0.218 -0.3335  0.1078  0.2081
 6206TIP3    H140109   1.955   4.960   0.164 -1.3338  0.8001 -0.8216
 6206TIP3    H240110   1.888   4.835   0.218  1.4306  0.1750  1.4200
 6207TIP3   OH240111   6.420   3.612   2.131 -0.4029 -0.1021 -0.1116
 6207TIP3    H140112   6.436   3.659   2.213  1.3913 -0.6335 -0.1088
 6207TIP3    H240113   6.502   3.622   2.082 -0.9529 -0.9676 -1.2506
 6208TIP3   OH240114   1.820   3.959  12.024  0.4300 -0.3204  0.1533
 6208TIP3    H140115   1.744   4.002  12.064  1.1774  2.4881 -1.2404
 6208TIP3    H240116   1.856   3.905  12.095 -0.2739  1.7960  2.2597
 6209TIP3   OH240117   1.984   4.335   5.345  0.4568 -0.5251  0.3587
 6209TIP3    H140118   1.965   4.387   5.423 -2.3587  0.0340 -0.5771
 6209TIP3    H240119   1.963   4.245   5.370  0.7878 -0.5434  0.5860
 6210TIP3   OH240120   1.810   3.937  14.523 -0.5315  0.4049  0.1675
 6210TIP3    H140121   1.880   3.878  14.551 -0.7657  0.2471  0.4243
 6210TIP3    H240122   1.836   3.965  14.435 -2.1698 -2.9968 -1.6048
 6211TIP3   OH240123   4.949   3.149   3.630  0.0465  0.3233  0.4096
 6211TIP3    H140124   4.885   3.213   3.598  2.1994  3.0900  1.2320
 6211TIP3    H240125   4.963   3.173   3.722  2.6430  0.2828  0.1012
 6212TIP3   OH240126   0.820   6.266  10.063 -0.1308 -0.3062  0.0571
 6212TIP3    H140127   0.796   6.252  10.155 -2.7287 -0.5662 -0.5745
 6212TIP3    H240128   0.833   6.178  10.028 -0.6282 -0.2893 -0.1722
 6213TIP3   OH240129   0.198   5.007   3.957  0.1456  0.7891  0.3370
 6213TIP3    H140130   0.293   5.001   3.942  0.0452 -0.2137  0.0451
 6213TIP3    H240131   0.162   5.024   3.870  0.0284  0.8221  0.3924
 6214TIP3   OH240132   3.275   6.678   1.884  1.2601 -0.4170  0.2782
 6214TIP3    H140133   3.261   6.652   1.975 -0.1003  0.3114  0.3080
 6214TIP3    H240134   3.362   6.645   1.862  1.3204 -1.2118  1.6214
 6215TIP3   OH240135   1.995   5.216   5.286 -0.4689  0.9039 -0.2719
 6215TIP3    H140136   2.069   5.245   5.339  0.0524  2.9190 -1.9836
 6215TIP3    H240137   1.983   5.284   5.220 -3.1495  0.0854 -0.7773
 6216TIP3   OH240138   3.364   2.043  16.157 -0.4309 -0.2888  0.2814
 6216TIP3    H140139   3.338   2.127  16.120 -0.9480  0.2335  1.7793
 6216TIP3    H240140   3.415   2.001  16.087 -1.1527  0.7546 -0.9095
 6217TIP3   OH240141   5.621   4.279  14.198 -0.3760  0.1240  0.3834
 6217TIP3    H140142   5.717   4.281  14.202 -0.2562 -2.2728 -0.2149
 6217TIP3    H240143   5.597   4.369  14.176  1.9271  0.1964 -2.5045
 6218TIP3   OH240144   5.415   3.984  17.076 -0.3025  0.3565  0.4524
 6218TIP3    H140145   5.475   4.020  17.011 -0.9479 -0.4703 -0.6339
 6218TIP3    H240146   5.441   3.892  17.085 -0.8045  0.2323  0.6795
 6219TIP3   OH240147   4.800   3.640  13.481 -0.1392  0.0002  0.3263
 6219TIP3    H140148   4.855   3.562  13.474 -0.8724 -0.5693  0.7388
 6219TIP3    H240149   4.717   3.615  13.441 -0.0281  0.9411 -0.5544
 6220TIP3   OH240150   0.718   5.656  11.457 -0.4385 -0.0679  0.1557
 6220TIP3    H140151   0.656   5.642  11.528 -0.0862 -1.9989  0.1349
 6220TIP3    H240152   0.763   5.737  11.480 -3.1199  1.5803 -0.0023
 6221TIP3   OH240153   3.717   0.955   5.885  0.1267  0.3701 -0.2297
 6221TIP3    H140154   3.635   0.962   5.836 -1.3308  1.3285  2.1742
 6221TIP3    H240155   3.778   1.012   5.838 -1.0993  0.9920 -1.1321
 6222TIP3   OH240156   4.984   2.084  16.002  0.3577 -0.3557  0.4352
 6222TIP3    H140157   5.000   1.990  16.009  1.7383 -0.4104 -2.1962
 6222TIP3    H240158   5.057   2.124  16.048  0.5683 -0.5701  0.2900
 6223TIP3   OH240159   6.820   4.053   0.084 -0.4104 -0.4756  0.0639
 6223TIP3    H140160   6.819   4.137   0.130  0.0371 -0.5606  0.2289
 6223TIP3    H240161   6.735   4.049   0.041 -0.8314 -0.3849  0.8658
 6224TIP3   OH240162   4.818   2.938   0.450 -0.1520 -0.2034 -0.1954
 6224TIP3    H140163   4.729   2.968   0.434 -0.7537 -0.1593  2.6497
 6224TIP3    H240164   4.849   2.994   0.522  2.3408  0.0572 -1.3868
 6225TIP3   OH240165   6.517   6.144  10.652 -0.4924 -0.6852  0.5045
 6225TIP3    H140166   6.577   6.081  10.692  0.1143 -0.6284 -0.2913
 6225TIP3    H240167   6.495   6.205  10.722  0.5783 -0.5676  0.7443
 6226TIP3   OH240168   6.349   2.318   5.019 -0.0995 -0.2464  0.1588
 6226TIP3    H140169   6.354   2.263   4.941  0.3391  0.5861 -0.4187
 6226TIP3    H240170   6.276   2.378   5.002 -1.3576 -1.3830  1.2952
 6227TIP3   OH240171   5.916   4.206   3.413 -0.1724  0.5225  0.1863
 6227TIP3    H140172   5.866   4.257   3.349 -0.1806  0.0178 -0.2149
 6227TIP3    H240173   5.951   4.271   3.474 -1.6183  0.8622  0.6895
 6228TIP3   OH240174   3.040   3.815   5.867 -0.4130 -0.1506  0.5631
 6228TIP3    H140175   3.058   3.790   5.776  1.6586 -0.2827  0.9474
 6228TIP3    H240176   3.106   3.767   5.917 -0.7948  0.8105  2.0185
 6229TIP3   OH240177   2.163   0.627  15.144 -0.8149  0.3467  0.6456
 6229TIP3    H140178   2.222   0.644  15.218 -0.6503 -0.4102  0.7023
 6229TIP3    H240179   2.186   0.693  15.079  1.5994 -1.1707 -0.2043
 6230TIP3   OH240180   3.303   2.586  16.818  0.0283 -0.5924 -0.7437
 6230TIP3    H140181   3.345   2.661  16.775 -0.7679  0.3909  0.1531
 6230TIP3    H240182   3.349   2.510  16.783  0.4803  0.2719 -2.1029
 6231TIP3   OH240183   6.003   1.043   1.233 -0.5688  0.7633 -0.7993
 6231TIP3    H140184   6.062   1.062   1.160 -0.3641  0.9570 -0.5838
 6231TIP3    H240185   6.054   0.989   1.293 -0.6489  0.8330 -0.6671
 6232TIP3   OH240186   0.756   3.004  16.125 -0.4702 -0.3564  0.3664
 6232TIP3    H140187   0.734   2.957  16.045 -0.4113 -0.5865  0.4844
 6232TIP3    H240188   0.738   2.942  16.195 -0.3084 -0.2324  0.5180
 6233TIP3   OH240189   0.813   1.993   2.263  0.3051  0.3408 -0.1418
 6233TIP3    H140190   0.750   2.061   2.239  0.2099  0.6538  0.9623
 6233TIP3    H240191   0.898   2.034   2.248  0.2866 -0.1144 -1.7248
 6234TIP3   OH240192   6.202   0.029  17.249 -0.3776 -0.5138  0.1186
 6234TIP3    H140193   6.176   0.013  17.340 -1.9517  0.5721 -0.1197
 6234TIP3    H240194   6.193   0.123  17.237 -0.0376 -0.6203 -1.1306
 6235TIP3   OH240195   1.505   1.301  15.881 -0.7508 -0.6236 -0.4709
 6235TIP3    H140196   1.513   1.397  15.884  1.2773 -0.7770 -0.2125
 6235TIP3    H240197   1.587   1.271  15.843 -1.3507 -2.2967 -0.5306
 6236TIP3   OH240198   2.844   1.102  12.388 -0.1122  0.0040 -0.0531
 6236TIP3    H140199   2.847   1.198  12.390 -1.3184  0.0586  1.4003
 6236TIP3    H240200   2.867   1.075  12.477  1.2286 -1.1369 -0.7014
 6237TIP3   OH240201   4.116   6.010   3.122  0.0393 -0.0622  0.5268
 6237TIP3    H140202   4.139   5.923   3.156  0.2951 -0.0495  0.3855
 6237TIP3    H240203   4.022   6.018   3.140  0.3290  0.3219  2.0835
 6238TIP3   OH240204   5.426   3.374  14.122 -0.1437  0.3103 -0.2876
 6238TIP3    H140205   5.409   3.312  14.192  0.5378  0.7366  0.2696
 6238TIP3    H240206   5.351   3.434  14.124 -0.3536  0.0483 -0.2366
 6239TIP3   OH240207   0.574   3.576   5.100 -0.4739  0.4719 -0.0185
 6239TIP3    H140208   0.524   3.615   5.029 -0.1026  0.9137 -0.0412
 6239TIP3    H240209   0.561   3.482   5.090 -0.9788  0.5641 -0.2575
 6240TIP3   OH240210   2.835   1.825   6.282 -0.2592 -0.0942  0.2260
 6240TIP3    H140211   2.929   1.821   6.271 -0.2826 -3.2976  0.2083
 6240TIP3    H240212   2.822   1.880   6.360  1.3630  2.4682 -1.1746
 6241TIP3   OH240213   4.226   5.679  11.183 -0.0613  0.0803  0.3863
 6241TIP3    H140214   4.248   5.765  11.147  0.4784  0.5495  1.7452
 6241TIP3    H240215   4.250   5.617  11.114 -2.3525  1.0760 -1.4560
 6242TIP3   OH240216   2.426   1.641   2.213  0.0002  0.3343 -0.2816
 6242TIP3    H140217   2.418   1.721   2.162  2.7730  1.0188  0.1659
 6242TIP3    H240218   2.510   1.603   2.186 -0.6994 -1.8318  0.3404
 6243TIP3   OH240219   6.446   0.843  11.728  0.1009  0.0947  0.0679
 6243TIP3    H140220   6.485   0.852  11.641  0.1617  2.6071  0.2770
 6243TIP3    H240221   6.495   0.904  11.782  0.4407 -1.8354  2.0527
 6244TIP3   OH240222   2.879   5.751   3.629 -0.0956  0.3349  0.0129
 6244TIP3    H140223   2.874   5.845   3.610  0.4125  0.0346 -1.7676
 6244TIP3    H240224   2.793   5.717   3.603  0.5749 -0.0656 -1.8342
 6245TIP3   OH240225   0.094   1.255  16.476 -0.2764 -0.0335 -0.0085
 6245TIP3    H140226   0.008   1.267  16.437  0.0805  0.3824 -0.6990
 6245TIP3    H240227   0.084   1.282  16.567 -1.2163 -1.3448  0.3157
 6246TIP3   OH240228   6.469   5.264   0.591  0.1799 -0.1653  0.2454
 6246TIP3    H140229   6.558   5.230   0.588 -0.1292 -0.9496 -0.3670
 6246TIP3    H240230   6.471   5.332   0.658  0.8390 -1.3014  1.4217
 6247TIP3   OH240231   3.084   4.703  11.746  0.3441 -0.0010  0.3886
 6247TIP3    H140232   3.027   4.626  11.747  1.8970 -1.2036  0.9229
 6247TIP3    H240233   3.100   4.719  11.654 -0.7648  0.3055  0.2323
 6248TIP3   OH240234   2.432   1.666   2.469  0.2483  0.1410 -0.1653
 6248TIP3    H140235   2.473   1.579   2.472  1.7675  0.8164 -0.5627
 6248TIP3    H240236   2.410   1.678   2.377  0.5250  0.3835 -0.2010
 6249TIP3   OH240237   3.083   1.141  13.794 -0.0338  0.5137 -0.4784
 6249TIP3    H140238   3.069   1.142  13.889  0.1036 -2.9702 -0.2696
 6249TIP3    H240239   3.172   1.173  13.783  0.1280  0.5048  0.6199
 6250TIP3   OH240240   0.353   6.722  13.968 -0.5625  0.1982 -0.1137
 6250TIP3    H140241   0.292   6.721  13.895 -0.7365  0.5416  0.0292
 6250TIP3    H240242   0.301   6.748  14.044 -0.4525 -0.4552  0.1966
 6251TIP3   OH240243   3.532   0.621   4.732  0.3756  0.0040 -0.0368
 6251TIP3    H140244   3.508   0.704   4.773 -0.6856  0.1563 -0.9293
 6251TIP3    H240245   3.500   0.628   4.642  0.7234 -1.1816 -0.2727
 6252TIP3   OH240246   3.134   1.282   2.510 -0.3475  0.1316 -0.2149
 6252TIP3    H140247   3.206   1.317   2.563  0.1425 -0.3424 -0.5549
 6252TIP3    H240248   3.073   1.245   2.573 -0.1130  0.2113  0.0612
 6253TIP3   OH240249   2.184   2.604  14.165  0.1837 -0.4530  0.8467
 6253TIP3    H140250   2.092   2.600  14.136  0.6100 -1.3616 -0.4724
 6253TIP3    H240251   2.234   2.578  14.088  1.4910 -1.2792  1.9470
 6254TIP3   OH240252   5.706   1.888  11.417  0.0774  0.2346 -0.1653
 6254TIP3    H140253   5.678   1.842  11.497 -1.7687  0.3827 -0.6756
 6254TIP3    H240254   5.766   1.956  11.448  0.1202 -0.2925  0.9799
 6255TIP3   OH240255   4.903   6.660  15.105  0.6897  0.0439 -0.6237
 6255TIP3    H140256   4.845   6.734  15.124  0.3930 -0.7981  2.2986
 6255TIP3    H240257   4.980   6.675  15.160  1.1704 -1.1595 -0.9371
 6256TIP3   OH240258   0.769   5.984   3.603 -0.3569  0.2048  0.3666
 6256TIP3    H140259   0.717   6.001   3.525 -1.0615  1.5325  1.0879
 6256TIP3    H240260   0.821   6.063   3.615 -3.1593  1.8814  3.4037
 6257TIP3   OH240261   1.754   1.473   0.300 -0.3225 -0.1394 -0.1039
 6257TIP3    H140262   1.839   1.501   0.266 -0.5524  0.0796 -0.4997
 6257TIP3    H240263   1.765   1.475   0.395  0.5536 -1.4766 -0.1489
 6258TIP3   OH240264   3.907   5.978  16.469 -0.0382 -0.6999 -0.2208
 6258TIP3    H140265   3.826   5.929  16.482  0.2557 -1.3912 -0.9342
 6258TIP3    H240266   3.975   5.922  16.506  0.3749 -1.1239 -1.5641
 6259TIP3   OH240267   1.509   3.242   2.682 -0.2021  0.3667  0.0453
 6259TIP3    H140268   1.578   3.305   2.703  0.0304  0.4851 -1.0146
 6259TIP3    H240269   1.430   3.277   2.724 -0.4113  2.1898 -1.6957
 6260TIP3   OH240270   5.200   4.638  16.667  0.2823  0.0386  0.3687
 6260TIP3    H140271   5.241   4.653  16.582  1.2369  1.5520  1.0428
 6260TIP3    H240272   5.216   4.719  16.716 -0.8927 -0.5063  1.7329
 6261TIP3   OH240273   0.384   1.220  12.746  0.1672 -0.3866  0.9079
 6261TIP3    H140274   0.388   1.315  12.734  0.8855 -0.5734 -0.5517
 6261TIP3    H240275   0.473   1.194  12.766 -0.1109 -0.7085  1.7395
 6262TIP3   OH240276   1.108   4.338   0.004 -0.2958 -0.1019  0.2970
 6262TIP3    H140277   1.122   4.433   0.005 -1.4883  0.1197  2.3308
 6262TIP3    H240278   1.015   4.328  -0.017 -0.2370 -0.8040  0.3617
 6263TIP3   OH240279   5.649   1.389   5.142 -0.2505 -0.6107  0.9396
 6263TIP3    H140280   5.568   1.338   5.145 -0.2782 -0.7206 -0.7196
 6263TIP3    H240281   5.683   1.386   5.232 -1.6087 -1.3140  1.4594
 6264TIP3   OH240282   2.832   2.460  15.923 -0.0369  0.5233 -0.2263
 6264TIP3    H140283   2.924   2.453  15.897  0.0508  0.5352  0.0849
 6264TIP3    H240284   2.834   2.497  16.011 -0.2923 -0.5551  0.2481
 6265TIP3   OH240285   3.343   5.520  10.437 -0.3339  0.3433  0.5952
 6265TIP3    H140286   3.357   5.594  10.379 -0.4463 -0.8889 -1.0773
 6265TIP3    H240287   3.262   5.479  10.406  0.0633 -0.8400  1.0465
 6266TIP3   OH240288   6.248   5.090   3.466 -0.5174  0.4951 -0.0575
 6266TIP3    H140289   6.302   5.059   3.394 -0.2636 -0.3799  0.4867
 6266TIP3    H240290   6.234   5.183   3.448  0.7548  0.6254 -0.4661
 6267TIP3   OH240291   1.510   1.145   1.953  0.4538 -0.2173  0.3609
 6267TIP3    H140292   1.476   1.063   1.915 -0.1561  0.4823 -0.6659
 6267TIP3    H240293   1.487   1.212   1.888  2.4173  0.5250  0.3848
 6268TIP3   OH240294   4.954   1.216  10.443 -0.0982  0.6659  0.4526
 6268TIP3    H140295   4.899   1.151  10.400  1.3318 -0.7534  0.6406
 6268TIP3    H240296   4.913   1.231  10.528 -0.2260 -0.3333  0.5758
 6269TIP3   OH240297   5.963   3.901  16.680  0.2486 -0.0518  0.6078
 6269TIP3    H140298   5.982   3.822  16.730  0.5303  0.3987  1.2313
 6269TIP3    H240299   5.874   3.887  16.646  0.7279 -1.1219 -0.2782
 6270TIP3   OH240300   2.273   4.396   5.072  0.1189 -0.1216 -0.4559
 6270TIP3    H140301   2.317   4.451   5.007 -1.0637 -0.6378 -1.7610
 6270TIP3    H240302   2.209   4.454   5.113  1.1594  0.3191  0.5996
 6271TIP3   OH240303   5.776   5.863  13.094 -0.1471 -0.1857 -0.1660
 6271TIP3    H140304   5.744   5.774  13.079 -0.3545  0.0609 -1.3112
 6271TIP3    H240305   5.781   5.901  13.007  1.8620  0.2829  0.0977
 6272TIP3   OH240306   0.855   3.882  11.792  0.6019  0.0285 -0.3553
 6272TIP3    H140307   0.780   3.936  11.765  0.5616  0.4125  0.5018
 6272TIP3    H240308   0.883   3.839  11.711 -2.0132 -2.0278 -0.3239
 6273TIP3   OH240309   2.800   1.140   4.366 -0.0391  0.5328 -0.4487
 6273TIP3    H140310   2.767   1.085   4.296  0.5819  1.2130 -1.2968
 6273TIP3    H240311   2.882   1.176   4.332 -0.8806  2.7459 -0.3392
 6274TIP3   OH240312   6.209   0.582   5.468  0.1095 -0.8011 -0.1481
 6274TIP3    H140313   6.191   0.671   5.498 -1.4134 -0.9146 -0.6354
 6274TIP3    H240314   6.304   0.578   5.462  0.2098  0.8024 -0.1417
 6275TIP3   OH240315   3.320   0.010  16.118 -0.8902  0.0482 -0.0610
 6275TIP3    H140316   3.367  -0.036  16.049 -0.5837  0.6657 -0.2737
 6275TIP3    H240317   3.230  -0.024  16.113 -0.1753 -2.3252  1.3896
 6276TIP3   OH240318   2.438   4.545  14.426 -0.0447 -0.0238 -0.6416
 6276TIP3    H140319   2.367   4.576  14.371 -0.9115  2.2216  1.5661
 6276TIP3    H240320   2.398   4.529  14.511  1.5600 -1.6571 -0.1106
 6277TIP3   OH240321   1.547   5.254  11.733 -0.6410 -0.1113  0.3375
 6277TIP3    H140322   1.502   5.319  11.787 -0.4375 -0.3653  0.8193
 6277TIP3    H240323   1.618   5.222  11.788  1.0003  1.2541 -0.8905
 6278TIP3   OH240324   6.364   1.197  13.069  0.0230 -0.0365 -0.0243
 6278TIP3    H140325   6.424   1.130  13.102 -1.1274 -0.6815  0.8373
 6278TIP3    H240326   6.283   1.150  13.052 -1.2064  1.3182  1.7484
 6279TIP3   OH240327   2.780   1.287  11.603  0.3403 -0.3335  0.3047
 6279TIP3    H140328   2.845   1.358  11.604  1.5519 -1.3841 -0.0525
 6279TIP3    H240329   2.717   1.313  11.535  0.0689  0.9624  1.0227
 6280TIP3   OH240330   3.258   5.114   5.602  0.2690 -0.4584 -0.2659
 6280TIP3    H140331   3.202   5.122   5.680  0.1699 -0.2051 -0.3622
 6280TIP3    H240332   3.304   5.198   5.597  1.5532 -1.0888  0.4915
 6281TIP3   OH240333   3.035   4.596  13.296  0.3017  0.3440 -0.9011
 6281TIP3    H140334   3.068   4.617  13.209  0.9398 -0.5662 -0.8979
 6281TIP3    H240335   3.102   4.539  13.333 -0.1442  0.4247  0.0457
 6282TIP3   OH240336   4.803   2.455   0.696  0.2594 -0.1584  0.3373
 6282TIP3    H140337   4.865   2.434   0.766  1.4997  1.7261 -0.1122
 6282TIP3    H240338   4.748   2.524   0.732  0.8440  0.7632 -0.4772
 6283TIP3   OH240339   3.071   1.775   5.133  0.3601  0.1641 -0.4353
 6283TIP3    H140340   3.004   1.805   5.195  0.4345  0.3964 -0.4667
 6283TIP3    H240341   3.124   1.713   5.184 -1.5201 -2.1872 -1.1522
 6284TIP3   OH240342   6.573   6.050   6.249 -0.2314 -0.0743 -0.5265
 6284TIP3    H140343   6.529   6.132   6.226 -2.2163 -0.7345  0.7204
 6284TIP3    H240344   6.584   6.055   6.344  0.7373 -0.7609 -0.5878
 6285TIP3   OH240345   1.549   3.713   1.347 -0.4182  0.3148  0.5972
 6285TIP3    H140346   1.469   3.761   1.368 -2.1791 -1.6228 -1.2164
 6285TIP3    H240347   1.554   3.716   1.252  0.1777 -1.8075  0.5076
 6286TIP3   OH240348   5.937   0.665  16.288  0.2824  0.1289  0.3840
 6286TIP3    H140349   6.030   0.675  16.266  0.2150  1.2396  0.5114
 6286TIP3    H240350   5.897   0.631  16.208  0.5348  1.2531 -0.2474
 6287TIP3   OH240351   6.488   0.547  14.988  0.3826 -0.1322 -0.1446
 6287TIP3    H140352   6.499   0.634  14.949 -1.6716 -0.3377 -1.2952
 6287TIP3    H240353   6.394   0.531  14.985  0.6394 -2.0890  0.7917
 6288TIP3   OH240354   2.952   0.322   5.159  0.1611 -0.4075  0.1469
 6288TIP3    H140355   2.979   0.328   5.251  0.6685  1.7009 -0.0956
 6288TIP3    H240356   3.033   0.303   5.112  0.0544 -0.6223  0.0491
 6289TIP3   OH240357   6.679   3.818  12.428  0.6057  0.3320 -0.2126
 6289TIP3    H140358   6.646   3.854  12.511 -1.3065  0.2134 -0.8698
 6289TIP3    H240359   6.721   3.736  12.453 -0.1730  0.1688  0.6187
 6290TIP3   OH240360   3.531   1.880  17.204  0.4755 -0.2434  0.7963
 6290TIP3    H140361   3.514   1.874  17.110 -0.7970 -3.4863  1.0919
 6290TIP3    H240362   3.508   1.970  17.227  0.0457  0.4052 -1.8464
 6291TIP3   OH240363   2.594   2.181   1.618 -0.3135  0.4275  0.3577
 6291TIP3    H140364   2.599   2.093   1.581 -1.0767  0.4976  0.0689
 6291TIP3    H240365   2.604   2.168   1.713 -0.8264 -0.0198  0.3545
 6292TIP3   OH240366   2.316   0.301  16.186  0.6109 -0.0557 -0.1433
 6292TIP3    H140367   2.366   0.330  16.110  0.9232  0.6828  0.3373
 6292TIP3    H240368   2.232   0.346  16.178  0.2496 -0.7910 -0.6011
 6293TIP3   OH240369   1.418   4.302  15.481  0.1396  0.1635  0.0380
 6293TIP3    H140370   1.501   4.296  15.435  0.1965 -1.4251  0.2806
 6293TIP3    H240371   1.415   4.392  15.514  1.8150  0.2181  0.1265
 6294TIP3   OH240372   3.116   1.812   6.220 -0.4807  0.6804  0.0287
 6294TIP3    H140373   3.152   1.798   6.133 -1.0434 -1.2746  0.0581
 6294TIP3    H240374   3.187   1.787   6.280 -0.7908 -0.0827  0.0949
 6295TIP3   OH240375   0.817   3.149  14.591  0.3807  0.0214 -0.0067
 6295TIP3    H140376   0.890   3.179  14.645  0.0631  0.2369  0.3113
 6295TIP3    H240377   0.824   3.054  14.591  0.4305  0.0249  0.3511
 6296TIP3   OH240378   5.224   4.855  15.447  0.8092  0.0286  0.3164
 6296TIP3    H140379   5.281   4.862  15.524  1.2918 -0.5262  0.0131
 6296TIP3    H240380   5.238   4.938  15.400  2.5088 -0.6749 -0.5180
 6297TIP3   OH240381   2.638   1.069  13.499  0.2139  0.1083  0.2401
 6297TIP3    H140382   2.714   1.087  13.554 -1.1095 -0.8063  2.4956
 6297TIP3    H240383   2.564   1.066  13.560 -1.2435 -1.7115 -1.4757
 6298TIP3   OH240384   0.548   2.849  14.940  0.5024  0.3090  0.5090
 6298TIP3    H140385   0.616   2.913  14.920 -0.4156  1.0525 -0.4035
 6298TIP3    H240386   0.474   2.902  14.972 -0.0955 -0.3322  0.2241
 6299TIP3   OH240387   4.827   1.904  15.759 -0.3948  0.3247  0.3345
 6299TIP3    H140388   4.886   1.979  15.754 -1.5623  1.3280  0.8511
 6299TIP3    H240389   4.795   1.893  15.670  0.5531 -0.2296  0.0515
 6300TIP3   OH240390   5.245   4.875   1.858  0.2118  0.3994 -0.7148
 6300TIP3    H140391   5.334   4.877   1.894  0.2244 -0.8081 -0.6420
 6300TIP3    H240392   5.251   4.926   1.777  1.0821 -0.0317 -0.9398
 6301TIP3   OH240393   1.737   5.968   4.193 -0.5739 -0.2570 -0.7403
 6301TIP3    H140394   1.822   6.011   4.204 -0.6257 -0.1543 -0.7400
 6301TIP3    H240395   1.722   5.922   4.275  0.3034 -1.7396 -1.3692
 6302TIP3   OH240396   3.495   0.631  15.880  0.0662  0.5936 -0.9803
 6302TIP3    H140397   3.559   0.617  15.811 -1.4329 -0.3467 -2.2448
 6302TIP3    H240398   3.465   0.721  15.868 -0.2737  0.3930 -1.6316
 6303TIP3   OH240399   1.258   2.541  13.139 -0.2878  0.5917  0.2991
 6303TIP3    H140400   1.278   2.495  13.057 -1.6215 -0.7564  0.6904
 6303TIP3    H240401   1.264   2.634  13.116  1.3337  0.2582 -0.8033
 6304TIP3   OH240402   2.269   4.127  12.591  0.1432 -0.7849  0.8821
 6304TIP3    H140403   2.317   4.044  12.587  0.1983 -0.7575  0.9656
 6304TIP3    H240404   2.285   4.159  12.680  2.1671  0.5444  0.1292
 6305TIP3   OH240405   2.218   2.877  12.021 -0.9272  0.0599 -0.1100
 6305TIP3    H140406   2.227   2.784  12.044 -0.7100  0.4427  1.4733
 6305TIP3    H240407   2.211   2.922  12.105 -0.7814  1.5209 -0.8434
 6306TIP3   OH240408   4.411   1.021   0.686 -0.2118 -0.0667  0.0121
 6306TIP3    H140409   4.388   1.113   0.677 -1.2876 -0.5250 -3.5182
 6306TIP3    H240410   4.506   1.019   0.682 -0.1717  0.9177  0.4189
 6307TIP3   OH240411   3.605   5.051  11.554 -0.2762  0.0948 -0.0941
 6307TIP3    H140412   3.664   4.978  11.534  0.5832  1.3486 -2.5392
 6307TIP3    H240413   3.569   5.077  11.469 -0.9364  2.1966  0.7529
 6308TIP3   OH240414   6.094   2.927   4.464 -0.2773  0.7608 -0.1676
 6308TIP3    H140415   6.155   2.974   4.407 -0.0227 -0.4474 -0.9081
 6308TIP3    H240416   6.007   2.955   4.433 -0.1418  2.1611  0.6200
 6309TIP3   OH240417   3.162   3.359  12.431  0.0577  0.1718 -0.4874
 6309TIP3    H140418   3.135   3.356  12.339  0.5299 -2.4043 -0.6378
 6309TIP3    H240419   3.258   3.361  12.427  0.1143 -0.9730 -0.1034
 6310TIP3   OH240420   6.119   4.096  15.696  0.3016  0.3193  0.0145
 6310TIP3    H140421   6.054   4.061  15.636 -0.6296  1.7246  0.1566
 6310TIP3    H240422   6.179   4.023  15.712 -1.8677 -1.3895  0.7753
 6311TIP3   OH240423   2.169   1.632  12.326  0.1689 -0.4096  0.0347
 6311TIP3    H140424   2.164   1.609  12.233 -1.6853 -0.2886  0.0872
 6311TIP3    H240425   2.079   1.633  12.356  0.8129 -2.9749  2.4972
 6312TIP3   OH240426   4.752   6.072   4.229  0.3799 -0.3771  0.1779
 6312TIP3    H140427   4.840   6.080   4.193  0.3580 -1.3417 -0.1098
 6312TIP3    H240428   4.765   6.038   4.318  0.3869  1.2066  0.8132
 6313TIP3   OH240429   3.785   6.231  10.684 -0.1342 -0.1409 -0.6136
 6313TIP3    H140430   3.802   6.262  10.595 -0.2136  0.2974 -0.4738
 6313TIP3    H240431   3.755   6.141  10.671 -0.3885  0.0011 -1.0507
 6314TIP3   OH240432   1.708   2.841   0.318 -0.0456  0.1487  0.6522
 6314TIP3    H140433   1.636   2.789   0.354  0.0052  0.0027  0.5441
 6314TIP3    H240434   1.676   2.931   0.321 -0.1875  0.0968  0.7141
 6315TIP3   OH240435   4.797   3.320  10.400 -0.2015 -0.2174 -0.2872
 6315TIP3    H140436   4.800   3.409  10.436 -0.1722 -0.3197 -0.0352
 6315TIP3    H240437   4.855   3.323  10.324  0.6804 -0.3127  0.3699
 6316TIP3   OH240438   5.218   0.213   3.110 -0.0047 -0.4243  0.1731
 6316TIP3    H140439   5.210   0.297   3.063  1.6728  1.0705  2.3453
 6316TIP3    H240440   5.139   0.165   3.086 -1.2070  1.9201 -0.9440
 6317TIP3   OH240441   2.579   6.558   5.483  0.1603 -0.6651  0.0482
 6317TIP3    H140442   2.643   6.506   5.532 -1.1617 -1.0088  1.5356
 6317TIP3    H240443   2.547   6.499   5.415  2.8466  0.1815 -2.1104
 6318TIP3   OH240444   5.022   3.277   4.144  0.7106 -0.1772  0.5226
 6318TIP3    H140445   5.051   3.366   4.127  1.3977 -0.6307 -0.9042
 6318TIP3    H240446   5.041   3.262   4.237  0.5982  1.1379  0.7686
 6319TIP3   OH240447   5.113   2.579   0.020 -0.1847  0.3919 -0.0926
 6319TIP3    H140448   5.106   2.545   0.109  0.8595  0.5173  0.0494
 6319TIP3    H240449   5.025   2.569  -0.017 -0.4856 -0.1812  0.7618
 6320TIP3   OH240450   5.837   3.212  16.604  0.2984 -0.0453  0.1870
 6320TIP3    H140451   5.758   3.203  16.657 -0.0712 -0.0074 -0.3554
 6320TIP3    H240452   5.902   3.249  16.665  0.4511 -1.7560  1.1437
 6321TIP3   OH240453   4.905   2.237  10.925  0.6128  0.3075 -0.0950
 6321TIP3    H140454   4.999   2.254  10.929  0.6504  1.5749 -3.5757
 6321TIP3    H240455   4.882   2.247  10.833 -3.3432  2.2357  0.8779
 6322TIP3   OH240456   1.116   4.094   0.579  0.4208 -0.2139 -0.0047
 6322TIP3    H140457   1.040   4.115   0.633  0.8082 -1.0691  0.8869
 6322TIP3    H240458   1.140   4.178   0.539  0.8746  0.7188  2.1090
 6323TIP3   OH240459   5.164   4.789   1.595 -0.6250 -0.1702  0.2849
 6323TIP3    H140460   5.140   4.700   1.617  0.2448 -0.0874  1.7156
 6323TIP3    H240461   5.092   4.843   1.629 -1.5887 -0.3540 -1.3725
 6324TIP3   OH240462   5.449   1.882  13.860  0.3204  0.4887  0.4171
 6324TIP3    H140463   5.494   1.850  13.938 -1.3172 -1.4187  0.6530
 6324TIP3    H240464   5.406   1.805  13.824  1.5464  1.1560 -2.8070
 6325TIP3   OH240465   6.801   0.883   5.657 -0.3823  0.2491 -0.9614
 6325TIP3    H140466   6.817   0.794   5.689 -0.6913  0.6023  0.2046
 6325TIP3    H240467   6.886   0.912   5.626 -0.3561 -0.5892 -1.7148
 6326TIP3   OH240468   5.424   0.408  15.626  0.2399  0.3065  0.0735
 6326TIP3    H140469   5.347   0.415  15.682 -0.3968 -0.7247 -0.6553
 6326TIP3    H240470   5.423   0.488  15.573 -2.3436 -1.2158 -2.4100
 6327TIP3   OH240471   2.704   1.783  15.918 -0.4214  0.1588  0.0553
 6327TIP3    H140472   2.744   1.863  15.954 -1.0416  0.6613 -0.3566
 6327TIP3    H240473   2.610   1.796  15.930 -0.5247 -0.5496  0.0544
 6328TIP3   OH240474   0.135   5.772   2.757 -0.0742 -0.0072 -0.6936
 6328TIP3    H140475   0.093   5.850   2.721  1.7304  0.8385 -1.0402
 6328TIP3    H240476   0.074   5.742   2.825 -1.2160  1.1656 -1.1522
 6329TIP3   OH240477   1.271   3.860  12.022  0.0941 -0.0491 -0.6115
 6329TIP3    H140478   1.256   3.935  12.080 -0.0385 -0.7151  0.2266
 6329TIP3    H240479   1.230   3.786  12.067  2.1822 -1.0937 -0.2816
 6330TIP3   OH240480   6.165   0.368  13.294 -0.0093 -0.0301 -0.4597
 6330TIP3    H140481   6.171   0.438  13.230  1.0510 -0.4561 -0.8565
 6330TIP3    H240482   6.255   0.336  13.303 -0.0813  0.2107  1.4684
 6331TIP3   OH240483   6.591   6.753   4.826 -0.0647 -0.9907  0.0599
 6331TIP3    H140484   6.517   6.728   4.770  0.1161 -1.7629  0.1597
 6331TIP3    H240485   6.627   6.670   4.857 -0.6424 -0.5847  1.9461
 6332TIP3   OH240486   2.122   6.606  15.263 -0.2619 -0.0708  0.0408
 6332TIP3    H140487   2.039   6.584  15.221 -0.4707  0.0112  0.4081
 6332TIP3    H240488   2.138   6.533  15.323 -0.1710  0.0167  0.1215
 6333TIP3   OH240489   5.517   1.750   3.159  0.2679  0.5413  0.4560
 6333TIP3    H140490   5.574   1.739   3.083  0.9788  0.0190  1.0412
 6333TIP3    H240491   5.563   1.704   3.230 -1.1043 -0.2885  0.8482
 6334TIP3   OH240492   1.282   4.362  14.868 -0.5885  0.0191 -0.4245
 6334TIP3    H140493   1.294   4.326  14.780 -1.3024  3.7824 -2.2819
 6334TIP3    H240494   1.193   4.397  14.868 -0.2444  1.0518  1.3941
 6335TIP3   OH240495   4.482   5.049  16.694 -0.2932  0.4467 -0.3646
 6335TIP3    H140496   4.542   5.058  16.769 -0.8502  1.0010  0.0288
 6335TIP3    H240497   4.532   5.082  16.619  0.6214 -1.0192 -0.4370
 6336TIP3   OH240498   1.198   0.177   3.940 -0.4076 -0.0895  0.1176
 6336TIP3    H140499   1.109   0.169   3.974  0.0700  0.5243  1.5687
 6336TIP3    H240500   1.251   0.123   3.998  0.4535  1.0762  0.4542
 6337TIP3   OH240501   0.395   4.458  16.265 -0.3293 -0.2321 -0.0389
 6337TIP3    H140502   0.401   4.544  16.307 -1.5153  1.1098 -2.4314
 6337TIP3    H240503   0.317   4.418  16.304 -0.2290  0.0825  0.5057
 6338TIP3   OH240504   6.572   2.686   4.941  0.3689  0.0093 -0.0572
 6338TIP3    H140505   6.566   2.607   4.995  1.2672  0.9008  1.4025
 6338TIP3    H240506   6.665   2.697   4.926  0.2686  0.9813  0.0254
 6339TIP3   OH240507   0.708   2.506  12.739  0.4728  0.2176 -0.2430
 6339TIP3    H140508   0.711   2.487  12.645 -1.8908  1.3985 -0.6466
 6339TIP3    H240509   0.693   2.421  12.780 -2.0069  0.0407 -1.3140
 6340TIP3   OH240510   3.935   3.208   3.009  0.4838 -0.4093 -0.2322
 6340TIP3    H140511   3.873   3.191   3.080  1.2225  0.3530  0.6305
 6340TIP3    H240512   3.960   3.121   2.977 -0.7673 -0.7313 -0.3884
 6341TIP3   OH240513   5.791   2.999   5.041  0.1465  0.0807 -0.8299
 6341TIP3    H140514   5.700   2.985   5.015 -0.1728 -1.5334  0.8881
 6341TIP3    H240515   5.785   3.035   5.130  1.2005  1.1374 -1.1647
 6342TIP3   OH240516   4.215   2.032   5.240 -0.3728  0.1361 -0.0889
 6342TIP3    H140517   4.260   1.988   5.313  0.1202  0.5108 -0.1579
 6342TIP3    H240518   4.223   1.971   5.167 -2.4591 -1.0642  0.6128
 6343TIP3   OH240519   3.835   6.253   3.580  0.3010 -0.1580 -0.0532
 6343TIP3    H140520   3.755   6.282   3.537  0.3468  0.4320  0.2384
 6343TIP3    H240521   3.805   6.196   3.651  0.2508 -1.4778 -1.1121
 6344TIP3   OH240522   0.319   1.268  15.699  0.0553  0.8362  0.2191
 6344TIP3    H140523   0.286   1.351  15.732  1.1911  1.0348  0.9071
 6344TIP3    H240524   0.309   1.274  15.604 -0.1022  1.6512  0.2831
 6345TIP3   OH240525   0.301   1.623   0.668 -0.2213 -0.1384 -0.4401
 6345TIP3    H140526   0.351   1.674   0.604 -3.2867 -0.0825 -3.0646
 6345TIP3    H240527   0.306   1.533   0.636 -2.0860 -0.0575 -1.0929
 6346TIP3   OH240528   4.843   4.009   3.824 -0.0495 -0.2046 -0.3035
 6346TIP3    H140529   4.841   4.026   3.918 -0.9336 -0.4749 -0.2606
 6346TIP3    H240530   4.752   4.023   3.795  0.7600  2.9802 -1.6978
 6347TIP3   OH240531   0.922   0.622   5.885  0.0642 -0.0446  0.0634
 6347TIP3    H140532   0.997   0.622   5.945 -0.1693 -0.4107  0.3622
 6347TIP3    H240533   0.846   0.639   5.941 -0.3868 -2.1728  0.2074
 6348TIP3   OH240534   1.166   2.308   4.048  0.1047 -0.2665 -0.8115
 6348TIP3    H140535   1.244   2.267   4.085 -0.3744 -0.4726 -0.0175
 6348TIP3    H240536   1.093   2.268   4.094 -0.4141  0.9236 -0.5501
 6349TIP3   OH240537   0.436   2.327  11.812  1.1018  0.2012 -0.3097
 6349TIP3    H140538   0.406   2.237  11.803 -0.1912  0.6001 -0.1620
 6349TIP3    H240539   0.404   2.355  11.897  1.2053  0.9047 -0.4942
 6350TIP3   OH240540   1.232   3.054   1.339 -0.3643  0.5125 -0.8288
 6350TIP3    H140541   1.213   3.007   1.257  0.9057 -1.1103 -0.2523
 6350TIP3    H240542   1.243   3.145   1.312 -1.4414  0.2664 -2.2307
 6351TIP3   OH240543   0.391   4.124  15.758 -0.1046  0.3603 -0.2203
 6351TIP3    H140544   0.451   4.174  15.813 -1.4196  0.3744  1.2905
 6351TIP3    H240545   0.421   4.033  15.765  0.1742  0.4645 -0.0798
 6352TIP3   OH240546   3.326   1.446  16.950 -0.2910 -0.2164  0.2459
 6352TIP3    H140547   3.384   1.519  16.926 -0.5270 -0.8382 -2.6145
 6352TIP3    H240548   3.238   1.481  16.937 -0.4058 -0.9827 -1.3647
 6353TIP3   OH240549   5.108   2.694  15.401 -0.0124 -0.0865 -0.4746
 6353TIP3    H140550   5.093   2.628  15.469  1.4444 -0.1949 -0.2457
 6353TIP3    H240551   5.052   2.666  15.329  1.4205 -2.2410 -0.8233
 6354TIP3   OH240552   4.506   0.004   4.069 -0.1242  0.8647 -0.5443
 6354TIP3    H140553   4.542  -0.030   3.987  0.5636 -0.7886  0.3843
 6354TIP3    H240554   4.424   0.047   4.044  0.0775  0.4005 -2.0860
 6355TIP3   OH240555   6.128   4.148  11.809 -0.1783  0.0812  0.5681
 6355TIP3    H140556   6.138   4.055  11.785  0.2727  0.3874 -0.4831
 6355TIP3    H240557   6.044   4.151  11.855 -0.9745 -0.6117 -0.7580
 6356TIP3   OH240558   0.802   6.021   2.733  0.0283 -0.3794 -0.4803
 6356TIP3    H140559   0.847   5.937   2.724 -0.2097 -0.6040  0.3828
 6356TIP3    H240560   0.870   6.082   2.762  0.0218 -0.4687 -0.2738
 6357TIP3   OH240561   4.022   5.643  16.342  0.0185 -0.2432  0.1404
 6357TIP3    H140562   3.995   5.713  16.282 -2.3537 -0.5908  0.6969
 6357TIP3    H240563   4.117   5.649  16.345  0.0320  1.3776 -1.7162
 6358TIP3   OH240564   1.876   2.116   4.066  0.1379 -0.0154 -0.0277
 6358TIP3    H140565   1.918   2.198   4.090 -0.1358  0.0950  0.0854
 6358TIP3    H240566   1.875   2.117   3.970 -0.4932  0.4467 -0.0262
 6359TIP3   OH240567   5.604   3.428  15.376 -0.3665  0.0271 -0.2843
 6359TIP3    H140568   5.552   3.477  15.314 -0.6419  1.9726  1.3774
 6359TIP3    H240569   5.685   3.477  15.385  0.9104 -1.7880 -1.1989
 6360TIP3   OH240570   5.151   0.574  13.052 -0.5239  0.0024 -0.5573
 6360TIP3    H140571   5.077   0.623  13.086  0.5185  0.7503  0.7069
 6360TIP3    H240572   5.148   0.490  13.097 -0.1703  0.3207  0.0635
 6361TIP3   OH240573   1.695   2.877   1.948 -0.2196 -0.5329 -0.0056
 6361TIP3    H140574   1.692   2.911   1.858 -1.7099 -0.1536  0.1535
 6361TIP3    H240575   1.787   2.859   1.964  0.1735  0.1593 -1.3358
 6362TIP3   OH240576   3.053   6.763  16.120  0.1582  0.7643 -0.2237
 6362TIP3    H140577   3.003   6.783  16.199  1.0549  1.7671  0.1149
 6362TIP3    H240578   2.987   6.738  16.055 -0.5804 -0.3768  0.9045
 6363TIP3   OH240579   6.089   5.702  11.906 -0.2485 -0.3421  0.0312
 6363TIP3    H140580   6.091   5.797  11.920  0.8644 -0.4408  0.6825
 6363TIP3    H240581   6.077   5.693  11.811 -0.3638  0.4537 -0.0405
 6364TIP3   OH240582   2.320   0.889  16.557 -0.2107  0.1801 -0.9654
 6364TIP3    H140583   2.382   0.957  16.580  0.1301 -0.6460  0.7066
 6364TIP3    H240584   2.317   0.890  16.461  0.9308  1.4964 -1.0090
 6365TIP3   OH240585   1.874   1.652  13.036 -0.0993  0.3015  0.4576
 6365TIP3    H140586   1.817   1.581  13.064  0.6041 -1.0222 -1.2970
 6365TIP3    H240587   1.815   1.718  13.000 -0.7739  0.7757  2.2930
 6366TIP3   OH240588   3.132   5.538  17.175  0.3556 -0.3157 -0.0725
 6366TIP3    H140589   3.209   5.560  17.122 -0.3438 -0.2302 -1.0808
 6366TIP3    H240590   3.132   5.603  17.245  3.3067 -2.5151  2.2233
 6367TIP3   OH240591   6.810   4.317   0.196  0.2151  0.5343 -0.0111
 6367TIP3    H140592   6.820   4.345   0.287 -3.6344  2.7372 -0.0595
 6367TIP3    H240593   6.750   4.380   0.157  1.6081 -0.3558 -4.1570
 6368TIP3   OH240594   2.900   2.337   3.610 -0.5688  0.6731  0.5278
 6368TIP3    H140595   2.871   2.404   3.671 -2.1568  0.9315 -0.4384
 6368TIP3    H240596   2.847   2.353   3.531  0.8298 -0.1453 -0.6129
 6369TIP3   OH240597   1.870   4.901   1.226 -0.0625 -0.3395 -0.6759
 6369TIP3    H140598   1.791   4.950   1.247  0.3699 -0.3337  1.1407
 6369TIP3    H240599   1.850   4.855   1.144 -2.5593 -1.6716  0.5685
 6370TIP3   OH240600   6.408   6.583   0.100  0.0338  0.0933 -0.0702
 6370TIP3    H140601   6.410   6.649   0.031  0.0708  0.8792  0.6701
 6370TIP3    H240602   6.453   6.624   0.173 -0.6015 -0.4716  0.6486
 6371TIP3   OH240603   1.833   0.392  11.829  0.2742  0.5160  0.2265
 6371TIP3    H140604   1.854   0.446  11.753 -0.5155  0.7659  0.1737
 6371TIP3    H240605   1.763   0.440  11.873 -0.1780 -0.2747  0.3821
 6372TIP3   OH240606   4.697   2.426   5.969 -0.2627 -0.3137  0.1328
 6372TIP3    H140607   4.669   2.480   6.044  1.3212  0.7183  0.0144
 6372TIP3    H240608   4.792   2.419   5.978 -0.0366 -0.1855 -1.7769
 6373TIP3   OH240609   5.758   2.086   5.929 -0.7833 -0.0331  0.6955
 6373TIP3    H140610   5.815   2.028   5.980  1.0012  0.9636 -0.0694
 6373TIP3    H240611   5.746   2.040   5.845 -0.0696  0.2973  0.4046
 6374TIP3   OH240612   5.510   6.242  10.746  0.1022  0.1994 -0.4194
 6374TIP3    H140613   5.589   6.238  10.691  0.7208  2.7770  0.1586
 6374TIP3    H240614   5.528   6.181  10.817  0.1093 -1.7440 -2.0061
 6375TIP3   OH240615   2.458   5.015   5.790  0.1676  0.1228 -0.0087
 6375TIP3    H140616   2.437   5.042   5.879 -3.1396 -1.2473 -0.2299
 6375TIP3    H240617   2.474   4.921   5.797  0.6236  0.1309 -0.7975
 6376TIP3   OH240618   0.613   6.252  12.241 -0.0455  0.4673 -0.5417
 6376TIP3    H140619   0.708   6.260  12.246 -0.1344  0.7631  2.2717
 6376TIP3    H240620   0.598   6.177  12.183  1.9553 -0.4411  0.0279
 6377TIP3   OH240621   1.194   4.109   2.393 -0.5918 -0.0940 -0.6314
 6377TIP3    H140622   1.255   4.104   2.467 -0.8034 -0.4272 -0.4758
 6377TIP3    H240623   1.250   4.128   2.317 -0.1961 -1.0924 -0.6034
 6378TIP3   OH240624   0.706   1.178   0.628 -0.3686 -0.7456  0.1385
 6378TIP3    H140625   0.774   1.113   0.617  0.6149  0.0736  1.1098
 6378TIP3    H240626   0.702   1.223   0.544  0.0757 -1.0014 -0.0216
 6379TIP3   OH240627   4.174   5.812  16.148 -0.0045 -0.2228  0.0683
 6379TIP3    H140628   4.265   5.801  16.175  0.9619  1.3097 -2.2756
 6379TIP3    H240629   4.172   5.788  16.056 -1.5064  1.6312 -0.4752
 6380TIP3   OH240630   5.862   6.558   1.528 -0.5262 -0.1282 -0.2832
 6380TIP3    H140631   5.910   6.508   1.594 -2.9588 -0.3706  1.4342
 6380TIP3    H240632   5.930   6.602   1.477  1.6067 -2.9357 -0.0794
 6381TIP3   OH240633   6.311   2.122  16.859 -0.4043  0.1381  0.1625
 6381TIP3    H140634   6.287   2.138  16.950 -1.3026  1.7003 -0.3086
 6381TIP3    H240635   6.314   2.026  16.851  1.2610 -0.0618  2.1927
 6382TIP3   OH240636   5.256   6.598   0.942 -0.0454  0.2726  0.2589
 6382TIP3    H140637   5.248   6.685   0.903 -1.4387 -0.3451 -0.9082
 6382TIP3    H240638   5.326   6.555   0.893 -0.9289 -0.0560 -0.7337
 6383TIP3   OH240639   0.523   3.710   0.994 -0.0593  0.2437  0.0725
 6383TIP3    H140640   0.607   3.750   0.972  0.1034 -0.0245  0.2055
 6383TIP3    H240641   0.514   3.638   0.931 -0.9502  1.2677 -1.0207
 6384TIP3   OH240642   4.522   6.186  11.127 -0.2466 -0.1731 -0.1715
 6384TIP3    H140643   4.458   6.118  11.145  0.6888 -0.4126  2.9095
 6384TIP3    H240644   4.501   6.218  11.040 -0.2238 -4.9585 -2.2195
 6385TIP3   OH240645   3.074   5.926  11.904  0.3717 -0.0680  0.6240
 6385TIP3    H140646   3.115   5.965  11.981  0.3512  1.9132 -0.3122
 6385TIP3    H240647   3.008   5.990  11.877 -0.5572 -1.3428 -0.2675
 6386TIP3   OH240648   0.432   6.246  14.932 -0.2288 -0.1048 -0.2018
 6386TIP3    H140649   0.362   6.194  14.891  1.4171 -0.9089 -2.1357
 6386TIP3    H240650   0.415   6.238  15.026 -2.2032 -1.0118 -0.5683
 6387TIP3   OH240651   4.722   6.539  16.024  0.1682 -0.3122 -0.1340
 6387TIP3    H140652   4.694   6.453  16.054 -2.0146  0.0774 -0.8361
 6387TIP3    H240653   4.815   6.528  16.002  0.1979 -2.1902  0.7375
 6388TIP3   OH240654   5.342   5.929  16.448 -0.2058  0.3004  0.1298
 6388TIP3    H140655   5.390   6.000  16.405  0.8944 -1.6888 -2.1875
 6388TIP3    H240656   5.258   5.924  16.401 -0.0111 -0.3075 -0.1716
 6389TIP3   OH240657   0.690   4.975   1.421 -0.4192  0.1245 -0.2064
 6389TIP3    H140658   0.699   5.058   1.468  2.8685 -0.7960  1.0703
 6389TIP3    H240659   0.756   4.980   1.352 -1.0640 -0.9562 -0.9286
 6390TIP3   OH240660   6.664   6.700  10.437  0.0463 -0.9645 -0.1977
 6390TIP3    H140661   6.603   6.633  10.468  0.5006 -0.8984  0.8955
 6390TIP3    H240662   6.744   6.685  10.489  0.1167  0.4765  0.1345
 6391TIP3   OH240663   2.433   0.134   3.217 -0.4528  0.7987  0.2910
 6391TIP3    H140664   2.501   0.200   3.202  0.4323 -0.1163  0.1152
 6391TIP3    H240665   2.362   0.158   3.158  0.5939  0.5963 -1.1007
 6392TIP3   OH240666   6.231   1.531   2.674 -0.0373  0.3064 -0.3616
 6392TIP3    H140667   6.193   1.443   2.665  0.4336  0.1775 -1.2057
 6392TIP3    H240668   6.155   1.589   2.683 -0.3557 -0.1599 -0.0033
 6393TIP3   OH240669   1.490   0.760  14.190 -0.1103  0.2284 -0.1838
 6393TIP3    H140670   1.407   0.808  14.193  1.4171  3.0423  0.9597
 6393TIP3    H240671   1.552   0.820  14.150  1.7194 -1.2356  0.2714
 6394TIP3   OH240672   0.110   3.551   0.605  0.5656  0.1315 -0.6541
 6394TIP3    H140673   0.089   3.460   0.587  0.3477  0.0706 -0.0966
 6394TIP3    H240674   0.031   3.599   0.580  0.3850  0.0814 -0.1867
 6395TIP3   OH240675   4.358   1.723  17.177  0.0860  0.2516 -0.1144
 6395TIP3    H140676   4.268   1.691  17.170 -0.3364  1.2371  0.4969
 6395TIP3    H240677   4.369   1.745  17.269  0.6493  0.9874 -0.3447
 6396TIP3   OH240678   1.714   0.271  12.610 -0.5574 -0.0162  0.1522
 6396TIP3    H140679   1.794   0.238  12.569  1.4611  1.1276  2.8712
 6396TIP3    H240680   1.688   0.345  12.555  1.3764  0.7480  0.1645
 6397TIP3   OH240681   0.030   1.119  13.893  0.1121  0.2022  0.0589
 6397TIP3    H140682   0.084   1.041  13.906 -0.9327 -0.5391  0.0028
 6397TIP3    H240683   0.060   1.180  13.961  2.3068  0.5561 -1.1080
 6398TIP3   OH240684   2.108   3.868   5.981  0.5212 -0.0082 -0.3523
 6398TIP3    H140685   2.057   3.946   6.003  0.1130  0.3939 -2.5029
 6398TIP3    H240686   2.168   3.898   5.912  2.1946 -0.9962  0.6137
 6399TIP3   OH240687   6.085   4.791  15.947  0.3075 -0.1598 -0.1520
 6399TIP3    H140688   6.058   4.761  15.860  1.0052  0.1140 -0.4716
 6399TIP3    H240689   6.140   4.721  15.980 -0.9744 -0.8420  0.6116
 6400TIP3   OH240690   0.630   0.286  12.674 -0.0192 -0.0977  0.3501
 6400TIP3    H140691   0.665   0.368  12.640 -0.6971 -0.3786 -1.0866
 6400TIP3    H240692   0.572   0.254  12.605 -0.1371 -1.5453  1.0832
 6401TIP3   OH240693   5.099   1.548  11.821  0.1950  0.6571 -0.6821
 6401TIP3    H140694   5.186   1.565  11.786  0.7933 -0.3743  0.2283
 6401TIP3    H240695   5.059   1.489  11.758  0.2708  0.8868 -0.9461
 6402TIP3   OH240696   0.459   4.580   6.483  0.4666  0.2675 -0.4209
 6402TIP3    H140697   0.453   4.485   6.486 -1.6218  0.3476 -0.5930
 6402TIP3    H240698   0.530   4.598   6.422  0.2157 -1.1912 -1.1876
 6403TIP3   OH240699   2.652   4.401   2.631 -0.4265 -0.0942 -0.0396
 6403TIP3    H140700   2.744   4.393   2.657 -0.2816  1.2529 -0.0782
 6403TIP3    H240701   2.603   4.375   2.709 -0.0271 -1.1230 -0.1177
 6404TIP3   OH240702   2.461   6.777   6.247  0.1026 -0.3004  0.7372
 6404TIP3    H140703   2.531   6.830   6.285 -0.3757  1.4769 -0.7159
 6404TIP3    H240704   2.386   6.835   6.243 -0.3402 -0.9344 -1.2873
 6405TIP3   OH240705   2.257   2.254   1.970  0.0557 -0.0539  0.3642
 6405TIP3    H140706   2.231   2.169   2.003  1.1848 -0.8614 -0.7131
 6405TIP3    H240707   2.188   2.278   1.908 -1.3505  0.8321  2.1850
 6406TIP3   OH240708   4.951   1.326   5.459 -0.1386  0.3545 -0.6194
 6406TIP3    H140709   4.861   1.359   5.455  0.0183  1.2207  1.7584
 6406TIP3    H240710   4.994   1.365   5.383 -1.1731  1.8064 -0.4967
 6407TIP3   OH240711   1.058   5.742  11.281 -0.0453  0.0832 -0.2596
 6407TIP3    H140712   1.063   5.821  11.335 -2.5297  0.1232  0.0123
 6407TIP3    H240713   1.012   5.769  11.202  0.1645 -0.8373 -0.7175
 6408TIP3   OH240714   6.195   1.954  14.606  0.1759  0.0334  0.1024
 6408TIP3    H140715   6.132   1.882  14.601 -0.8916  1.0207 -1.6015
 6408TIP3    H240716   6.273   1.922  14.562 -0.4672  0.0432 -1.0928
 6409TIP3   OH240717   4.539   0.166   3.502  0.3311 -0.1267 -0.3087
 6409TIP3    H140718   4.466   0.131   3.554 -0.3059  1.3990 -0.1333
 6409TIP3    H240719   4.508   0.162   3.412  0.0396  0.4700 -0.2390
 6410TIP3   OH240720   1.265   4.938  12.458 -0.1385 -0.2146  0.0257
 6410TIP3    H140721   1.316   4.968  12.533 -0.8414 -0.1447  0.4848
 6410TIP3    H240722   1.243   5.019  12.411 -2.8263  0.2002  1.7682
 6411TIP3   OH240723   3.807   3.916  16.603  0.2714  0.2695  0.0798
 6411TIP3    H140724   3.754   3.862  16.544 -0.7768  0.9377  0.3761
 6411TIP3    H240725   3.835   3.857  16.672  1.5425 -0.5369 -1.0585
 6412TIP3   OH240726   2.186   1.229   3.394 -0.0328  0.0931  0.6187
 6412TIP3    H140727   2.213   1.152   3.345  0.2916 -0.1207  1.1285
 6412TIP3    H240728   2.175   1.297   3.328 -2.4208 -0.9202 -0.1455
 6413TIP3   OH240729   6.779   0.801   1.634  0.5294 -0.1213  0.4177
 6413TIP3    H140730   6.851   0.745   1.662  0.5009 -1.2280 -1.4873
 6413TIP3    H240731   6.749   0.761   1.552 -2.7790 -0.1891  1.5021
 6414TIP3   OH240732   6.582   6.510   3.558  0.3863  0.0653 -0.5324
 6414TIP3    H140733   6.542   6.597   3.555 -0.6526 -0.3481  0.6076
 6414TIP3    H240734   6.667   6.523   3.599 -0.3581  0.3572  0.9718
 6415TIP3   OH240735   4.356   6.797   1.549  0.0266 -0.5105 -0.5697
 6415TIP3    H140736   4.278   6.774   1.599 -0.0873  0.2031 -0.4029
 6415TIP3    H240737   4.349   6.892   1.537  1.6912 -0.1408  0.8872
 6416TIP3   OH240738   0.798   3.076  12.956  0.5212 -0.1245  0.0264
 6416TIP3    H140739   0.846   3.032  12.885 -0.5195 -0.5077 -0.4611
 6416TIP3    H240740   0.831   3.165  12.955  0.2231 -0.0073 -1.2506
 6417TIP3   OH240741   3.607   3.139  12.454 -0.0887 -0.2394  0.4207
 6417TIP3    H140742   3.532   3.080  12.451 -0.5143  0.2725  0.7233
 6417TIP3    H240743   3.683   3.082  12.466 -0.4030 -0.7823 -0.1735
 6418TIP3   OH240744   5.474   4.999   0.113 -0.2026 -0.7093  0.0151
 6418TIP3    H140745   5.480   4.937   0.041  1.0686  1.3663 -1.7747
 6418TIP3    H240746   5.557   4.991   0.160 -0.5983 -1.3126  0.6217
 6419TIP3   OH240747   1.057   2.530   4.306 -0.1141  0.1325  0.1411
 6419TIP3    H140748   1.114   2.536   4.229 -1.1746 -0.5844 -0.7314
 6419TIP3    H240749   1.076   2.444   4.344  0.4256  0.4953  0.7068
 6420TIP3   OH240750   0.809   5.712  16.170  0.1673 -0.0784  0.1067
 6420TIP3    H140751   0.841   5.670  16.250 -0.1636  0.5332  0.5659
 6420TIP3    H240752   0.746   5.777  16.200  1.6783  1.7315 -0.4602
 6421TIP3   OH240753   4.909   3.140  17.112  0.3209 -0.1841 -0.0522
 6421TIP3    H140754   4.865   3.184  17.039  2.2977  1.3269 -0.4225
 6421TIP3    H240755   4.853   3.066  17.132 -0.2538 -0.7535 -3.1854
 6422TIP3   OH240756   0.213   3.267   5.395  0.1762  0.4825 -1.0089
 6422TIP3    H140757   0.156   3.221   5.457 -0.1924 -0.8146 -2.2600
 6422TIP3    H240758   0.273   3.317   5.450 -1.8496  1.5513  0.3807
 6423TIP3   OH240759   1.733   3.669  15.671  0.1673 -0.0838  0.5952
 6423TIP3    H140760   1.693   3.595  15.627  0.1464 -0.6323  1.5117
 6423TIP3    H240761   1.822   3.640  15.692 -0.2686 -0.3837  2.1794
 6424TIP3   OH240762   3.320   2.091  13.981  0.1099  0.4072 -0.1011
 6424TIP3    H140763   3.403   2.043  13.983  1.2857  2.3309 -0.3719
 6424TIP3    H240764   3.333   2.166  14.038 -0.6898  1.8833 -1.7668
 6425TIP3   OH240765   5.089   2.929   5.800  0.5172  0.0088 -0.3819
 6425TIP3    H140766   5.164   2.870   5.801 -0.3635 -1.1278  0.9823
 6425TIP3    H240767   5.096   2.979   5.881  0.4135  0.7353 -0.8048
 6426TIP3   OH240768   6.501   6.505  17.081 -0.6183 -0.1687 -0.0968
 6426TIP3    H140769   6.481   6.429  17.026  0.8725 -0.8564  0.2547
 6426TIP3    H240770   6.434   6.569  17.059 -0.1283 -0.4357 -2.7041
 6427TIP3   OH240771   5.792   6.140   5.412  0.2971  0.5368  0.7857
 6427TIP3    H140772   5.874   6.101   5.442  0.8590  0.2609 -1.0279
 6427TIP3    H240773   5.804   6.234   5.428  0.8697  0.4754  0.7562
 6428TIP3   OH240774   5.665   3.682   1.082  0.2476 -0.1598 -0.4880
 6428TIP3    H140775   5.719   3.758   1.064 -0.2134  0.0949 -0.8282
 6428TIP3    H240776   5.716   3.607   1.051  2.0749 -0.3570  2.6281
 6429TIP3   OH240777   2.663   3.544  14.469 -0.2024  0.0914  0.6131
 6429TIP3    H140778   2.709   3.532  14.386 -0.7758 -1.2606  0.4664
 6429TIP3    H240779   2.728   3.521  14.536 -0.1751 -0.2320  0.4766
 6430TIP3   OH240780   1.225   5.953  15.302 -0.0172 -0.0662 -0.1899
 6430TIP3    H140781   1.227   6.037  15.256  1.9958 -0.0414 -0.1486
 6430TIP3    H240782   1.197   5.976  15.391  0.4903  0.5747 -0.1822
 6431TIP3   OH240783   4.025   5.020   2.487  0.3369  0.2495 -0.2670
 6431TIP3    H140784   3.981   5.039   2.404  1.1895  2.0289 -0.3572
 6431TIP3    H240785   4.010   5.098   2.541 -0.2771 -0.9028  1.3260
 6432TIP3   OH240786   1.575   0.109  13.568 -0.4834  0.4440  0.0485
 6432TIP3    H140787   1.617   0.025  13.586 -0.8195 -0.0759 -1.4097
 6432TIP3    H240788   1.486   0.087  13.542 -0.0376  1.0420 -2.2005
 6433TIP3   OH240789   1.545   3.801   2.166  0.4532 -0.3588  0.2516
 6433TIP3    H140790   1.555   3.706   2.163 -0.1807 -0.4849  1.3538
 6433TIP3    H240791   1.487   3.817   2.241  1.8510  0.9931  1.1251
 6434TIP3   OH240792   4.162   2.917  12.738  1.0241 -0.2405  0.2341
 6434TIP3    H140793   4.086   2.950  12.690  1.0355 -1.8953 -1.0018
 6434TIP3    H240794   4.205   2.996  12.770 -0.1674  0.8285 -0.6540
 6435TIP3   OH240795   1.605   4.560  11.878 -0.0401  0.3694  0.0019
 6435TIP3    H140796   1.551   4.553  11.957  0.1287 -1.0292  0.0169
 6435TIP3    H240797   1.591   4.478  11.832  0.4762  0.8485 -1.0441
 6436TIP3   OH240798   6.433   3.070  13.114 -0.2476 -1.1530  0.5895
 6436TIP3    H140799   6.370   3.129  13.155  1.0172 -0.1634  1.1710
 6436TIP3    H240800   6.432   3.094  13.022  1.3353  0.8986  1.0298
 6437TIP3   OH240801   6.350   4.298  12.208 -0.4431  0.0742  0.3710
 6437TIP3    H140802   6.326   4.209  12.183 -1.0892  0.7171 -1.4815
 6437TIP3    H240803   6.282   4.353  12.170  0.7353  1.4794  0.1818
 6438TIP3   OH240804   4.475   2.740   0.213  0.0370 -0.0593  0.5759
 6438TIP3    H140805   4.569   2.727   0.230  0.1379  0.7483  0.6548
 6438TIP3    H240806   4.457   2.829   0.243 -0.4197  0.3527 -0.8528
 6439TIP3   OH240807   4.339   5.484   2.192  0.1449 -1.0473 -0.1124
 6439TIP3    H140808   4.260   5.486   2.245 -1.1610 -0.5033 -1.9806
 6439TIP3    H240809   4.405   5.442   2.248 -1.3482 -1.2128  1.6043
 6440TIP3   OH240810   5.284   4.807  11.658 -0.5475  0.0409  0.3644
 6440TIP3    H140811   5.207   4.862  11.676 -0.7396  0.3912 -1.3489
 6440TIP3    H240812   5.354   4.870  11.641 -0.6763 -0.1877 -1.2305
 6441TIP3   OH240813   1.070   4.991  16.298  0.2191 -0.1995 -0.4086
 6441TIP3    H140814   1.156   4.973  16.337 -0.1720 -1.0362  0.0961
 6441TIP3    H240815   1.040   4.906  16.266 -1.1089 -0.2527  0.8608
 6442TIP3   OH240816   6.337   4.462  14.176  0.5060  0.4384 -0.2862
 6442TIP3    H140817   6.271   4.422  14.233 -0.8347  0.0120 -2.0446
 6442TIP3    H240818   6.383   4.524  14.233 -0.3602 -0.3730  1.3908
 6443TIP3   OH240819   1.608   1.770  12.889 -0.0303 -0.7423  0.5014
 6443TIP3    H140820   1.571   1.754  12.976  1.5251 -1.7891  1.0145
 6443TIP3    H240821   1.547   1.725  12.830 -0.8608 -0.4077  1.0809
 6444TIP3   OH240822   1.826   3.898  13.646 -0.2815  0.2484  0.8473
 6444TIP3    H140823   1.834   3.966  13.712 -0.6481 -0.6800  1.8807
 6444TIP3    H240824   1.871   3.933  13.569 -0.1298  1.4806  1.4780
 6445TIP3   OH240825   6.233   1.725  10.593 -0.1994  0.0634  0.1239
 6445TIP3    H140826   6.174   1.688  10.527  0.6630 -2.3246  0.5771
 6445TIP3    H240827   6.175   1.752  10.664 -0.9150 -0.2455 -0.3240
 6446TIP3   OH240828   3.709   6.181   4.222  0.2141  0.0603  0.2085
 6446TIP3    H140829   3.774   6.235   4.178 -0.1977  0.6174  0.2839
 6446TIP3    H240830   3.759   6.106   4.256  0.6179 -0.1069 -0.7395
 6447TIP3   OH240831   5.755   5.257   1.398  0.2630 -0.1996 -0.0359
 6447TIP3    H140832   5.804   5.208   1.464 -1.0827 -1.7407 -0.1093
 6447TIP3    H240833   5.693   5.310   1.448  1.3435  1.0707  0.0185
 6448TIP3   OH240834   6.319   4.251   4.084 -0.3881  0.2016 -0.4172
 6448TIP3    H140835   6.318   4.346   4.094  1.0870  0.0661  1.4405
 6448TIP3    H240836   6.343   4.237   3.992 -2.4956  1.5699 -1.2616
 6449TIP3   OH240837   3.927   0.528  11.449 -0.8481  0.1793 -0.9138
 6449TIP3    H140838   3.940   0.433  11.448  1.4888  0.4279 -1.1496
 6449TIP3    H240839   3.940   0.553  11.540  1.1705  0.4826 -1.2206
 6450TIP3   OH240840   3.232   0.064   3.211 -0.6735  0.4262 -0.0309
 6450TIP3    H140841   3.165   0.057   3.278  0.4362  0.4427  1.1064
 6450TIP3    H240842   3.236   0.158   3.190 -2.8308  0.1518 -2.0682
 6451TIP3   OH240843   5.557   6.169   6.134 -0.3121 -0.0381  0.3245
 6451TIP3    H140844   5.583   6.236   6.071 -1.5017 -0.9423 -1.1946
 6451TIP3    H240845   5.537   6.218   6.214 -1.6770  1.5013 -0.8951
 6452TIP3   OH240846   0.280   0.532   4.545 -0.6755  0.6256  0.2400
 6452TIP3    H140847   0.265   0.577   4.462 -1.2017  0.5946  0.3141
 6452TIP3    H240848   0.337   0.591   4.594  2.1066 -0.6251 -1.2353
 6453TIP3   OH240849   3.458   5.229  15.607 -0.8197  0.2282  0.8125
 6453TIP3    H140850   3.518   5.272  15.668 -0.4361 -2.5032  2.5277
 6453TIP3    H240851   3.491   5.139  15.599 -2.1233 -0.1312 -1.7870
 6454TIP3   OH240852   5.206   4.090   2.926  0.4693  0.0263 -0.6548
 6454TIP3    H140853   5.219   3.998   2.949  2.3159  0.0758 -1.3338
 6454TIP3    H240854   5.294   4.126   2.917 -0.1885  1.4079 -2.1732
 6455TIP3   OH240855   4.297   4.748  16.156  0.7667  0.5134  0.1309
 6455TIP3    H140856   4.272   4.762  16.248  0.0583  0.3536 -0.0294
 6455TIP3    H240857   4.281   4.655  16.141  0.1138  0.6993 -0.3719
 6456TIP3   OH240858   3.218   4.801   1.204 -0.5214 -0.0531 -0.1074
 6456TIP3    H140859   3.243   4.752   1.125  3.1650  0.7367  0.4120
 6456TIP3    H240860   3.199   4.734   1.269  0.5963 -0.7672 -0.4968
 6457TIP3   OH240861   4.679   0.996  13.173  0.4015 -0.3076  0.4165
 6457TIP3    H140862   4.751   0.939  13.147  1.0382  1.2423 -1.4269
 6457TIP3    H240863   4.721   1.077  13.200 -0.5531 -0.2787  1.9331
 6458TIP3   OH240864   5.844   0.798   3.704  0.6775 -0.5202  0.8734
 6458TIP3    H140865   5.846   0.894   3.703 -0.4749 -0.4916 -0.1155
 6458TIP3    H240866   5.891   0.772   3.624  1.1147 -0.7982  1.2126
 6459TIP3   OH240867   0.328   4.788  13.464 -0.2063 -0.2343 -0.0297
 6459TIP3    H140868   0.408   4.836  13.444 -0.0137 -0.4302  0.2761
 6459TIP3    H240869   0.355   4.718  13.523 -0.3805 -1.0830 -0.9174
 6460TIP3   OH240870   5.052   5.328   4.937 -0.7713  0.1739  0.4476
 6460TIP3    H140871   4.997   5.361   4.866 -2.5047 -1.4148  0.9523
 6460TIP3    H240872   5.071   5.405   4.991 -0.2124  1.2237 -1.1929
 6461TIP3   OH240873   1.165   1.651  12.689 -0.4049  0.2770  0.0322
 6461TIP3    H140874   1.101   1.672  12.756  0.4363  0.5196  0.7854
 6461TIP3    H240875   1.132   1.572  12.647 -0.2675 -0.6835  1.6671
 6462TIP3   OH240876   4.759   0.757   3.780  0.4462 -0.1973  0.1506
 6462TIP3    H140877   4.728   0.702   3.853  1.6485 -0.1072  0.7468
 6462TIP3    H240878   4.679   0.779   3.732 -0.2185 -1.3482  0.6806
 6463TIP3   OH240879   4.790   1.988   3.263  0.0066 -0.4786 -0.2848
 6463TIP3    H140880   4.698   1.969   3.242  0.5216 -0.7361 -2.5807
 6463TIP3    H240881   4.809   1.931   3.337 -2.2872  1.2368  1.7790
 6464TIP3   OH240882   2.345   1.388   4.223  0.3275 -0.2873  0.4934
 6464TIP3    H140883   2.341   1.419   4.133 -1.3362 -0.1905  0.5699
 6464TIP3    H240884   2.417   1.325   4.224  0.0791 -0.6175 -1.0095
 6465TIP3   OH240885   5.419   3.432  15.871 -0.8311  0.5569  0.1390
 6465TIP3    H140886   5.479   3.406  15.941  1.0017  1.4393 -1.0125
 6465TIP3    H240887   5.470   3.420  15.790 -1.5117  3.1030 -0.7631
 6466TIP3   OH240888   5.237   0.409   5.053 -0.2676  0.0283  0.1045
 6466TIP3    H140889   5.177   0.454   4.993  0.6711 -0.1523 -1.0072
 6466TIP3    H240890   5.256   0.474   5.120 -1.7089  0.0808  0.4829
 6467TIP3   OH240891   2.306   1.151   2.638 -0.1557  0.4377  0.4953
 6467TIP3    H140892   2.226   1.115   2.677 -0.8625  0.3071 -1.0010
 6467TIP3    H240893   2.342   1.207   2.707 -1.0525 -0.1825  1.5222
 6468TIP3   OH240894   5.016   4.706  14.037  0.1844 -0.3397 -0.5738
 6468TIP3    H140895   5.090   4.686  14.094 -0.3097 -0.7635 -0.0769
 6468TIP3    H240896   5.049   4.687  13.949  1.5200  1.9139 -0.6607
 6469TIP3   OH240897   6.819   0.391   2.618  0.0817  0.3392  0.2143
 6469TIP3    H140898   6.869   0.448   2.560 -0.7129  1.4050  0.5288
 6469TIP3    H240899   6.819   0.305   2.575 -0.1785  1.0164 -1.1792
 6470TIP3   OH240900   3.291   4.102   2.694  0.1135 -0.0479 -0.1010
 6470TIP3    H140901   3.290   4.143   2.607 -1.5454  1.4195  0.5547
 6470TIP3    H240902   3.365   4.143   2.739  2.1187 -2.0766 -1.2894
 6471TIP3   OH240903   2.149   3.098   0.397  1.2219  0.3156  0.5144
 6471TIP3    H140904   2.088   3.033   0.431 -0.6966  0.8873 -1.5795
 6471TIP3    H240905   2.094   3.173   0.375  2.6989  0.9461 -1.2882
 6472TIP3   OH240906   4.127   4.106  12.713 -0.1811 -0.0261 -0.0535
 6472TIP3    H140907   4.072   4.147  12.647 -0.7649 -0.5616  0.0955
 6472TIP3    H240908   4.067   4.082  12.784  0.2790 -0.3730  0.2290
 6473TIP3   OH240909   4.042   3.495  16.538  0.4328  0.3540  0.1756
 6473TIP3    H140910   4.009   3.558  16.602 -1.0980 -0.5169  0.3056
 6473TIP3    H240911   3.982   3.504  16.464  2.0110  1.1557 -1.0707
 6474TIP3   OH240912   2.867   6.137   4.432  0.7561 -0.3187 -0.0571
 6474TIP3    H140913   2.815   6.095   4.500  1.1224  0.5873  0.8055
 6474TIP3    H240914   2.957   6.108   4.449  0.9680  0.5492  0.3614
 6475TIP3   OH240915   3.503   3.054   4.624  0.4474 -0.4539 -0.6090
 6475TIP3    H140916   3.517   2.992   4.695 -0.4412 -1.4139 -1.2629
 6475TIP3    H240917   3.409   3.069   4.622  0.6368  0.8996 -0.4898
 6476TIP3   OH240918   3.441   0.725  14.899 -0.6966  0.1239  0.2215
 6476TIP3    H140919   3.532   0.717  14.929 -0.0497 -1.9748 -1.9907
 6476TIP3    H240920   3.442   0.798  14.838  0.0055 -1.0974 -1.2845
 6477TIP3   OH240921   1.604   3.327   5.981  0.2422  0.5316 -0.0837
 6477TIP3    H140922   1.590   3.414   6.020 -0.2217 -0.3180  1.7510
 6477TIP3    H240923   1.699   3.313   5.988  0.1084  0.1640  1.3428
 6478TIP3   OH240924   2.925   2.415   2.721  0.1102 -0.1615  0.4206
 6478TIP3    H140925   2.928   2.345   2.656  0.4539 -2.2206  2.5407
 6478TIP3    H240926   3.016   2.426   2.749 -0.0764  0.4175  0.8228
 6479TIP3   OH240927   4.133   6.712   5.241 -0.1108  0.1198 -0.5884
 6479TIP3    H140928   4.130   6.631   5.292  2.0140 -0.0853 -0.7008
 6479TIP3    H240929   4.143   6.682   5.151 -1.4757  0.5196 -0.8955
 6480TIP3   OH240930   1.817   1.874   3.480 -0.2341 -0.9554  0.6472
 6480TIP3    H140931   1.818   1.813   3.406 -1.7541  0.3538 -0.5433
 6480TIP3    H240932   1.725   1.875   3.508 -0.0664  0.1078  1.2026
 6481TIP3   OH240933   0.174   3.732   3.899 -0.2691 -0.1755 -0.2700
 6481TIP3    H140934   0.262   3.744   3.936 -0.5653  1.0502  0.0852
 6481TIP3    H240935   0.183   3.660   3.837  0.8362 -0.5089  0.2613
 6482TIP3   OH240936   1.593   3.318  16.694 -0.0293  0.8554 -0.6080
 6482TIP3    H140937   1.600   3.239  16.642  1.5384  0.4153  0.2075
 6482TIP3    H240938   1.544   3.292  16.772  1.5699  0.3310  0.2556
 6483TIP3   OH240939   2.094   5.202   1.607  0.1985 -0.1526 -0.3028
 6483TIP3    H140940   2.033   5.129   1.619  0.3872 -0.7044 -2.2537
 6483TIP3    H240941   2.180   5.162   1.617  0.3245  0.6717  2.6892
 6484TIP3   OH240942   0.943   5.293  13.779 -0.6661  0.1347 -0.2956
 6484TIP3    H140943   1.021   5.348  13.772  0.0635 -0.1221  3.6694
 6484TIP3    H240944   0.870   5.355  13.780 -0.1710  0.7245  0.0749
 6485TIP3   OH240945   5.513   3.190   0.222 -0.3647  0.1601 -0.2809
 6485TIP3    H140946   5.450   3.123   0.248 -0.2407  0.3325  0.4854
 6485TIP3    H240947   5.594   3.142   0.206  0.1753  0.2723  1.8370
 6486TIP3   OH240948   0.337   4.322  11.217 -0.1458  0.0353 -0.3555
 6486TIP3    H140949   0.310   4.258  11.151  0.7298 -1.1149  0.3696
 6486TIP3    H240950   0.254   4.358  11.250 -0.5935  0.6337 -2.0451
 6487TIP3   OH240951   3.456   2.086  12.645  0.0720 -0.2315 -0.3803
 6487TIP3    H140952   3.453   2.177  12.677 -0.3840 -0.4347  0.1806
 6487TIP3    H240953   3.472   2.034  12.724 -1.7032 -0.8038 -0.3639
 6488TIP3   OH240954   6.335   5.280  11.806 -0.0365  0.0673 -0.2135
 6488TIP3    H140955   6.395   5.346  11.772 -1.7666  1.0758 -1.5413
 6488TIP3    H240956   6.278   5.329  11.866  0.6454 -0.9432  1.3336
 6489TIP3   OH240957   4.937   2.649   2.256  0.3592  0.0294 -0.3069
 6489TIP3    H140958   4.920   2.729   2.305  1.0607  0.3119 -0.5156
 6489TIP3    H240959   4.949   2.679   2.166  1.3550 -0.2172 -0.2657
 6490TIP3   OH240960   5.535   6.756  16.881 -0.1437  0.1498  0.0037
 6490TIP3    H140961   5.576   6.794  16.803 -0.5972  1.6998  0.4773
 6490TIP3    H240962   5.604   6.703  16.921  1.3583  2.3510  0.5403
 6491TIP3   OH240963   2.310   1.182   1.138  0.6387  0.2965 -0.2621
 6491TIP3    H140964   2.392   1.134   1.131  0.3123 -0.8514  2.5002
 6491TIP3    H240965   2.250   1.138   1.077  1.1028 -1.0860  0.2675
 6492TIP3   OH240966   2.095   3.007  16.516  0.3243 -0.0877  0.3792
 6492TIP3    H140967   2.053   3.065  16.580  0.8687  0.9637 -0.2051
 6492TIP3    H240968   2.167   3.058  16.480  0.1408 -0.7262 -0.9568
 6493TIP3   OH240969   2.389   1.308   0.309 -0.1069 -0.1369  0.3080
 6493TIP3    H140970   2.373   1.261   0.227 -1.4312  1.3790 -0.3521
 6493TIP3    H240971   2.308   1.356   0.326  1.1955  2.0229  0.8460
 6494TIP3   OH240972   0.911   4.674   0.570  0.3399  0.0143  0.2745
 6494TIP3    H140973   0.867   4.647   0.650 -0.7161  1.3653  0.1734
 6494TIP3    H240974   0.932   4.766   0.583  0.7515  0.0814 -0.7416
 6495TIP3   OH240975   3.093   2.926  10.827 -0.9115  0.5211  0.4759
 6495TIP3    H140976   3.130   2.840  10.845 -2.1169 -0.0675  0.2005
 6495TIP3    H240977   3.128   2.982  10.897 -0.1156 -0.1755  0.6487
 6496TIP3   OH240978   3.814   3.188   6.160  0.7199  0.2854 -0.9460
 6496TIP3    H140979   3.871   3.234   6.221 -0.4312  1.5572 -0.7876
 6496TIP3    H240980   3.842   3.096   6.165  0.7023  0.3579  1.4567
 6497TIP3   OH240981   2.086   3.330   1.809 -0.3284 -0.1619  0.1363
 6497TIP3    H140982   2.167   3.326   1.760 -1.1150  0.6173 -1.2720
 6497TIP3    H240983   2.023   3.282   1.756 -2.1166  3.6722 -1.5688
 6498TIP3   OH240984   5.844   5.381  15.861 -0.1049 -0.0260  0.7211
 6498TIP3    H140985   5.937   5.391  15.878  0.0789  2.0756 -0.9926
 6498TIP3    H240986   5.824   5.449  15.796 -2.5571 -1.2762  0.0198
 6499TIP3   OH240987   2.281   2.556  13.932  0.7034  0.1507 -0.5938
 6499TIP3    H140988   2.291   2.492  13.861  0.2292 -1.4421  0.6890
 6499TIP3    H240989   2.307   2.639  13.893  1.0836 -0.7576 -2.4392
 6500TIP3   OH240990   3.331   5.789   2.556 -0.3700  0.4917 -0.1458
 6500TIP3    H140991   3.246   5.751   2.533 -0.5761  0.2836  0.9127
 6500TIP3    H240992   3.377   5.797   2.473 -0.9824 -0.4686 -0.5954
 6501TIP3   OH240993   0.645   1.989   1.653  0.1485  0.0707  0.2973
 6501TIP3    H140994   0.731   2.013   1.620  0.3118 -1.7325 -0.6979
 6501TIP3    H240995   0.585   2.011   1.582  0.1052 -0.9346  0.0143
 6502TIP3   OH240996   2.492   2.873   3.475  0.0545  0.2953 -0.4104
 6502TIP3    H140997   2.468   2.962   3.451  0.0093  0.1142 -1.0528
 6502TIP3    H240998   2.564   2.883   3.537  0.4513  0.7629 -0.9452
 6503TIP3   OH240999   3.042   5.770   0.962  0.3829  0.1779  0.6832
 6503TIP3    H141000   2.961   5.786   0.912 -0.2295  1.4851  2.0193
 6503TIP3    H241001   3.044   5.675   0.974 -0.7375  0.0847  0.2616
 6504TIP3   OH241002   2.035   0.378   2.440 -0.3344  0.1934  0.1136
 6504TIP3    H141003   2.084   0.297   2.447  0.9972  0.7447 -1.9162
 6504TIP3    H241004   2.054   0.425   2.521  0.4829 -0.6720  0.4415
 6505TIP3   OH241005   6.288   1.203   0.607 -0.6920  0.2234  0.3330
 6505TIP3    H141006   6.194   1.217   0.610 -0.9944 -1.7017  1.8130
 6505TIP3    H241007   6.321   1.241   0.689 -0.1943  0.7522 -0.1044
 6506TIP3   OH241008   3.328   3.589   1.173  0.2810  0.9404 -0.0911
 6506TIP3    H141009   3.239   3.579   1.140  0.3432  1.5393 -0.4727
 6506TIP3    H241010   3.329   3.675   1.214  0.5606  0.7392  0.3309
 6507TIP3   OH241011   3.597   1.643   1.619  0.2307 -0.2626  0.1306
 6507TIP3    H141012   3.617   1.582   1.690 -1.3079 -0.6575  0.2507
 6507TIP3    H241013   3.671   1.635   1.559  0.8030 -1.0757  0.9224
 6508TIP3   OH241014   4.939   1.451  15.177  0.0164  0.5266  0.0402
 6508TIP3    H141015   4.927   1.406  15.261  0.5573 -2.6548 -1.4368
 6508TIP3    H241016   5.030   1.479  15.177  0.0653  0.3720  0.4138
 6509TIP3   OH241017   0.495   6.595  13.740  0.0558 -0.1921 -0.3426
 6509TIP3    H141018   0.582   6.559  13.758  0.0551 -0.6232 -1.1348
 6509TIP3    H241019   0.478   6.654  13.813  1.4956  0.7530 -0.7329
 6510TIP3   OH241020   2.076   2.798  16.722 -0.1360 -0.3036 -0.2972
 6510TIP3    H141021   2.098   2.725  16.664  0.3859 -0.7172  0.4063
 6510TIP3    H241022   2.152   2.855  16.720  1.1060 -1.7096  2.0997
 6511TIP3   OH241023   1.686   4.576  14.315  0.2144 -0.2655  0.0265
 6511TIP3    H141024   1.746   4.648  14.332 -0.0126  0.8392 -3.1229
 6511TIP3    H241025   1.742   4.503  14.289  0.3040  0.0113 -0.5651
 6512TIP3   OH241026   2.169   2.672  15.666  0.5267  0.3308  0.2071
 6512TIP3    H141027   2.237   2.700  15.606 -0.5525  0.5631 -0.9550
 6512TIP3    H241028   2.087   2.700  15.624 -0.2653  0.4704  1.7681
 6513TIP3   OH241029   0.356   6.196  11.858  0.6680 -0.3298 -0.4328
 6513TIP3    H141030   0.344   6.102  11.846  0.9587 -0.7064  1.7535
 6513TIP3    H241031   0.269   6.234  11.843  1.0757 -0.5036 -4.1208
 6514TIP3   OH241032   1.768   0.637  16.467  0.1176  0.1678  0.2970
 6514TIP3    H141033   1.836   0.699  16.492  0.2322 -0.4823  1.6946
 6514TIP3    H241034   1.812   0.552  16.469 -0.5121 -0.1592  0.3206
 6515TIP3   OH241035   1.426   3.629  11.297  0.3906  0.3522 -0.8654
 6515TIP3    H141036   1.480   3.706  11.287  0.5699  0.4375  0.5908
 6515TIP3    H241037   1.354   3.657  11.353  0.5411 -0.5663 -0.1887
 6516TIP3   OH241038   0.962   0.631  17.217  0.3189 -0.3194 -0.5869
 6516TIP3    H141039   1.028   0.682  17.171  1.3262 -1.2312 -0.2204
 6516TIP3    H241040   0.879   0.660  17.181  1.0525 -1.6110 -3.6957
 6517TIP3   OH241041   2.231   3.046   1.419  0.2155 -0.0375  0.1859
 6517TIP3    H141042   2.327   3.043   1.416  0.1739 -1.0269 -0.8666
 6517TIP3    H241043   2.204   3.031   1.328 -0.9402  0.3701  0.4470
 6518TIP3   OH241044   5.875   6.546  11.558  0.4207  0.1479 -0.5985
 6518TIP3    H141045   5.895   6.622  11.502  0.5194 -1.5492 -3.0453
 6518TIP3    H241046   5.791   6.514  11.525 -0.4761  0.1427  1.5490
 6519TIP3   OH241047   2.891   6.326   6.133 -0.7013 -0.2776 -0.4674
 6519TIP3    H141048   2.824   6.269   6.170 -0.9181  0.0599 -0.3410
 6519TIP3    H241049   2.928   6.275   6.061 -0.9772 -0.5312 -0.4310
 6520TIP3   OH241050   1.102   1.159   2.285  0.0717 -0.0260  0.3492
 6520TIP3    H141051   1.110   1.105   2.363 -1.7369 -2.1221 -0.8255
 6520TIP3    H241052   1.085   1.247   2.318  2.5353 -0.1534  2.3097
 6521TIP3   OH241053   4.725   1.409  11.449  0.1490  0.2705  0.0838
 6521TIP3    H141054   4.718   1.431  11.541 -1.0730  2.3250 -0.4401
 6521TIP3    H241055   4.637   1.420  11.415  0.7430  0.4030 -1.5018
 6522TIP3   OH241056   0.076   4.031  13.671 -0.4894  0.0701 -0.2017
 6522TIP3    H141057   0.145   4.042  13.737 -1.3979 -2.1013  1.2406
 6522TIP3    H241058   0.066   4.117  13.632  1.7649  0.8819  0.8240
 6523TIP3   OH241059   2.322   3.009   3.139  0.5576 -0.3421 -0.9757
 6523TIP3    H141060   2.404   2.994   3.185  0.6343 -0.2304 -1.0741
 6523TIP3    H241061   2.299   3.100   3.161 -1.3969 -1.4110  1.9763
 6524TIP3   OH241062   1.462   2.270   2.130 -0.5861 -0.3373 -0.3059
 6524TIP3    H141063   1.421   2.208   2.069 -0.4679  0.7242 -1.5067
 6524TIP3    H241064   1.544   2.296   2.088  1.1334 -1.9860  1.8079
 6525TIP3   OH241065   4.947   1.114   6.412  0.4308 -0.1606  0.1784
 6525TIP3    H141066   4.853   1.123   6.397  0.1635 -0.8229  1.2979
 6525TIP3    H241067   4.961   1.156   6.498  0.8124 -1.7273  0.9162
 6526TIP3   OH241068   4.931   5.461  12.582 -0.0183 -0.2389  0.1175
 6526TIP3    H141069   4.985   5.424  12.511  0.5578 -0.1338  0.4959
 6526TIP3    H241070   4.912   5.550  12.553 -0.8710 -0.5989 -0.4972
 6527TIP3   OH241071   2.611   2.877   3.224  0.0566  0.2497  0.0175
 6527TIP3    H141072   2.595   2.866   3.318  0.3631  0.7031  0.1226
 6527TIP3    H241073   2.687   2.934   3.218 -0.2644  0.6342 -0.5121
 6528TIP3   OH241074   5.855   2.303  13.081 -0.0444  0.8525  0.6734
 6528TIP3    H141075   5.868   2.383  13.131 -0.4991  0.9609  0.6277
 6528TIP3    H241076   5.853   2.233  13.146  3.3257  0.4623  0.5241
 6529TIP3   OH241077   4.793   5.880  17.171  0.2771  0.2767 -0.5781
 6529TIP3    H141078   4.798   5.788  17.147 -0.5476  0.0979 -0.0937
 6529TIP3    H241079   4.882   5.901  17.201  0.8240  0.0162 -1.9545
 6530TIP3   OH241080   4.648   4.579  16.101  0.7450 -0.6623  0.2020
 6530TIP3    H141081   4.672   4.610  16.014  0.8179  1.0294  0.8020
 6530TIP3    H241082   4.559   4.544  16.090  0.5278  0.0548 -0.4419
 6531TIP3   OH241083   5.242   1.542   2.582 -0.7124 -0.1764 -0.5816
 6531TIP3    H141084   5.166   1.584   2.542  0.2406 -0.1914 -2.5418
 6531TIP3    H241085   5.277   1.486   2.513 -0.8164 -2.7693  1.3339
 6532TIP3   OH241086   3.277   1.042  13.401 -0.1302  0.4265 -0.2435
 6532TIP3    H141087   3.292   1.018  13.493  1.2494  0.5631 -0.4070
 6532TIP3    H241088   3.315   1.130  13.393 -1.9310  1.2192 -0.5060
 6533TIP3   OH241089   6.271   0.771  16.911  0.4077  0.1568  0.0861
 6533TIP3    H141090   6.296   0.782  16.819 -0.6183 -1.6973 -0.4752
 6533TIP3    H241091   6.341   0.718  16.949  0.6607  0.6384  0.3066
 6534TIP3   OH241092   3.339   2.933  13.404 -0.6427 -0.1014 -0.1608
 6534TIP3    H141093   3.401   2.928  13.476 -0.9146  0.8871  0.1540
 6534TIP3    H241094   3.389   2.905  13.327  0.0812  0.3217  0.1520
 6535TIP3   OH241095   2.654   4.351   3.909  0.2661  0.5754 -0.1368
 6535TIP3    H141096   2.577   4.312   3.867 -0.9740  1.4270  1.2266
 6535TIP3    H241097   2.628   4.361   4.001  2.2043  0.4384  0.4838
 6536TIP3   OH241098   2.580   1.531   0.260 -0.1789 -0.0812  0.1361
 6536TIP3    H141099   2.488   1.504   0.251 -0.2980 -1.1661  3.4142
 6536TIP3    H241100   2.582   1.621   0.226 -3.2961  1.2567  2.9037
 6537TIP3   OH241101   5.675   3.858  11.673  0.1911  0.2669 -0.0347
 6537TIP3    H141102   5.600   3.915  11.654 -0.2679 -0.9305 -2.0165
 6537TIP3    H241103   5.643   3.798  11.740 -0.3609  0.2894 -0.2715
 6538TIP3   OH241104   5.893   5.656  17.110 -0.4143  0.0245  0.2103
 6538TIP3    H141105   5.804   5.643  17.144 -0.4116 -1.9075 -0.4037
 6538TIP3    H241106   5.893   5.746  17.078 -1.2527  1.0309  2.7657
 6539TIP3   OH241107   4.734   3.175  11.844 -0.2650 -0.3814  0.4315
 6539TIP3    H141108   4.810   3.224  11.810  0.0341 -0.5160  0.8962
 6539TIP3    H241109   4.763   3.142  11.929 -0.8618 -0.4054  0.6304
 6540TIP3   OH241110   6.737   3.731   3.792 -0.6113  0.5125  0.0765
 6540TIP3    H141111   6.743   3.803   3.730 -1.0586  0.0987 -0.4666
 6540TIP3    H241112   6.820   3.732   3.839 -0.5723  1.3105  0.0058
 6541TIP3   OH241113   3.500   4.927  11.899 -0.1300  0.1567  0.2120
 6541TIP3    H141114   3.481   5.006  11.848 -3.0604 -0.2922  0.4203
 6541TIP3    H241115   3.415   4.885  11.910  1.1596 -2.4185  1.1624
 6542TIP3   OH241116   1.210   6.344  11.758  0.5088 -0.0765 -0.4958
 6542TIP3    H141117   1.281   6.406  11.741  1.6430 -1.1336  0.2192
 6542TIP3    H241118   1.252   6.271  11.805 -0.8347 -1.2530 -1.0413
 6543TIP3   OH241119   0.322   2.583  15.190  0.1887  0.4342 -0.0491
 6543TIP3    H141120   0.367   2.559  15.270  0.8597  0.5681 -0.3784
 6543TIP3    H241121   0.353   2.519  15.125 -1.0694 -0.2697  0.0123
 6544TIP3   OH241122   1.655   4.631  11.523 -0.6013 -0.1620  0.8351
 6544TIP3    H141123   1.707   4.559  11.556 -1.4115 -0.9497  0.4433
 6544TIP3    H241124   1.604   4.593  11.451 -1.6594  0.5890  1.1672
 6545TIP3   OH241125   6.365   3.529   4.753 -0.3525  0.1092  0.3101
 6545TIP3    H141126   6.279   3.567   4.767 -0.1546  1.2621 -1.2772
 6545TIP3    H241127   6.378   3.532   4.658  1.1687 -0.6305  0.4559
 6546TIP3   OH241128   2.936   6.813  12.866  0.0010  0.0036  0.0174
 6546TIP3    H141129   2.988   6.892  12.879 -0.1783  0.0081  0.7895
 6546TIP3    H241130   2.965   6.754  12.936  0.7277 -0.9384 -1.0420
 6547TIP3   OH241131   4.771   2.819  11.279 -0.1799  0.1420  0.3097
 6547TIP3    H141132   4.814   2.904  11.267  0.7017 -0.2844  0.3515
 6547TIP3    H241133   4.678   2.838  11.271 -0.0650  1.3021  1.3883
 6548TIP3   OH241134   3.639   4.240  14.395 -0.6448 -0.8219 -0.8186
 6548TIP3    H141135   3.558   4.251  14.445  0.6051  0.3945  1.1335
 6548TIP3    H241136   3.617   4.268  14.307 -2.1533  0.2980 -0.1409
 6549TIP3   OH241137   4.886   1.646   5.953 -0.3472  0.3943 -0.2820
 6549TIP3    H141138   4.863   1.576   6.013 -0.0595  1.0041  0.5610
 6549TIP3    H241139   4.939   1.706   6.005  0.5967  0.5404 -1.3527
 6550TIP3   OH241140   5.263   3.719   5.620 -0.4280  0.0978  0.5793
 6550TIP3    H141141   5.327   3.777   5.578 -0.2765  0.8175  1.7627
 6550TIP3    H241142   5.179   3.744   5.582 -0.2578  0.5457  0.4925
 6551TIP3   OH241143   4.938   2.491  11.520 -0.3940 -0.0815 -0.0112
 6551TIP3    H141144   4.903   2.439  11.447  1.6662 -0.3965 -0.8340
 6551TIP3    H241145   4.987   2.428  11.573  1.5355  0.8436 -0.6259
 6552TIP3   OH241146   0.872   4.384  16.755 -0.4965 -0.4633  0.1544
 6552TIP3    H141147   0.896   4.417  16.669 -1.0771 -1.7862 -0.5486
 6552TIP3    H241148   0.953   4.385  16.805 -0.0173 -0.2931 -0.6132
 6553TIP3   OH241149   4.477   1.702  15.755 -0.4224  0.6377 -0.3160
 6553TIP3    H141150   4.569   1.677  15.767 -0.7589 -1.3403 -1.4465
 6553TIP3    H241151   4.479   1.771  15.689  0.1943  0.0614 -0.9064
 6554TIP3   OH241152   0.475   5.213   5.011 -0.0498  0.2288  0.4691
 6554TIP3    H141153   0.418   5.166   4.950  0.6439  1.8176 -1.5676
 6554TIP3    H241154   0.541   5.253   4.954  2.5545 -0.7518  2.6245
 6555TIP3   OH241155   1.702   1.104   2.276  0.0264  0.3992  0.0691
 6555TIP3    H141156   1.719   1.048   2.200 -1.5514 -0.3481  0.2178
 6555TIP3    H241157   1.747   1.186   2.256 -0.1072  0.1235 -1.5504
 6556TIP3   OH241158   3.345   2.812  15.651  0.0441 -0.2874 -0.2704
 6556TIP3    H141159   3.290   2.765  15.715 -0.1380  0.4153  0.0995
 6556TIP3    H241160   3.349   2.902  15.684  0.6779 -0.1202 -0.7829
 6557TIP3   OH241161   2.708   4.079   1.574  0.5074  0.1826  0.2754
 6557TIP3    H141162   2.699   4.026   1.652 -0.7546  1.5016  1.0875
 6557TIP3    H241163   2.761   4.154   1.601 -0.6031  1.0586  0.1485
 6558TIP3   OH241164   6.306   2.547   2.608  0.4787 -0.2259  0.3613
 6558TIP3    H141165   6.331   2.516   2.521  0.1375 -2.5567  1.0415
 6558TIP3    H241166   6.373   2.513   2.667 -0.7805 -1.1009  1.3556
 6559TIP3   OH241167   1.907   3.289   5.082 -0.1391 -0.0942 -0.0866
 6559TIP3    H141168   1.962   3.260   5.010 -0.1366 -0.5915  0.1077
 6559TIP3    H241169   1.825   3.316   5.041  0.1226  0.3099 -0.3414
 6560TIP3   OH241170   6.344   2.714  11.912  0.0334 -0.6534  0.3367
 6560TIP3    H141171   6.263   2.707  11.862 -0.2823  0.3494  0.6829
 6560TIP3    H241172   6.384   2.796  11.883  0.1163 -0.3319  1.3189
 6561TIP3   OH241173   5.485   3.358   1.842 -0.1219  0.1562  0.3081
 6561TIP3    H141174   5.459   3.394   1.927 -0.8628 -0.0219  0.1671
 6561TIP3    H241175   5.563   3.306   1.861 -0.9412 -0.8250  1.0882
 6562TIP3   OH241176   6.742   0.316  17.275  0.0325  0.2051  0.3882
 6562TIP3    H141177   6.756   0.380  17.205 -1.4402  0.0140 -0.1304
 6562TIP3    H241178   6.660   0.344  17.317 -1.0543 -1.7189 -0.3315
 6563TIP3   OH241179   2.686   3.538  11.366  0.9359 -0.3643  0.3186
 6563TIP3    H141180   2.779   3.552  11.384  1.6076 -4.8146  1.6536
 6563TIP3    H241181   2.678   3.546  11.271  2.9503 -0.8335  0.0580
 6564TIP3   OH241182   0.714   2.007  12.765  0.1329 -0.9936  0.5873
 6564TIP3    H141183   0.739   1.917  12.745  1.3969 -0.9903  1.9659
 6564TIP3    H241184   0.719   2.053  12.681 -1.1448 -2.3221 -0.2501
 6565TIP3   OH241185   6.304   1.472  13.122 -0.2181 -0.7795 -0.0824
 6565TIP3    H141186   6.315   1.382  13.093 -1.7465 -0.7266 -0.9506
 6565TIP3    H241187   6.231   1.506  13.069 -1.2937  0.2075  1.8929
 6566TIP3   OH241188   2.565   5.659   1.654  0.2643  0.1892  0.5455
 6566TIP3    H141189   2.514   5.703   1.587 -1.1362  0.1950  1.5632
 6566TIP3    H241190   2.522   5.682   1.736  0.8277 -1.2794  1.2953
 6567TIP3   OH241191   4.792   1.665   5.583  0.3298 -0.1871  0.0657
 6567TIP3    H141192   4.863   1.661   5.647  1.0944 -1.4147 -0.8043
 6567TIP3    H241193   4.748   1.580   5.592 -0.2428  0.0669 -0.2907
 6568TIP3   OH241194   3.716   1.427   0.857  0.1729  0.1267 -0.0410
 6568TIP3    H141195   3.695   1.471   0.775  0.7922  3.0371  1.2427
 6568TIP3    H241196   3.631   1.398   0.891 -0.0665 -1.3429 -1.7604
 6569TIP3   OH241197   5.996   3.293   3.684  0.0908 -0.1582  0.2213
 6569TIP3    H141198   6.004   3.287   3.589 -2.9473 -1.0571 -0.0991
 6569TIP3    H241199   5.996   3.202   3.714 -2.4969 -0.1297  0.5810
 6570TIP3   OH241200   5.918   5.351   6.315 -0.1721  0.5437 -0.0524
 6570TIP3    H141201   5.963   5.352   6.400  0.2041  2.9388 -0.2214
 6570TIP3    H241202   5.962   5.281   6.266  0.4714 -0.0152  1.2589
 6571TIP3   OH241203   2.065   2.989  16.252  0.2965 -0.6178  0.0676
 6571TIP3    H141204   1.999   2.947  16.197  0.6844  1.0510 -1.8019
 6571TIP3    H241205   2.026   2.994  16.338 -2.6919  1.5172 -1.2314
 6572TIP3   OH241206   2.685   4.068  16.977  0.0273 -0.2052  0.0561
 6572TIP3    H141207   2.665   4.091  16.886  0.0359  0.9077  0.3110
 6572TIP3    H241208   2.708   3.976  16.975 -2.7759 -0.9726 -0.6323
 6573TIP3   OH241209   3.394   4.829   3.245  0.2446  0.3651  0.1047
 6573TIP3    H141210   3.340   4.780   3.306  2.6973 -0.2147  1.9598
 6573TIP3    H241211   3.439   4.894   3.299 -0.2168  2.3344 -1.7290
 6574TIP3   OH241212   2.788   3.537  15.053 -0.2254  0.4131 -0.2532
 6574TIP3    H141213   2.739   3.469  15.005  2.2926 -1.9809  0.2989
 6574TIP3    H241214   2.720   3.595  15.087 -2.4456 -0.9181 -2.0941
 6575TIP3   OH241215   4.599   1.610  12.580  0.5154  0.3486  0.6788
 6575TIP3    H141216   4.679   1.655  12.607  1.0935  0.5049 -1.1644
 6575TIP3    H241217   4.562   1.667  12.513 -1.1334  0.2350  1.4412
 6576TIP3   OH241218   3.433   1.920  11.770 -0.3415 -0.3883  0.1640
 6576TIP3    H141219   3.508   1.867  11.745  0.1738  0.7598 -0.8405
 6576TIP3    H241220   3.368   1.857  11.801 -0.0898 -1.6928 -1.7723
 6577TIP3   OH241221   5.820   6.069  11.119 -0.0726 -0.1271 -0.1547
 6577TIP3    H141222   5.729   6.039  11.128 -0.5614  1.5307  0.7616
 6577TIP3    H241223   5.814   6.164  11.117  1.7653  0.0837  1.5436
 6578TIP3   OH241224   2.342   5.944   2.921 -0.0754  0.1478 -0.0825
 6578TIP3    H141225   2.328   5.859   2.963 -0.9121 -0.0008 -0.6375
 6578TIP3    H241226   2.256   5.985   2.920  0.3525  1.0773  0.3154
 6579TIP3   OH241227   1.020   1.047  12.744 -0.3736 -0.6081 -0.0982
 6579TIP3    H141228   1.036   1.080  12.655 -0.0984  0.0010  0.1699
 6579TIP3    H241229   0.966   0.969  12.731  1.7921 -2.0634 -0.9724
 6580TIP3   OH241230   5.676   4.817   5.493  0.0416 -0.5091 -0.1322
 6580TIP3    H141231   5.718   4.890   5.540  1.3436 -0.5499 -1.1729
 6580TIP3    H241232   5.643   4.760   5.563  3.4157 -1.4623  0.9001
 6581TIP3   OH241233   1.789   3.983   2.925  0.3919 -0.2255  0.8167
 6581TIP3    H141234   1.875   3.945   2.943  1.1309  1.3422  0.7643
 6581TIP3    H241235   1.765   3.948   2.839  1.1293 -0.4214  0.6813
 6582TIP3   OH241236   1.564   3.879  13.814  0.1643 -0.4519  0.1544
 6582TIP3    H141237   1.501   3.952  13.818  0.8735  0.1227  1.2311
 6582TIP3    H241238   1.648   3.921  13.796  1.0554 -0.6682  3.3265
 6583TIP3   OH241239   0.255   2.108  14.563  0.4311  0.0649  0.1239
 6583TIP3    H141240   0.305   2.184  14.594  0.4730  0.5841 -1.1309
 6583TIP3    H241241   0.244   2.053  14.640  0.1060  1.5060  1.1507
 6584TIP3   OH241242   5.395   0.019  11.236 -0.3875  0.2512  0.1861
 6584TIP3    H141243   5.412   0.053  11.324 -0.7063 -0.6672  0.6146
 6584TIP3    H241244   5.317  -0.035  11.246 -0.8840  0.7569 -0.8288
 6585TIP3   OH241245   6.177   6.490   1.397  0.3368 -0.7907 -0.5158
 6585TIP3    H141246   6.271   6.473   1.404  0.5045 -0.0739 -0.9797
 6585TIP3    H241247   6.164   6.520   1.307  0.0774  1.4998  0.2084
 6586TIP3   OH241248   2.784   6.138   3.067 -0.0306 -0.1922  0.6164
 6586TIP3    H141249   2.708   6.195   3.057 -0.3657 -0.7130  0.2024
 6586TIP3    H241250   2.771   6.094   3.151  0.4677  0.6811  1.1751
 6587TIP3   OH241251   3.805   2.669   5.190 -0.1276 -0.1959 -0.6046
 6587TIP3    H141252   3.865   2.681   5.117 -0.0924 -2.0802 -0.9322
 6587TIP3    H241253   3.739   2.737   5.178 -0.5237 -0.8923 -2.8148
 6588TIP3   OH241254   3.910   4.117  12.509  0.0559 -0.0072 -0.2992
 6588TIP3    H141255   3.831   4.064  12.524  0.4273  0.0354  2.1943
 6588TIP3    H241256   3.879   4.207  12.514  0.1320  0.0052 -0.0157
 6589TIP3   OH241257   3.313   2.315  16.061 -0.2877 -0.2460 -0.0925
 6589TIP3    H141258   3.235   2.286  16.015  0.3384 -1.1872 -0.6084
 6589TIP3    H241259   3.287   2.394  16.107 -2.0583 -1.5694  1.2966
 6590TIP3   OH241260   4.148   2.934   0.695  0.3970 -0.8994 -0.0897
 6590TIP3    H141261   4.135   2.848   0.737 -1.1672 -1.0515 -0.8183
 6590TIP3    H241262   4.119   2.997   0.761 -1.7724 -1.1242 -0.7584
 6591TIP3   OH241263   5.436   4.333   3.723 -0.7454  0.0206  0.1203
 6591TIP3    H141264   5.433   4.301   3.813 -2.1749  1.2814  0.5698
 6591TIP3    H241265   5.440   4.428   3.732  2.1609  0.1246 -1.1603
 6592TIP3   OH241266   4.592   6.700  11.410  0.2081  0.5453 -0.6510
 6592TIP3    H141267   4.500   6.714  11.432 -0.1744 -2.4852  0.1589
 6592TIP3    H241268   4.592   6.685  11.315 -0.4487 -1.0504 -0.4323
 6593TIP3   OH241269   0.117   0.453  12.210  0.1498  0.3117  0.5309
 6593TIP3    H141270   0.150   0.401  12.283  0.9152 -0.3092 -0.2287
 6593TIP3    H241271   0.045   0.403  12.175 -0.2232  0.6141  0.8536
 6594TIP3   OH241272   1.320   0.839   3.622 -0.0171  0.5863 -0.7116
 6594TIP3    H141273   1.360   0.852   3.708  0.4927 -1.1386 -0.6483
 6594TIP3    H241274   1.381   0.782   3.576 -0.5927  0.9766 -2.0000
 6595TIP3   OH241275   4.198   1.509  16.730  0.2261  0.2226 -0.5669
 6595TIP3    H141276   4.120   1.564  16.728 -0.9137 -1.3145  0.0363
 6595TIP3    H241277   4.232   1.517  16.819  0.0113 -0.1145 -0.4541
 6596TIP3   OH241278   2.911   2.125  12.030  0.0617  0.2769 -0.0620
 6596TIP3    H141279   2.969   2.077  11.972  0.2968 -1.5849  1.6075
 6596TIP3    H241280   2.898   2.210  11.987  0.2463 -0.9802 -2.7535
 6597TIP3   OH241281   1.686   3.239   3.140  0.5898 -0.2081 -0.7528
 6597TIP3    H141282   1.720   3.315   3.188  0.1097  0.6553 -1.7351
 6597TIP3    H241283   1.763   3.184   3.125  0.8199 -0.2996  0.6051
 6598TIP3   OH241284   3.242   2.505   0.239 -0.2828  0.0431 -0.3767
 6598TIP3    H141285   3.287   2.487   0.321 -0.4662  0.2045 -0.2407
 6598TIP3    H241286   3.150   2.513   0.263 -0.4533 -0.7528 -0.7242
 6599TIP3   OH241287   5.580   2.794  14.140  0.2031  0.1368 -0.4361
 6599TIP3    H141288   5.510   2.775  14.202  0.4026 -0.1030 -0.2826
 6599TIP3    H241289   5.595   2.711  14.094  2.6519 -0.8226  1.8156
 6600TIP3   OH241290   0.741   6.636  12.159 -0.4900 -0.4844 -0.4659
 6600TIP3    H141291   0.723   6.552  12.118 -0.1931 -0.0748 -1.4817
 6600TIP3    H241292   0.831   6.657  12.134  0.4401 -1.1021  2.0350
 6601TIP3   OH241293   6.739   4.694   1.115 -0.0945  0.7073  0.2238
 6601TIP3    H141294   6.657   4.648   1.132 -0.2413  0.4944 -0.9425
 6601TIP3    H241295   6.746   4.695   1.019  1.8912 -0.3994  0.3025
 6602TIP3   OH241296   5.916   5.878   5.492  0.4913  0.4332  0.4921
 6602TIP3    H141297   5.990   5.920   5.448 -0.4886  0.5352 -1.1462
 6602TIP3    H241298   5.844   5.886   5.429 -1.1852  1.2012  2.3980
 6603TIP3   OH241299   0.771   0.070  13.234  0.5844  0.0323  0.3127
 6603TIP3    H141300   0.740  -0.019  13.220  0.4165  0.4327 -2.1678
 6603TIP3    H241301   0.709   0.108  13.297 -1.2406 -0.6408 -0.9972
 6604TIP3   OH241302   3.071   2.624  13.469  0.5400 -0.0782 -0.1323
 6604TIP3    H141303   3.053   2.700  13.523 -0.9017 -0.3434 -0.1923
 6604TIP3    H241304   3.160   2.636  13.438  0.0284  2.0697 -0.9200
 6605TIP3   OH241305   3.728   1.941   0.111  0.2805 -0.2877  0.4721
 6605TIP3    H141306   3.657   1.923   0.049  1.2177  0.0545 -0.7449
 6605TIP3    H241307   3.795   1.984   0.058  1.7123 -1.2669  1.4370
 6606TIP3   OH241308   1.140   1.001   6.339  0.8367  0.5293  0.0944
 6606TIP3    H141309   1.152   0.943   6.414  0.8898 -0.4550 -0.6514
 6606TIP3    H241310   1.222   1.048   6.331  1.0552  0.1868  0.2887
 6607TIP3   OH241311   6.470   2.823  16.249  0.3149  0.2159 -0.1505
 6607TIP3    H141312   6.454   2.734  16.282 -0.3676  0.6401  0.6996
 6607TIP3    H241313   6.460   2.815  16.154  3.0219 -1.1870 -0.4282
 6608TIP3   OH241314   6.451   6.351   3.730 -0.1704 -0.5244  0.0658
 6608TIP3    H141315   6.456   6.262   3.694 -0.0660 -0.0899 -1.0337
 6608TIP3    H241316   6.522   6.398   3.687 -0.9961  0.4101 -0.3026
 6609TIP3   OH241317   0.279   0.519  15.712  0.1613 -0.2210  0.6044
 6609TIP3    H141318   0.247   0.609  15.714  1.5298  0.2724  1.7284
 6609TIP3    H241319   0.349   0.519  15.647  0.3867 -0.3846  0.8447
 6610TIP3   OH241320   5.367   0.861  11.191  0.5470 -0.2532  0.0312
 6610TIP3    H141321   5.323   0.919  11.129  0.0193 -1.8273 -1.1263
 6610TIP3    H241322   5.453   0.901  11.204  0.3928  0.5099 -1.1446
 6611TIP3   OH241323   4.542   0.189  11.190  0.0824 -0.4826 -0.3443
 6611TIP3    H141324   4.532   0.094  11.187  2.5887 -0.8579  0.7053
 6611TIP3    H241325   4.545   0.217  11.099  2.1762 -1.8269 -0.7385
 6612TIP3   OH241326   4.328   2.727  16.255  0.0902  0.4505 -0.1588
 6612TIP3    H141327   4.354   2.729  16.347 -2.6200  2.0602  0.6692
 6612TIP3    H241328   4.281   2.644  16.245 -0.8089  0.9015  0.2835
 6613TIP3   OH241329   0.378   2.844  14.211  0.1920 -0.1717 -0.4197
 6613TIP3    H141330   0.396   2.814  14.300  0.2601  0.2289 -0.2978
 6613TIP3    H241331   0.443   2.912  14.195  0.4233 -0.5074 -0.9190
 6614TIP3   OH241332   1.598   4.730  15.458  0.2117 -0.0134  0.6794
 6614TIP3    H141333   1.628   4.820  15.468  1.4937  0.0479 -2.5266
 6614TIP3    H241334   1.677   4.677  15.470  0.3192 -0.3481 -1.1232
 6615TIP3   OH241335   5.332   4.944   1.003  0.6333 -0.1617 -0.1178
 6615TIP3    H141336   5.349   4.928   0.910  3.2909 -0.1044  0.2744
 6615TIP3    H241337   5.259   5.006   1.004 -0.1691 -0.9785 -2.0976
 6616TIP3   OH241338   6.177   1.902   5.941  0.0091  0.0889  0.4403
 6616TIP3    H141339   6.230   1.824   5.957 -1.1223 -0.7025  0.4120
 6616TIP3    H241340   6.129   1.882   5.861 -1.3409  0.2406  1.1911
 6617TIP3   OH241341   6.127   0.099   2.296  0.1423  0.1046 -0.3658
 6617TIP3    H141342   6.038   0.121   2.271  0.4941  0.1646 -1.6422
 6617TIP3    H241343   6.123   0.007   2.323 -0.3758  0.2405  0.0429
 6618TIP3   OH241344   3.668   4.041  12.253 -0.5351  0.0926  0.3919
 6618TIP3    H141345   3.652   4.129  12.220  1.4808  0.3250 -0.0685
 6618TIP3    H241346   3.731   4.003  12.192 -1.3498 -1.6901  0.5800
 6619TIP3   OH241347   2.109   0.023   1.509  0.0234 -0.2307 -0.0034
 6619TIP3    H141348   2.039  -0.039   1.528 -1.2046  1.8343  3.3150
 6619TIP3    H241349   2.063   0.103   1.482  0.7139  1.6381  3.6538
 6620TIP3   OH241350   1.754   0.512  11.006  0.5730 -0.0234  0.8924
 6620TIP3    H141351   1.757   0.587  10.947  0.6976  0.1203  1.0800
 6620TIP3    H241352   1.741   0.437  10.949 -0.8311  0.2646  0.7962
 6621TIP3   OH241353   6.251   4.833   3.635 -0.2416 -0.3212 -0.3298
 6621TIP3    H141354   6.221   4.898   3.698  0.3184 -1.6495  1.3903
 6621TIP3    H241355   6.248   4.878   3.550 -1.2189  1.4595  0.5986
 6622TIP3   OH241356   5.223   5.197   2.938 -0.3408 -0.1242  0.3403
 6622TIP3    H141357   5.315   5.182   2.956 -0.5021  0.1431  1.4831
 6622TIP3    H241358   5.180   5.114   2.961 -0.5018  0.0957  0.8633
 6623TIP3   OH241359   1.033   0.331  15.626 -0.5129  0.6369 -0.6306
 6623TIP3    H141360   0.948   0.367  15.651 -0.9589 -1.2091  0.7829
 6623TIP3    H241361   1.025   0.312  15.533 -2.5034 -1.4407 -0.1458
 6624TIP3   OH241362   2.184   4.333  14.080  0.3199 -0.2741  0.0523
 6624TIP3    H141363   2.103   4.383  14.090 -0.3652 -1.4711  0.8060
 6624TIP3    H241364   2.155   4.243  14.065  1.5102 -0.7187  0.2956
 6625TIP3   OH241365   1.602   2.148  11.164  0.5177 -0.0912  0.5776
 6625TIP3    H141366   1.656   2.095  11.106  0.0972  0.4245 -0.3192
 6625TIP3    H241367   1.571   2.220  11.109  0.3557  0.5993  1.5285
 6626TIP3   OH241368   1.360   1.213  12.956  0.3432 -1.0741  0.7258
 6626TIP3    H141369   1.316   1.293  12.927  1.4930  0.4005  2.7936
 6626TIP3    H241370   1.343   1.150  12.886 -1.0297  0.8078 -0.7514
 6627TIP3   OH241371   4.282   1.509  11.766  0.1837  0.8327 -0.1840
 6627TIP3    H141372   4.200   1.461  11.769 -0.0503  1.2447  2.0602
 6627TIP3    H241373   4.301   1.530  11.857  2.1766  1.7946 -0.7495
 6628TIP3   OH241374   5.821   2.574  13.108 -0.0333 -0.2331  0.0746
 6628TIP3    H141375   5.865   2.638  13.164 -1.2928  0.2073  0.6048
 6628TIP3    H241376   5.786   2.625  13.035  1.7343 -0.8275 -1.2660
 6629TIP3   OH241377   3.641   6.457   5.311  0.7530  0.0722  0.2634
 6629TIP3    H141378   3.622   6.513   5.236 -1.0330 -2.2584 -1.1666
 6629TIP3    H241379   3.561   6.406   5.324  2.5257 -2.7993  0.8212
 6630TIP3   OH241380   4.962   5.637   6.715  0.2563 -0.5557  0.3140
 6630TIP3    H141381   4.943   5.561   6.771 -0.6723 -1.0590 -0.6530
 6630TIP3    H241382   4.883   5.648   6.661  0.7245  0.5600 -0.1775
 6631TIP3   OH241383   6.192   2.466  16.720  0.3667  0.1923  0.0571
 6631TIP3    H141384   6.234   2.474  16.635 -1.1877 -0.6411 -0.8386
 6631TIP3    H241385   6.103   2.436  16.700  0.1040 -0.4557  1.9981
 6632TIP3   OH241386   4.974   3.315   5.746 -0.3140  0.3766  0.8676
 6632TIP3    H141387   5.046   3.372   5.718 -0.6014  0.4171  0.1672
 6632TIP3    H241388   4.956   3.341   5.836 -0.0008  0.9428  0.7731
 6633TIP3   OH241389   3.970   2.991   1.074  0.1909 -0.0044 -0.2424
 6633TIP3    H141390   4.023   3.017   1.150 -1.1514  1.0552  0.3817
 6633TIP3    H241391   3.991   3.057   1.008 -0.4583  0.5249  0.0682
 6634TIP3   OH241392   0.194   6.538  14.315  0.1876 -0.0079  0.5688
 6634TIP3    H141393   0.116   6.585  14.342 -1.2419 -1.0007 -1.5736
 6634TIP3    H241394   0.267   6.588  14.353 -1.3793  1.9865  1.1044
 6635TIP3   OH241395   2.117   1.734   1.991 -0.4677  0.2481 -0.0055
 6635TIP3    H141396   2.064   1.699   1.919  0.4879 -0.2670 -0.4800
 6635TIP3    H241397   2.130   1.659   2.050 -1.2003  0.6555  0.6816
 6636TIP3   OH241398   5.406   0.983  11.653  0.0022 -0.0430  0.6718
 6636TIP3    H141399   5.363   1.001  11.569 -0.9315  0.1611  1.1878
 6636TIP3    H241400   5.480   0.927  11.629 -0.9324 -0.9735 -0.1667
 6637TIP3   OH241401   4.531   0.080   0.582  0.4202  0.1297 -0.5931
 6637TIP3    H141402   4.497   0.030   0.508  1.0048 -0.8952 -0.1825
 6637TIP3    H241403   4.544   0.168   0.547 -1.1081  0.1538 -1.1954
 6638TIP3   OH241404   4.970   5.604   0.722 -0.7696 -0.0140  0.1183
 6638TIP3    H141405   5.056   5.631   0.690 -0.6199 -0.1585  0.3914
 6638TIP3    H241406   4.966   5.639   0.812 -0.5759 -0.8814  0.4723
 6639TIP3   OH241407   2.689   1.484  16.780 -0.7603 -0.6190  0.4411
 6639TIP3    H141408   2.624   1.532  16.729  0.2974 -0.5797 -0.9363
 6639TIP3    H241409   2.720   1.415  16.722  3.2277  1.6898 -0.6160
 6640TIP3   OH241410   4.104   6.279  14.028  1.1138  0.4834 -0.3815
 6640TIP3    H141411   4.090   6.364  14.070  0.7969  1.0302 -1.5557
 6640TIP3    H241412   4.020   6.256  13.990  0.5848 -1.3940  1.6409
 6641TIP3   OH241413   6.489   0.755   0.564  0.4150  0.1836  0.1770
 6641TIP3    H141414   6.430   0.700   0.615 -1.7919  0.0238 -2.3262
 6641TIP3    H241415   6.535   0.694   0.506 -0.6702  0.6967 -1.3026
 6642TIP3   OH241416   0.585   6.724   3.301 -0.1019  0.2558  0.6348
 6642TIP3    H141417   0.664   6.759   3.345 -1.3492  0.5562  2.7757
 6642TIP3    H241418   0.560   6.794   3.241  1.2412  0.1624 -0.0836
 6643TIP3   OH241419   5.148   2.652   0.328  0.4791 -1.0513  0.2047
 6643TIP3    H141420   5.094   2.613   0.397 -0.5272 -1.8414 -0.9888
 6643TIP3    H241421   5.104   2.735   0.308  0.6276 -0.9408  0.3337
 6644TIP3   OH241422   1.579   5.609   3.634  0.4106 -0.2645  0.1513
 6644TIP3    H141423   1.557   5.640   3.546  0.5557 -0.9122 -0.1185
 6644TIP3    H241424   1.674   5.621   3.641  0.4776 -0.6954  0.0209
 6645TIP3   OH241425   5.857   1.826  10.866  0.6344 -0.0342  0.2485
 6645TIP3    H141426   5.844   1.898  10.805  0.4885  0.6939  1.1193
 6645TIP3    H241427   5.768   1.800  10.892  0.7162  0.2363  0.8060
 6646TIP3   OH241428   3.838   0.002   4.898 -0.2067  0.5159 -0.4660
 6646TIP3    H141429   3.743   0.000   4.909 -0.2622  1.1137 -0.8072
 6646TIP3    H241430   3.870   0.041   4.979 -0.1724 -0.6578  0.0919
 6647TIP3   OH241431   2.744   2.927   5.116 -0.0224 -0.2434 -0.3730
 6647TIP3    H141432   2.702   2.989   5.056 -0.9009 -1.4727 -1.0643
 6647TIP3    H241433   2.706   2.948   5.202 -2.4531 -1.5291 -1.0143
 6648TIP3   OH241434   6.790   4.475  11.642  0.0632  0.4110  0.2086
 6648TIP3    H141435   6.840   4.421  11.704 -1.5320 -0.2464  0.9773
 6648TIP3    H241436   6.699   4.464  11.669 -0.8341 -0.7961 -2.9235
 6649TIP3   OH241437   3.609   6.316   3.448  0.0621  0.5316  0.1118
 6649TIP3    H141438   3.596   6.237   3.395 -0.6691 -0.1965  1.3453
 6649TIP3    H241439   3.521   6.353   3.458  0.0929  0.3244  1.3014
 6650TIP3   OH241440   2.770   5.109   3.584 -0.3399 -0.5701 -0.2271
 6650TIP3    H141441   2.798   5.028   3.627  2.7282  0.5913  0.2107
 6650TIP3    H241442   2.776   5.176   3.652  0.2330  0.5418 -1.3354
 6651TIP3   OH241443   5.469   0.290  10.909 -0.1610 -0.1936 -0.1369
 6651TIP3    H141444   5.407   0.343  10.858 -1.6105 -2.1564 -0.5468
 6651TIP3    H241445   5.548   0.289  10.856 -0.7082  0.0977 -0.9938
 6652TIP3   OH241446   5.649   2.749  15.279 -0.2412 -0.5203 -0.4716
 6652TIP3    H141447   5.640   2.692  15.203 -3.2240  0.1063 -0.7377
 6652TIP3    H241448   5.564   2.743  15.323 -0.0789  2.3578  0.4309
 6653TIP3   OH241449   5.693   6.648   4.226  0.0309 -0.1091 -0.0514
 6653TIP3    H141450   5.731   6.710   4.289  1.4598 -0.9075 -0.0646
 6653TIP3    H241451   5.768   6.595   4.198 -0.3917  0.6662 -2.9787
 6654TIP3   OH241452   5.131   6.576  15.645  0.3925 -0.0885 -0.5865
 6654TIP3    H141453   5.052   6.629  15.654  0.3168 -0.2193 -0.4728
 6654TIP3    H241454   5.118   6.526  15.564  0.8630  0.7353 -1.1897
 6655TIP3   OH241455   0.552   0.975   0.862  0.1510 -0.4244 -0.3310
 6655TIP3    H141456   0.543   0.922   0.783 -0.1284 -0.4975 -0.2512
 6655TIP3    H241457   0.646   0.978   0.878  0.0862 -2.4053  0.6971
 6656TIP3   OH241458   2.569   6.140  13.287 -0.1105  0.1903 -0.1496
 6656TIP3    H141459   2.636   6.073  13.302 -1.4324 -1.9675 -2.9476
 6656TIP3    H241460   2.614   6.208  13.238  0.8278  0.5484  1.1505
 6657TIP3   OH241461   3.903   4.277  10.965 -0.2018 -0.4717  0.6076
 6657TIP3    H141462   3.860   4.218  10.903 -0.0561 -0.8250  0.8384
 6657TIP3    H241463   3.965   4.327  10.911  0.2735 -1.1184  0.5382
 6658TIP3   OH241464   3.081   2.587   0.883  0.1744 -0.4248 -0.1058
 6658TIP3    H141465   3.005   2.564   0.830 -0.8708  1.9368  0.2361
 6658TIP3    H241466   3.146   2.619   0.820 -0.4279  0.7565 -0.1612
 6659TIP3   OH241467   2.914   1.779   3.547 -0.1534 -0.1377  0.4657
 6659TIP3    H141468   2.969   1.749   3.474 -0.6534 -0.3658  0.1742
 6659TIP3    H241469   2.932   1.873   3.553  0.4293 -0.2482  0.5194
 6660TIP3   OH241470   5.391   2.740   1.050  0.2853 -0.1035 -0.0577
 6660TIP3    H141471   5.423   2.828   1.032  1.9866 -0.7871 -0.5830
 6660TIP3    H241472   5.340   2.717   0.972 -1.3209  0.8710  0.6464
 6661TIP3   OH241473   1.929   2.528   2.298 -0.1706 -0.1631  0.9951
 6661TIP3    H141474   1.841   2.566   2.307 -0.6434 -1.1771  0.7733
 6661TIP3    H241475   1.937   2.509   2.205  0.9549  1.4424  0.7143
 6662TIP3   OH241476   6.458   5.138  15.768 -0.0561 -0.2394 -0.5891
 6662TIP3    H141477   6.415   5.053  15.774 -2.4676  0.9721  2.0222
 6662TIP3    H241478   6.489   5.155  15.857 -3.5024  3.2541  0.2515
 6663TIP3   OH241479   5.691   0.971  16.959  0.3338 -0.1897 -0.0683
 6663TIP3    H141480   5.649   0.891  16.928 -1.8572  0.8401  0.0529
 6663TIP3    H241481   5.702   1.024  16.880 -2.1065  1.0453  0.3440
 6664TIP3   OH241482   1.363   0.528   4.864  0.3354  0.5464 -0.0457
 6664TIP3    H141483   1.372   0.504   4.956  0.7216 -0.4526 -0.3319
 6664TIP3    H241484   1.338   0.447   4.820 -0.7519  1.2092 -0.7017
 6665TIP3   OH241485   1.073   5.975  11.488 -0.2094 -0.5760  0.2184
 6665TIP3    H141486   1.151   5.999  11.436 -0.2846  0.0827  0.4047
 6665TIP3    H241487   1.094   6.004  11.577  0.0215 -1.9305  0.6257
 6666TIP3   OH241488   4.006   3.727  16.179 -0.2451  0.2531 -0.4842
 6666TIP3    H141489   4.031   3.639  16.208  0.5047  0.9080  0.9971
 6666TIP3    H241490   3.911   3.724  16.171 -0.4053 -0.2565  1.2224
 6667TIP3   OH241491   1.114   2.804   0.625  0.6095 -0.4373 -0.3526
 6667TIP3    H141492   1.109   2.883   0.680  0.5090  0.3402 -1.4389
 6667TIP3    H241493   1.205   2.776   0.632  0.6013 -0.3514  0.2010
 6668TIP3   OH241494   4.647   5.674  13.733  0.2345 -0.4033  0.0226
 6668TIP3    H141495   4.621   5.724  13.810 -0.0596 -1.1965  0.4528
 6668TIP3    H241496   4.736   5.703  13.715  0.4082 -0.3993  0.8244
 6669TIP3   OH241497   4.554   6.009   2.041  0.2943  0.4418  0.1161
 6669TIP3    H141498   4.537   5.938   2.103  1.8238  1.0771  1.3033
 6669TIP3    H241499   4.471   6.058   2.038 -0.0215 -0.0042  1.1121
 6670TIP3   OH241500   3.466   2.468   0.958  0.0899 -1.1788 -0.3777
 6670TIP3    H141501   3.434   2.480   0.869  0.6814 -0.9592 -0.5677
 6670TIP3    H241502   3.387   2.450   1.010 -0.4725  0.3203 -0.6533
 6671TIP3   OH241503   5.567   0.256  12.610  0.1801  0.1543 -0.2652
 6671TIP3    H141504   5.600   0.282  12.524  0.8302  0.9003  0.1953
 6671TIP3    H241505   5.550   0.338  12.655 -1.0571 -0.2287 -0.0063
 6672TIP3   OH241506   2.235   0.772  15.371 -0.1084 -0.1974 -0.1862
 6672TIP3    H141507   2.315   0.820  15.394  1.0526 -0.5864 -3.0551
 6672TIP3    H241508   2.173   0.840  15.345 -1.0658  0.1576  2.6045
 6673TIP3   OH241509   3.931   1.268  15.110  0.3075 -0.3717  0.2807
 6673TIP3    H141510   3.914   1.362  15.098  0.3627 -0.2480  1.1389
 6673TIP3    H241511   3.952   1.237  15.022  1.8976  0.7448  0.2143
 6674TIP3   OH241512   3.951   5.973   2.203  0.2728 -0.2177 -0.3187
 6674TIP3    H141513   3.900   5.897   2.234  1.4030 -0.5061  0.8985
 6674TIP3    H241514   3.935   5.975   2.108 -0.2592 -1.6100 -0.2838
 6675TIP3   OH241515   3.027   2.281   3.847  0.2862  0.2179 -0.2411
 6675TIP3    H141516   3.121   2.261   3.850 -0.4165 -3.9002  1.5131
 6675TIP3    H241517   2.999   2.251   3.761  0.4142  0.4772 -0.3738
 6676TIP3   OH241518   0.918   5.168   2.760  0.1778  0.6436 -0.1977
 6676TIP3    H141519   0.913   5.108   2.834  2.9372  1.5366  0.8466
 6676TIP3    H241520   0.845   5.142   2.703 -0.9947 -1.1837  1.9778
 6677TIP3   OH241521   1.628   3.863   4.408  0.1849 -0.4709 -0.9511
 6677TIP3    H141522   1.652   3.939   4.461  0.7213 -0.5061 -1.1369
 6677TIP3    H241523   1.711   3.821   4.386  0.0824  0.1480 -2.7236
 6678TIP3   OH241524   6.666   1.537  13.078 -0.2174  0.2446  0.1939
 6678TIP3    H141525   6.633   1.457  13.038  0.8228 -0.6444  1.0420
 6678TIP3    H241526   6.604   1.605  13.052 -0.7398 -0.6999 -1.1125
 6679TIP3   OH241527   1.627   4.279   4.310  0.5420 -0.0066  0.2159
 6679TIP3    H141528   1.709   4.320   4.338 -0.2447  0.5567  1.8511
 6679TIP3    H241529   1.589   4.244   4.391 -1.5132  1.0081 -0.2484
 6680TIP3   OH241530   6.297   0.842   3.752 -0.2712  0.5953 -0.5747
 6680TIP3    H141531   6.315   0.911   3.816  0.2018  0.5364 -0.6376
 6680TIP3    H241532   6.296   0.761   3.802  2.7246  0.2067 -0.9505
 6681TIP3   OH241533   6.816   6.273  16.646  0.0308 -0.2407 -0.1789
 6681TIP3    H141534   6.863   6.234  16.720  1.0181  0.0114 -0.6575
 6681TIP3    H241535   6.757   6.203  16.615  0.1029 -0.5685  0.4125
 6682TIP3   OH241536   2.449   1.886   4.080 -0.0015 -0.6755 -0.7013
 6682TIP3    H141537   2.406   1.971   4.089  2.9976  0.7541  2.0095
 6682TIP3    H241538   2.405   1.830   4.144  0.9190  0.2144  0.7364
 6683TIP3   OH241539   6.006   5.245  16.198  0.0748  0.2654 -0.0437
 6683TIP3    H141540   6.086   5.293  16.217  1.3054 -1.2077 -1.2352
 6683TIP3    H241541   6.035   5.168  16.148 -1.9154 -1.1017  0.7732
 6684TIP3   OH241542   4.744   3.646  14.469  0.2851  0.1893  0.6590
 6684TIP3    H141543   4.672   3.616  14.525  0.8210  0.3505  1.4625
 6684TIP3    H241544   4.814   3.582  14.484 -0.3502 -1.1699 -1.6885
 6685TIP3   OH241545   4.852   2.307   2.475 -0.2878  0.1095  0.2922
 6685TIP3    H141546   4.838   2.217   2.503 -0.6248 -0.3255 -1.1926
 6685TIP3    H241547   4.936   2.332   2.514 -1.8336  0.4787  3.8193
 6686TIP3   OH241548   1.095   3.055  10.880  0.1797  0.0399 -0.4197
 6686TIP3    H141549   1.013   3.008  10.896  0.0992  0.2045 -0.3496
 6686TIP3    H241550   1.077   3.111  10.805  0.6526 -0.9688 -1.3106
 6687TIP3   OH241551   5.044   5.621  13.196 -0.0415  0.2573 -0.3561
 6687TIP3    H141552   5.093   5.686  13.248 -0.6340  1.4305 -1.2084
 6687TIP3    H241553   5.059   5.648  13.106 -0.5213 -0.6651 -0.7156
 6688TIP3   OH241554   5.620   1.224  12.433  0.1526 -0.4227 -0.6590
 6688TIP3    H141555   5.608   1.315  12.462  0.6969 -0.8976  1.2289
 6688TIP3    H241556   5.715   1.212  12.432  0.0834 -0.9956 -0.7692
 6689TIP3   OH241557   5.185   0.130   3.629  0.0313 -0.2429  0.3328
 6689TIP3    H141558   5.203   0.134   3.535  1.6918  0.1061  0.6370
 6689TIP3    H241559   5.183   0.222   3.657  2.7575 -0.3625  1.1583
 6690TIP3   OH241560   5.971   2.926  16.678 -0.1220  0.3615  0.0094
 6690TIP3    H141561   5.903   2.993  16.682  1.4171  1.9808  0.3557
 6690TIP3    H241562   6.031   2.957  16.609  1.5707  0.3452  1.3890
 6691TIP3   OH241563   6.546   5.600   5.703 -0.5503  0.2825  0.1083
 6691TIP3    H141564   6.541   5.649   5.620 -0.5524  3.0512  1.6174
 6691TIP3    H241565   6.456   5.602   5.737 -0.1158  1.2882  1.2627
 6692TIP3   OH241566   6.008   1.649   2.312 -0.0461  0.4441  0.0641
 6692TIP3    H141567   5.946   1.606   2.371 -0.6039  0.3569 -0.5754
 6692TIP3    H241568   6.021   1.736   2.350 -0.5093  0.4361  0.2412
 6693TIP3   OH241569   4.061   5.451  12.391  0.0332  0.1954  0.0765
 6693TIP3    H141570   4.096   5.488  12.310  1.4691 -0.1763  0.4972
 6693TIP3    H241571   4.067   5.356  12.379 -0.2491  0.1316  0.4112
 6694TIP3   OH241572   3.847   5.716   5.640 -0.1805  0.2219  0.0611
 6694TIP3    H141573   3.934   5.755   5.642 -0.0633 -0.0538  0.7295
 6694TIP3    H241574   3.821   5.718   5.548  0.5065  0.3590 -0.1324
 6695TIP3   OH241575   1.127   0.563   0.159 -0.4694 -0.6680  0.6107
 6695TIP3    H141576   1.073   0.594   0.086 -0.4655 -2.3132 -0.1344
 6695TIP3    H241577   1.198   0.514   0.117  0.3693 -0.4020  1.6766
 6696TIP3   OH241578   1.624   3.348   0.256  0.5590 -0.1842  0.3855
 6696TIP3    H141579   1.703   3.393   0.225  0.4630 -0.7005 -0.6824
 6696TIP3    H241580   1.553   3.389   0.206  0.4631 -1.4351 -0.5460
 6697TIP3   OH241581   3.858   3.934  14.269 -0.3696 -0.2210 -0.0906
 6697TIP3    H141582   3.845   4.016  14.222 -0.3957  0.2989  0.8005
 6697TIP3    H241583   3.775   3.919  14.315  0.0620 -0.0687  0.7680
 6698TIP3   OH241584   4.572   5.909   0.381 -0.2362  0.0474  0.0427
 6698TIP3    H141585   4.662   5.943   0.387  0.3087 -1.4908  1.3017
 6698TIP3    H241586   4.550   5.918   0.289  1.3663  0.0936 -0.3766
 6699TIP3   OH241587   4.238   5.022   2.671 -0.0675 -0.5965 -0.2295
 6699TIP3    H141588   4.195   5.047   2.589 -0.4712  1.2328  0.5153
 6699TIP3    H241589   4.289   5.099   2.697 -0.3487 -0.9589  1.5088
 6700TIP3   OH241590   2.231   0.344   5.782 -0.3594 -0.0960 -0.0000
 6700TIP3    H141591   2.309   0.317   5.735 -1.0123 -0.0667 -1.1397
 6700TIP3    H241592   2.176   0.266   5.786  0.1911 -0.4296  1.8173
 6701TIP3   OH241593   5.743   5.111  15.696 -0.3632  0.3024  0.5202
 6701TIP3    H141594   5.734   5.206  15.708  0.8475  0.7341 -1.4704
 6701TIP3    H241595   5.711   5.095  15.608  3.1578 -0.4110 -0.8019
 6702TIP3   OH241596   1.000   2.441  12.579  0.3635 -0.5572  0.1747
 6702TIP3    H141597   1.021   2.352  12.552 -0.0450 -0.7746  0.5556
 6702TIP3    H241598   0.989   2.436  12.674  0.8255 -0.0032  0.2642
 6703TIP3   OH241599   0.855   3.613   5.198  0.0136 -0.2345  0.1691
 6703TIP3    H141600   0.819   3.690   5.242  0.1361 -0.1018  0.0378
 6703TIP3    H241601   0.782   3.581   5.144  0.2030  0.2589 -0.3909
 6704TIP3   OH241602   2.106   5.715   4.745 -0.1519 -0.0813  0.4991
 6704TIP3    H141603   2.138   5.804   4.728 -2.2469  0.4314 -1.1470
 6704TIP3    H241604   2.140   5.663   4.673 -0.2608 -0.2611  0.5761
 6705TIP3   OH241605   2.458   0.028   4.954 -0.3260 -0.1882 -0.0110
 6705TIP3    H141606   2.410   0.010   4.873 -0.1019  0.3916 -0.2820
 6705TIP3    H241607   2.391   0.026   5.023 -0.4068 -1.3666 -0.1079
 6706TIP3   OH241608   3.770   1.321  15.853 -0.1176  0.4536 -0.0640
 6706TIP3    H141609   3.739   1.231  15.863  1.7561 -0.2384 -0.1584
 6706TIP3    H241610   3.705   1.362  15.795  0.9803 -1.9854 -3.3560
 6707TIP3   OH241611   0.992   2.730   0.054 -0.2107 -0.0058  0.2305
 6707TIP3    H141612   0.960   2.707   0.142 -2.2134  0.1215 -0.4279
 6707TIP3    H241613   0.962   2.820   0.041 -0.5226 -0.2576 -0.8439
 6708TIP3   OH241614   0.712   6.745   2.585  0.4179 -0.4313 -0.0488
 6708TIP3    H141615   0.780   6.713   2.645 -1.1244 -0.8229  1.5704
 6708TIP3    H241616   0.708   6.678   2.517  0.5795 -1.2382  0.7098
 6709TIP3   OH241617   1.340   2.793   2.397  0.1332 -0.5318  0.8924
 6709TIP3    H141618   1.362   2.713   2.445  0.9855 -1.6114 -1.1556
 6709TIP3    H241619   1.406   2.857   2.424  0.4096 -1.0179  1.3789
 6710TIP3   OH241620   5.187   6.611  15.336  0.0479 -0.6705  0.3944
 6710TIP3    H141621   5.218   6.691  15.293  0.9544 -0.6608  1.0327
 6710TIP3    H241622   5.267   6.567  15.365 -0.4192 -2.0156 -0.2958
 6711TIP3   OH241623   3.082   1.762  13.612  0.2693  0.3669  0.1490
 6711TIP3    H141624   3.121   1.834  13.562  1.0832  1.4634  2.2293
 6711TIP3    H241625   2.989   1.785  13.618 -0.1044 -0.4263 -1.8233
 6712TIP3   OH241626   0.839   0.007   3.501  0.3303  0.1614 -0.1888
 6712TIP3    H141627   0.832   0.070   3.572  1.0006  1.8083 -1.5222
 6712TIP3    H241628   0.883  -0.069   3.541  0.1208  0.7783  1.2803
 6713TIP3   OH241629   4.372   5.358  14.751  0.1442  0.2772  0.6190
 6713TIP3    H141630   4.383   5.452  14.762  0.5767  0.2571  0.3724
 6713TIP3    H241631   4.396   5.321  14.836  2.3547  0.2079  0.0181
 6714TIP3   OH241632   2.324   5.235  15.231 -0.5020  0.3022 -0.4612
 6714TIP3    H141633   2.281   5.159  15.192 -1.9034  1.0507 -0.4516
 6714TIP3    H241634   2.283   5.310  15.188  1.1072  1.0674 -0.7294
 6715TIP3   OH241635   4.470   1.879  15.560  0.0224 -0.5045 -0.5227
 6715TIP3    H141636   4.497   1.971  15.565  1.0921 -0.8088 -0.5870
 6715TIP3    H241637   4.499   1.849  15.474  0.6109 -1.1812 -0.1026
 6716TIP3   OH241638   5.595   5.688  13.954 -0.0058  0.4322 -0.1227
 6716TIP3    H141639   5.593   5.645  14.039  1.3223  0.2647 -0.1623
 6716TIP3    H241640   5.515   5.740  13.952 -0.8581 -0.7982  0.5628
 6717TIP3   OH241641   1.146   5.131  12.009  0.1284  0.3869  0.0116
 6717TIP3    H141642   1.175   5.072  11.939 -1.6754 -1.1038  0.4358
 6717TIP3    H241643   1.132   5.074  12.084 -2.3379  1.2140  0.2551
 6718TIP3   OH241644   4.904   4.997   6.142 -0.2581  0.1542  0.2060
 6718TIP3    H141645   4.827   5.023   6.091 -0.1004 -0.2702 -0.2624
 6718TIP3    H241646   4.874   4.996   6.233 -0.3824  1.5335  0.2099
 6719TIP3   OH241647   4.978   6.425   5.276 -0.6112 -1.1239 -0.7568
 6719TIP3    H141648   4.902   6.449   5.330 -0.0776 -2.1299  0.4959
 6719TIP3    H241649   4.941   6.379   5.201 -1.2642 -1.4030 -0.2718
 6720TIP3   OH241650   0.469   2.941   3.200  0.2133 -0.3056 -0.1149
 6720TIP3    H141651   0.381   2.916   3.229  0.4576  0.2644  1.2015
 6720TIP3    H241652   0.481   2.896   3.116 -2.0738  1.1561 -1.3241
 6721TIP3   OH241653   5.605   5.455  11.360  0.3897 -0.4772 -0.1184
 6721TIP3    H141654   5.613   5.429  11.268 -2.7646  0.8333 -0.8907
 6721TIP3    H241655   5.640   5.380  11.409  1.5797 -1.4765 -2.3391
 6722TIP3   OH241656   1.019   4.951  11.685 -0.4815 -0.4400 -0.0837
 6722TIP3    H141657   1.105   4.948  11.727 -0.5588 -0.8069  0.0514
 6722TIP3    H241658   0.974   4.872  11.716 -1.2507  0.2648  0.6661
 6723TIP3   OH241659   1.912   0.436  13.947 -0.1936  0.2618  0.2546
 6723TIP3    H141660   1.923   0.403  13.858 -1.0917  0.3084  0.1138
 6723TIP3    H241661   1.817   0.446  13.957 -0.0196  1.5037  0.7701
 6724TIP3   OH241662   1.562   0.072  15.997  0.3650  0.2886  0.9497
 6724TIP3    H141663   1.567  -0.023  15.987 -1.3225  0.3862 -1.8873
 6724TIP3    H241664   1.644   0.096  16.040  1.7618 -2.2283 -0.1034
 6725TIP3   OH241665   2.945   4.641   2.850  0.2928 -0.0441 -0.0755
 6725TIP3    H141666   3.025   4.599   2.818  0.5304  0.6240 -0.3794
 6725TIP3    H241667   2.974   4.727   2.879 -0.5019  0.6353 -1.2488
 6726TIP3   OH241668   4.456   0.367   5.108  0.4576 -0.0734 -0.4058
 6726TIP3    H141669   4.462   0.272   5.099  0.7675 -0.0426 -0.5550
 6726TIP3    H241670   4.547   0.396   5.116  0.4210  0.2940 -1.2395
 6727TIP3   OH241671   2.771   1.481   3.464  0.7515  0.2177  0.0762
 6727TIP3    H141672   2.767   1.576   3.466  1.0676  0.2301  0.1946
 6727TIP3    H241673   2.749   1.458   3.374  1.2986  0.4383 -0.1177
 6728TIP3   OH241674   0.329   6.324   3.869 -0.2590  0.1948  0.3208
 6728TIP3    H141675   0.418   6.309   3.900 -0.8530 -1.3567  1.3711
 6728TIP3    H241676   0.284   6.366   3.942 -1.3216 -2.3079  1.1896
 6729TIP3   OH241677   2.565   4.958   5.239  0.4821 -0.4348  0.6753
 6729TIP3    H141678   2.530   4.917   5.160 -0.1143 -0.1616  0.7920
 6729TIP3    H241679   2.639   5.011   5.208 -0.3028  0.3919  0.1629
 6730TIP3   OH241680   1.768   0.645  16.970  0.1865  0.1195 -0.1992
 6730TIP3    H141681   1.805   0.570  16.922  0.4310  0.0303  0.1268
 6730TIP3    H241682   1.826   0.718  16.948  1.4182 -0.3224  1.4237
 6731TIP3   OH241683   4.361   5.762  11.922 -0.2814 -0.1572  0.4280
 6731TIP3    H141684   4.351   5.765  11.826  0.1548 -0.8310  0.3489
 6731TIP3    H241685   4.296   5.823  11.955 -0.8405 -0.3541 -0.2786
 6732TIP3   OH241686   0.652   6.120   0.446  0.5021  0.2410  0.4020
 6732TIP3    H141687   0.705   6.122   0.366  2.0310 -0.3864  1.3426
 6732TIP3    H241688   0.564   6.101   0.415  0.9440  0.5648 -1.1849
 6733TIP3   OH241689   3.289   4.668  10.801 -0.1930 -0.7007 -0.7509
 6733TIP3    H141690   3.345   4.737  10.764  0.0908 -0.9424 -0.7769
 6733TIP3    H241691   3.212   4.666  10.745  0.1080 -0.8698 -1.1609
 6734TIP3   OH241692   2.035   5.209  14.269 -0.1883 -0.9902 -0.4283
 6734TIP3    H141693   2.019   5.239  14.359  1.7530 -0.4283 -0.2193
 6734TIP3    H241694   1.967   5.252  14.217 -1.2897 -1.2560  0.7466
 6735TIP3   OH241695   5.894   4.358  11.359  0.2001  0.0379  0.6653
 6735TIP3    H141696   5.911   4.446  11.393 -1.1686  0.8528 -0.6394
 6735TIP3    H241697   5.872   4.306  11.436 -0.3694  1.1979  1.3090
 6736TIP3   OH241698   2.040   6.770  12.038 -0.3636  0.2617 -0.3973
 6736TIP3    H141699   2.078   6.793  11.953  0.3511 -3.2415 -1.1944
 6736TIP3    H241700   2.109   6.790  12.101  0.4445 -0.2112 -1.0974
 6737TIP3   OH241701   0.398   3.766  13.721 -0.4090 -0.4642  0.9070
 6737TIP3    H141702   0.341   3.730  13.653 -0.9507  0.3606  0.9115
 6737TIP3    H241703   0.411   3.694  13.782  0.5064 -1.3877 -0.3146
 6738TIP3   OH241704   6.546   2.067   0.097 -0.1871 -0.4611 -0.2042
 6738TIP3    H141705   6.483   2.007   0.137 -0.2367  0.0005  0.4311
 6738TIP3    H241706   6.602   2.094   0.170  0.9272 -1.0715 -0.8151
 6739TIP3   OH241707   1.272   5.236   3.681  0.0876 -0.0258  0.0288
 6739TIP3    H141708   1.366   5.248   3.694  0.2165 -0.1470 -0.7454
 6739TIP3    H241709   1.235   5.234   3.769  1.1887 -3.0724  0.5214
 6740TIP3   OH241710   6.791   1.839   4.353  0.8449 -0.0691  0.3161
 6740TIP3    H141711   6.811   1.812   4.264 -0.2664  1.4089 -0.4287
 6740TIP3    H241712   6.706   1.799   4.372  1.0685 -0.3641  0.7193
 6741TIP3   OH241713   4.328   5.152   1.486 -0.3520  0.2281 -0.2462
 6741TIP3    H141714   4.380   5.217   1.439 -1.9147  1.6066 -0.1590
 6741TIP3    H241715   4.254   5.201   1.522 -2.3373 -1.8068 -1.2813
 6742TIP3   OH241716   3.897   1.641   0.437 -0.0036  0.3380  0.2731
 6742TIP3    H141717   3.861   1.710   0.381  1.3073  0.7524 -0.0863
 6742TIP3    H241718   3.835   1.635   0.510 -0.7541  1.0756 -0.2826
 6743TIP3   OH241719   0.496   1.360  15.933 -0.3116  0.0220  0.2996
 6743TIP3    H141720   0.469   1.395  15.848  0.9729  0.7757  0.1785
 6743TIP3    H241721   0.529   1.436  15.981  1.6333 -0.8146  0.3992
 6744TIP3   OH241722   1.169   3.290   1.570  0.0289 -0.3605 -0.7104
 6744TIP3    H141723   1.117   3.223   1.614 -1.4431  0.3066 -1.3928
 6744TIP3    H241724   1.233   3.318   1.636  0.2949 -1.9997 -0.2305
 6745TIP3   OH241725   2.350   1.284   5.806  0.1540  0.1530 -0.0617
 6745TIP3    H141726   2.273   1.320   5.762 -1.9054 -2.0285  1.5124
 6745TIP3    H241727   2.424   1.324   5.760 -1.8570  1.1006 -2.7687
 6746TIP3   OH241728   2.004   3.309   3.802 -0.6249 -0.2834 -0.6855
 6746TIP3    H141729   2.014   3.273   3.890 -1.2530 -2.0443 -1.2816
 6746TIP3    H241730   1.928   3.366   3.808 -1.6044 -1.5520 -0.3707
 6747TIP3   OH241731   0.313   3.853   4.097 -0.1492  0.1101  0.4880
 6747TIP3    H141732   0.406   3.847   4.118 -0.2792 -0.3527  0.9518
 6747TIP3    H241733   0.298   3.946   4.082  0.1602  0.3301  1.5127
 6748TIP3   OH241734   4.228   5.187  14.601  0.0148  0.0394  0.3714
 6748TIP3    H141735   4.273   5.248  14.659  0.3950 -1.1302  1.3514
 6748TIP3    H241736   4.158   5.239  14.561  0.6689  1.2454  0.7412
 6749TIP3   OH241737   3.335   6.408  13.322  0.1495  0.0189  0.8609
 6749TIP3    H141738   3.253   6.455  13.337 -0.6014 -0.0387 -2.4322
 6749TIP3    H241739   3.315   6.345  13.253  2.1185 -2.5943  2.4525
 6750TIP3   OH241740   5.489   6.395   3.336  0.0117  0.2387 -0.0728
 6750TIP3    H141741   5.501   6.323   3.275 -1.9301  0.8531 -1.2868
 6750TIP3    H241742   5.394   6.404   3.344  0.0398  3.9161 -1.6142
 6751TIP3   OH241743   1.793   4.284   4.702  0.0359  0.3626 -0.0798
 6751TIP3    H141744   1.842   4.305   4.782  0.7990 -0.7646 -0.2369
 6751TIP3    H241745   1.716   4.341   4.706  2.0400  3.3072 -0.5725
 6752TIP3   OH241746   2.289   0.735  11.388  0.2635 -0.2664  0.3337
 6752TIP3    H141747   2.362   0.742  11.449 -0.5626 -1.8014  1.5807
 6752TIP3    H241748   2.284   0.641  11.366 -0.7774 -0.0625 -0.4149
 6753TIP3   OH241749   3.851   2.377  14.616  0.1063 -0.2437 -0.0392
 6753TIP3    H141750   3.833   2.290  14.654  1.0848 -0.2068  0.5501
 6753TIP3    H241751   3.936   2.366  14.573  0.5031  0.5621  0.5220
 6754TIP3   OH241752   2.125   2.325  14.245 -0.0844 -0.3687 -0.1382
 6754TIP3    H141753   2.205   2.278  14.270  0.7691  0.0430 -1.9397
 6754TIP3    H241754   2.156   2.410  14.214 -1.3116  0.0994 -0.1324
 6755TIP3   OH241755   0.317   6.178  16.038  0.4916 -0.0241  0.1441
 6755TIP3    H141756   0.233   6.137  16.059  0.1356  0.1811 -0.8450
 6755TIP3    H241757   0.313   6.197  15.944 -0.0934  3.8769  0.7877
 6756TIP3   OH241758   1.744   6.223   6.292 -0.6518  0.9204 -0.1472
 6756TIP3    H141759   1.709   6.256   6.374  2.4668  0.8079  1.3994
 6756TIP3    H241760   1.679   6.161   6.261 -1.0525 -0.7184  3.4455
 6757TIP3   OH241761   2.443   4.824  13.168 -0.7468  0.2585  0.1917
 6757TIP3    H141762   2.453   4.864  13.254  0.4488  1.7210 -0.5674
 6757TIP3    H241763   2.527   4.781  13.152 -0.1659  1.7284 -1.0217
 6758TIP3   OH241764   1.061   0.806  12.982  0.0653 -0.0300  0.2497
 6758TIP3    H141765   1.156   0.797  12.972 -0.1412 -1.2117 -0.9902
 6758TIP3    H241766   1.048   0.895  13.016  1.5636  0.4242 -0.3063
 6759TIP3   OH241767   0.798   4.289  15.920  0.1114  0.0338  0.1997
 6759TIP3    H141768   0.858   4.215  15.913 -0.8894 -0.7696 -0.2136
 6759TIP3    H241769   0.717   4.250  15.952 -0.5240  0.8985 -0.3321
 6760TIP3   OH241770   5.976   1.491   6.069  0.1898 -0.8528 -0.2501
 6760TIP3    H141771   5.947   1.410   6.029  1.1618 -1.5798  0.4766
 6760TIP3    H241772   6.040   1.464   6.135  0.2965  0.4749  0.2200
 6761TIP3   OH241773   1.508   2.384   1.510 -0.2102  0.8522  0.5222
 6761TIP3    H141774   1.538   2.434   1.587 -0.3128  1.2479  0.3102
 6761TIP3    H241775   1.536   2.294   1.527 -0.7039  0.8295  1.2748
 6762TIP3   OH241776   2.832   6.358   0.965  0.1528  0.2423 -0.4295
 6762TIP3    H141777   2.838   6.388   1.056  0.3318  1.0678 -0.7035
 6762TIP3    H241778   2.738   6.355   0.947  0.0780 -0.8887  0.0835
 6763TIP3   OH241779   1.726   2.253  13.622  0.0526 -0.2692  0.7917
 6763TIP3    H141780   1.761   2.164  13.618  1.5372  0.3173 -0.6899
 6763TIP3    H241781   1.772   2.300  13.552 -3.4091  0.7565 -1.0218
 6764TIP3   OH241782   3.330   0.778  14.636 -0.0026 -0.0427 -0.2760
 6764TIP3    H141783   3.288   0.859  14.664 -1.6801 -0.9016 -0.1830
 6764TIP3    H241784   3.266   0.709  14.655  1.5602 -1.4705  0.1117
 6765TIP3   OH241785   3.387   5.471  13.834  0.2780  0.1261  0.1411
 6765TIP3    H141786   3.405   5.562  13.859  1.2884  0.6626 -2.2113
 6765TIP3    H241787   3.434   5.419  13.900 -0.1068  1.2838  1.3857
 6766TIP3   OH241788   4.667   6.201   3.814 -0.4259  0.5013 -0.0134
 6766TIP3    H141789   4.705   6.129   3.863  0.5854  0.8370 -0.2892
 6766TIP3    H241790   4.651   6.269   3.879 -0.5419  0.3674  0.0987
 6767TIP3   OH241791   6.347   5.692   4.523  0.1229  0.3026 -0.9488
 6767TIP3    H141792   6.276   5.755   4.514  0.5880  0.8648 -0.7361
 6767TIP3    H241793   6.314   5.626   4.584  0.2275  1.2329  0.1552
 6768TIP3   OH241794   6.601   5.614   4.515  0.7620 -0.5831 -0.0035
 6768TIP3    H141795   6.505   5.611   4.508  0.8999 -1.1447 -2.5593
 6768TIP3    H241796   6.620   5.570   4.598 -1.1717 -0.7466  0.4018
 6769TIP3   OH241797   4.530   3.022   1.114 -0.2671 -0.0013  0.3794
 6769TIP3    H141798   4.525   3.046   1.207 -2.5194  0.1507  0.2668
 6769TIP3    H241799   4.619   2.988   1.103  0.3885  0.9347  2.3449
 6770TIP3   OH241800   3.228   1.002  16.939 -0.4948  0.4320 -0.2591
 6770TIP3    H141801   3.307   1.053  16.956 -0.1626 -0.3296  0.5766
 6770TIP3    H241802   3.184   0.996  17.024 -0.3519 -0.9489 -0.2641
 6771TIP3   OH241803   2.630   4.087  14.306  0.6625 -0.1632 -0.0595
 6771TIP3    H141804   2.547   4.131  14.322  0.4157 -0.1045 -1.3683
 6771TIP3    H241805   2.696   4.154  14.324  0.4157 -0.1010  0.6355
 6772TIP3   OH241806   6.497   3.212  16.596 -0.0807 -0.5348 -0.2439
 6772TIP3    H141807   6.490   3.142  16.532  1.2670 -0.4567 -0.5017
 6772TIP3    H241808   6.564   3.183  16.658  0.4750  0.4915 -0.3327
 6773TIP3   OH241809   6.064   4.953   4.415 -0.2625 -0.3085  0.1815
 6773TIP3    H141810   6.033   4.956   4.506 -0.9682  0.3695 -0.0746
 6773TIP3    H241811   6.097   5.042   4.398  2.4433 -1.1518  0.6413
 6774TIP3   OH241812   4.493   0.901  14.269  0.4203 -0.0807 -0.0304
 6774TIP3    H141813   4.572   0.857  14.238  0.3781  0.3665 -0.7736
 6774TIP3    H241814   4.470   0.853  14.349  0.9036 -0.8149 -0.3155
 6775TIP3   OH241815   3.274   3.538   2.586  0.3833 -0.5905 -0.1541
 6775TIP3    H141816   3.220   3.459   2.586 -0.3397 -0.1058  0.0690
 6775TIP3    H241817   3.293   3.555   2.494  0.3540 -0.9066 -0.2166
 6776TIP3   OH241818   5.298   5.602  17.188 -0.0719  0.1620 -0.5214
 6776TIP3    H141819   5.393   5.611  17.188 -0.1240  0.7614 -0.3570
 6776TIP3    H241820   5.268   5.660  17.119 -0.3779  0.7542  0.0929
 6777TIP3   OH241821   5.221   3.912   0.826 -0.2567  0.0504  0.7480
 6777TIP3    H141822   5.232   4.007   0.817  1.1482  0.0000  1.5584
 6777TIP3    H241823   5.201   3.899   0.919 -1.5020 -0.3801  0.4351
 6778TIP3   OH241824   6.164   5.963   3.284 -0.1368 -0.0157 -0.0865
 6778TIP3    H141825   6.126   6.016   3.214  0.7036  0.5919 -0.1014
 6778TIP3    H241826   6.152   6.016   3.363  0.5121  0.1014 -0.0637
 6779TIP3   OH241827   0.848   6.320   5.863 -0.6756 -0.1577 -0.1232
 6779TIP3    H141828   0.792   6.317   5.941  0.3767 -0.3538  0.6489
 6779TIP3    H241829   0.903   6.398   5.875 -1.3267  0.5088 -1.2750
 6780TIP3   OH241830   1.747   3.091  11.613  0.1399 -0.4527 -0.2064
 6780TIP3    H141831   1.684   3.108  11.682  0.5284  0.3710 -0.0551
 6780TIP3    H241832   1.705   3.023  11.560 -1.9005  1.6041 -1.4139
 6781TIP3   OH241833   5.527   1.895   2.819  0.1434  0.6327  0.0208
 6781TIP3    H141834   5.441   1.862   2.794  1.3816 -0.9223 -2.5898
 6781TIP3    H241835   5.587   1.821   2.803  2.4067  2.6589 -1.5883
 6782TIP3   OH241836   2.195   1.537  11.776 -0.6697  0.0864 -0.0109
 6782TIP3    H141837   2.214   1.446  11.752 -1.9838 -0.0100 -0.7560
 6782TIP3    H241838   2.158   1.532  11.864 -0.7404 -0.0971 -0.0516
 6783TIP3   OH241839   0.002   4.579   3.150 -0.1882  0.1236  0.0093
 6783TIP3    H141840   0.065   4.573   3.078 -0.8820  1.6370 -0.7727
 6783TIP3    H241841   0.035   4.650   3.205  0.3991 -1.0996  1.2936
 6784TIP3   OH241842   6.786   2.925   3.947  0.0735 -0.7177  0.3323
 6784TIP3    H141843   6.837   2.856   3.990  1.3006  1.4260  2.5581
 6784TIP3    H241844   6.712   2.941   4.005 -0.8845 -0.9502 -0.7860
 6785TIP3   OH241845   2.338   0.714   0.204 -0.3622 -0.4226 -0.2952
 6785TIP3    H141846   2.279   0.774   0.250 -0.0211 -0.9806  0.9150
 6785TIP3    H241847   2.343   0.749   0.115 -0.1056  1.4087  0.3884
 6786TIP3   OH241848   5.565   6.491   1.699  0.2274  0.7325 -0.0386
 6786TIP3    H141849   5.515   6.562   1.659  0.3594  0.5038 -0.6112
 6786TIP3    H241850   5.596   6.438   1.626 -1.5240 -1.0759  0.4416
 6787TIP3   OH241851   3.271   5.007  11.072 -0.2029 -0.7203 -0.2020
 6787TIP3    H141852   3.367   5.006  11.072  0.0720  1.8611  3.7324
 6787TIP3    H241853   3.248   5.066  10.999  1.5190  1.3339  0.7927
 6788TIP3   OH241854   4.106   1.823   0.480  0.0642 -0.4653  0.3428
 6788TIP3    H141855   4.065   1.867   0.555 -0.4139  1.0654 -0.7569
 6788TIP3    H241856   4.047   1.752   0.458  0.5563 -1.3706  1.8180
 6789TIP3   OH241857   4.518   0.688   4.926 -0.2407  0.4550 -0.0532
 6789TIP3    H141858   4.604   0.703   4.888 -0.0313 -1.3759 -0.3760
 6789TIP3    H241859   4.524   0.725   5.015  0.6836  0.8176 -0.2541
 6790TIP3   OH241860   3.442   0.405   3.725 -0.1191  0.1817  0.0912
 6790TIP3    H141861   3.360   0.416   3.675  0.0718  2.0908  0.1069
 6790TIP3    H241862   3.509   0.393   3.658  0.2748  3.6497 -0.2998
 6791TIP3   OH241863   0.931   4.812   2.589  0.6456  0.3897 -0.8651
 6791TIP3    H141864   0.995   4.879   2.614 -0.3006  1.2077 -0.5483
 6791TIP3    H241865   0.957   4.784   2.502  1.3911  0.7562 -0.7671
 6792TIP3   OH241866   3.158   3.495   0.642 -0.1175 -0.1017 -0.3085
 6792TIP3    H141867   3.233   3.533   0.687 -1.6205  0.9080  1.4826
 6792TIP3    H241868   3.139   3.414   0.689 -1.9103  1.1311  1.2700
 6793TIP3   OH241869   2.144   1.395  14.564 -0.3225  0.6696  0.2020
 6793TIP3    H141870   2.134   1.308  14.603 -0.5880 -0.1450 -1.6191
 6793TIP3    H241871   2.055   1.422  14.541 -0.1058  0.8403 -0.4527
 6794TIP3   OH241872   4.400   1.279   1.769 -0.2656  0.0090  0.2273
 6794TIP3    H141873   4.375   1.248   1.856 -0.0689 -0.4098  0.1383
 6794TIP3    H241874   4.401   1.200   1.715  0.7138  0.0872  0.1110
 6795TIP3   OH241875   4.039   5.825  14.300 -0.3199  0.3050 -0.6120
 6795TIP3    H141876   4.040   5.739  14.341  1.1064  1.3322  1.7110
 6795TIP3    H241877   4.051   5.808  14.207  2.1287 -1.9680 -0.0082
 6796TIP3   OH241878   1.141   3.659   1.371 -0.1952 -0.3595  0.1008
 6796TIP3    H141879   1.134   3.611   1.453 -0.3226 -1.5629 -0.5911
 6796TIP3    H241880   1.059   3.640   1.325  0.2796 -0.4902 -0.7093
 6797TIP3   OH241881   6.770   6.611   4.301  0.2414  0.3692  0.8352
 6797TIP3    H141882   6.778   6.706   4.298 -0.8587  0.4463 -0.2866
 6797TIP3    H241883   6.685   6.595   4.341  0.2446 -0.1308  0.6489
 6798TIP3   OH241884   1.879   4.103  12.722  0.1753  0.4504  0.2334
 6798TIP3    H141885   1.900   4.037  12.655 -1.6623 -1.5517  1.4972
 6798TIP3    H241886   1.935   4.081  12.796 -1.4195 -0.6614  1.1691
 6799TIP3   OH241887   4.028   6.565   0.173 -0.0517  0.2466 -0.2154
 6799TIP3    H141888   4.091   6.563   0.244  1.7646  2.2728 -1.6336
 6799TIP3    H241889   4.075   6.531   0.097 -0.8323  1.2134 -1.1714
 6800TIP3   OH241890   1.090   0.811  14.807  0.4298 -0.3575  0.0341
 6800TIP3    H141891   1.096   0.825  14.902 -4.7204 -1.9785  0.9428
 6800TIP3    H241892   1.150   0.738  14.790  1.9003  0.3257  1.8842
 6801TIP3   OH241893   0.647   2.371  14.525  0.0552 -0.1146  1.1165
 6801TIP3    H141894   0.566   2.417  14.549 -0.2001  0.0413  0.0400
 6801TIP3    H241895   0.621   2.279  14.519  0.3660 -0.3030  2.4284
 6802TIP3   OH241896   3.044   5.379  11.378 -0.0225  0.4167 -0.3327
 6802TIP3    H141897   3.116   5.354  11.436  0.1904 -0.0865 -0.7955
 6802TIP3    H241898   3.087   5.422  11.304 -0.4015  2.4098  0.5499
 6803TIP3   OH241899   2.483   0.540   3.278 -0.1069 -0.2491  0.2830
 6803TIP3    H141900   2.555   0.601   3.286 -0.5312  0.1313  1.3357
 6803TIP3    H241901   2.515   0.473   3.217  0.1835  1.2497 -1.2742
 6804TIP3   OH241902   0.776   4.364  12.369  0.6605  0.3967 -0.3155
 6804TIP3    H141903   0.802   4.415  12.292  0.3695 -1.2203 -1.5449
 6804TIP3    H241904   0.684   4.386  12.383  0.7399  0.7672 -0.3642
 6805TIP3   OH241905   5.625   4.709   3.558 -0.1823  0.0020 -0.0271
 6805TIP3    H141906   5.571   4.679   3.632 -0.9549  0.6106 -0.3282
 6805TIP3    H241907   5.562   4.735   3.492  0.4913  0.9465 -0.3088
 6806TIP3   OH241908   3.672   3.350  15.961  0.3007  0.5190 -0.1697
 6806TIP3    H141909   3.635   3.348  16.049 -1.3605  0.7329 -0.8410
 6806TIP3    H241910   3.762   3.319  15.973  0.0151  0.2499  1.5502
 6807TIP3   OH241911   6.383   1.846   3.432 -0.5546 -0.5863  0.6909
 6807TIP3    H141912   6.461   1.898   3.451 -0.9768 -0.3939  1.9451
 6807TIP3    H241913   6.391   1.826   3.338  1.1362 -0.7988  0.8390
 6808TIP3   OH241914   3.701   0.163  16.941 -0.2579 -0.6886 -0.2142
 6808TIP3    H141915   3.766   0.179  17.009 -1.6115 -0.5304  1.1009
 6808TIP3    H241916   3.704   0.242  16.886 -0.9030  0.3520  1.1829
 6809TIP3   OH241917   4.623   3.094  11.428 -0.0842 -0.0913  0.2614
 6809TIP3    H141918   4.596   3.154  11.359 -0.5132 -0.7067 -0.1116
 6809TIP3    H241919   4.711   3.123  11.451 -0.5617  1.1343  0.6037
 6810TIP3   OH241920   2.328   5.245   6.505 -0.1863  0.3062  0.9530
 6810TIP3    H141921   2.419   5.220   6.485 -1.0960 -2.2057 -0.5050
 6810TIP3    H241922   2.322   5.239   6.600  0.9915 -0.2377  1.0104
 6811TIP3   OH241923   1.735   4.665  13.172  0.0868 -0.0248  0.7536
 6811TIP3    H141924   1.794   4.736  13.196  1.9423 -1.1985 -0.0821
 6811TIP3    H241925   1.770   4.632  13.089 -1.4315 -1.1330  0.5092
 6812TIP3   OH241926   2.346   1.635  13.718  0.5174  0.7370 -0.0136
 6812TIP3    H141927   2.286   1.622  13.644  1.5181  0.0585 -0.7304
 6812TIP3    H241928   2.381   1.548  13.736  1.2970  1.1261  0.3760
 6813TIP3   OH241929   2.186   5.882  14.348  0.4861 -0.6988 -0.5506
 6813TIP3    H141930   2.158   5.969  14.375 -0.8232 -1.5248  0.9623
 6813TIP3    H241931   2.212   5.838  14.429 -1.2536 -2.4888 -0.8706
 6814TIP3   OH241932   3.042   2.769   1.312  0.4164  0.0994 -0.2144
 6814TIP3    H141933   3.082   2.700   1.259 -0.6263  0.3253 -1.3451
 6814TIP3    H241934   3.116   2.818   1.348  1.1692 -1.1579  0.0461
 6815TIP3   OH241935   0.412   4.736  12.355  0.1256  0.0363  0.3791
 6815TIP3    H141936   0.409   4.827  12.325 -1.3588 -0.1213 -0.0272
 6815TIP3    H241937   0.320   4.713  12.370  0.5995 -0.8156  2.2931
 6816TIP3   OH241938   0.728   2.774  11.279  0.0975 -0.2214  0.0784
 6816TIP3    H141939   0.639   2.801  11.302  0.2341 -1.0501  1.7594
 6816TIP3    H241940   0.738   2.797  11.187 -1.4928  0.8266  0.1384
 6817TIP3   OH241941   4.046   1.457   2.765  0.0740 -0.1987 -0.1668
 6817TIP3    H141942   4.104   1.532   2.754 -0.3128  0.6444  2.6382
 6817TIP3    H241943   3.967   1.480   2.717  0.2155  0.8907  0.0999
 6818TIP3   OH241944   2.754   4.487  17.187  0.2736 -0.2031 -0.1517
 6818TIP3    H141945   2.746   4.439  17.104 -0.7013  1.4100 -1.0412
 6818TIP3    H241946   2.798   4.568  17.164  0.9219 -0.1664  1.1276
 6819TIP3   OH241947   4.915   2.880  13.004 -0.0167  0.0581 -0.0702
 6819TIP3    H141948   4.895   2.790  12.981 -1.3117  0.3686 -0.1965
 6819TIP3    H241949   4.886   2.889  13.095 -3.3395  1.3041 -1.1080
 6820TIP3   OH241950   1.481   5.789   4.728 -0.3574  0.9393 -0.5641
 6820TIP3    H141951   1.539   5.759   4.658 -0.3576  1.8623 -0.9757
 6820TIP3    H241952   1.535   5.788   4.807 -0.3549 -0.1011 -0.5654
 6821TIP3   OH241953   3.912   4.071   2.339 -0.9943  0.0010 -0.3223
 6821TIP3    H141954   3.828   4.100   2.374 -1.9694 -0.2121 -2.3458
 6821TIP3    H241955   3.889   4.000   2.279  0.8859 -1.8293  0.9789
 6822TIP3   OH241956   1.026   1.213  13.698 -0.1226 -0.5506 -0.1080
 6822TIP3    H141957   1.024   1.135  13.643  0.2323  0.5032 -1.7247
 6822TIP3    H241958   0.963   1.273  13.657  0.3845  0.3973  0.4527
 6823TIP3   OH241959   4.674   1.592   5.224  0.0760 -0.2497  0.3517
 6823TIP3    H141960   4.714   1.672   5.258 -1.0735 -0.3165  1.9663
 6823TIP3    H241961   4.597   1.578   5.279  0.4829 -2.7239  0.4081
 6824TIP3   OH241962   5.788   4.916  16.168  0.2758  0.3711  0.0322
 6824TIP3    H141963   5.761   4.915  16.076 -0.8717  0.0860  0.3563
 6824TIP3    H241964   5.883   4.927  16.165  0.1430  1.5453 -1.1663
 6825TIP3   OH241965   3.848   4.541  11.106  0.3957  0.3250  0.3237
 6825TIP3    H141966   3.927   4.585  11.075  1.0029 -1.1830 -0.3436
 6825TIP3    H241967   3.860   4.450  11.081 -1.2767 -0.0507  0.7921
 6826TIP3   OH241968   2.036   4.433   4.881  0.2491  0.2950  0.6079
 6826TIP3    H141969   1.980   4.437   4.959 -0.1520 -0.4588  0.3708
 6826TIP3    H241970   2.051   4.525   4.858 -0.6631  0.5133  0.8400
 6827TIP3   OH241971   3.199   6.620  11.612 -0.4963  0.1753 -0.5394
 6827TIP3    H141972   3.245   6.649  11.690 -2.0386 -0.6911  0.7452
 6827TIP3    H241973   3.154   6.699  11.580 -1.0370  0.2070  0.2953
 6828TIP3   OH241974   4.115   5.081   2.993  0.1129  0.3323  0.4400
 6828TIP3    H141975   4.143   5.091   2.902 -0.9310 -0.3296  0.0287
 6828TIP3    H241976   4.040   5.140   3.002 -0.5175 -0.4633  0.5250
 6829TIP3   OH241977   2.950   2.922   1.657 -0.0861  0.0971 -0.6009
 6829TIP3    H141978   3.045   2.912   1.667 -0.0484  0.2412 -0.8157
 6829TIP3    H241979   2.925   2.980   1.729  0.1359  0.8579 -1.1244
 6830TIP3   OH241980   3.701   5.088   3.343  0.3714 -0.0689 -0.3469
 6830TIP3    H141981   3.696   5.052   3.254 -1.1370  0.3859 -0.4777
 6830TIP3    H241982   3.764   5.159   3.337 -0.8283  0.9581 -1.4569
 6831TIP3   OH241983   4.553   0.861   3.662  0.3595 -0.2107 -0.0524
 6831TIP3    H141984   4.494   0.901   3.726 -0.5967  0.3862 -1.2640
 6831TIP3    H241985   4.614   0.931   3.639  0.6038 -0.3764  0.0887
 6832TIP3   OH241986   0.654   3.093   0.926  0.3967  0.2668 -0.2370
 6832TIP3    H141987   0.675   3.143   0.847  0.9354  0.6426  0.1406
 6832TIP3    H241988   0.643   3.160   0.994 -0.3855 -0.0299 -0.0590
 6833TIP3   OH241989   3.679   3.804  13.181  0.0240 -0.1867 -0.0135
 6833TIP3    H141990   3.618   3.818  13.109  0.0556  0.9083  0.1491
 6833TIP3    H241991   3.632   3.749  13.244 -0.4337 -0.1555 -0.3286
 6834TIP3   OH241992   2.884   3.777   3.462  0.6155 -0.0925 -0.1937
 6834TIP3    H141993   2.901   3.847   3.398  1.2347  0.7683  0.8757
 6834TIP3    H241994   2.924   3.809   3.543 -4.2312  1.2079  2.0978
 6835TIP3   OH241995   0.307   2.053   3.296  0.0868  0.3089  0.5065
 6835TIP3    H141996   0.384   2.025   3.247 -0.1176  1.7759 -0.7224
 6835TIP3    H241997   0.236   2.054   3.232 -1.3090 -2.1749  1.8611
 6836TIP3   OH241998   6.649   2.320  16.684 -0.2520 -0.2275  0.1289
 6836TIP3    H141999   6.645   2.336  16.778 -0.4454 -2.2600  0.5064
 6836TIP3    H242000   6.741   2.301  16.667 -0.2606 -0.1175 -0.0434
 6837TIP3   OH242001   0.505   4.889   1.215  0.0849 -0.6446  0.1781
 6837TIP3    H142002   0.429   4.948   1.213  1.3437  1.0781 -2.7717
 6837TIP3    H242003   0.559   4.922   1.286 -0.5135  0.0457  0.3250
 6838TIP3   OH242004   0.108   2.946   5.409  0.5480  0.0282  0.2460
 6838TIP3    H142005   0.106   2.873   5.347  0.1055  0.9497 -0.8549
 6838TIP3    H242006   0.130   2.905   5.493 -2.8632 -1.8988  0.3845
 6839TIP3   OH242007   3.105   3.260   1.476  0.2060  0.0373 -0.8996
 6839TIP3    H142008   3.117   3.336   1.532  1.1614 -1.4433  1.0517
 6839TIP3    H242009   3.011   3.239   1.483  0.4725 -0.6966  1.0348
 6840TIP3   OH242010   3.751   5.243  17.109  0.3042 -0.3063  0.5988
 6840TIP3    H142011   3.812   5.234  17.036  0.0207  4.4200 -0.5501
 6840TIP3    H242012   3.769   5.330  17.144 -3.8144  0.1309  2.1047
 6841TIP3   OH242013   3.214   3.765  11.278 -0.4005  0.5627 -0.0352
 6841TIP3    H142014   3.136   3.789  11.327 -1.6323 -0.2019 -1.5247
 6841TIP3    H242015   3.275   3.731  11.344 -1.0880  1.6982  1.2203
 6842TIP3   OH242016   4.098   6.076  13.355  0.1246  0.1017 -0.4607
 6842TIP3    H142017   4.165   6.008  13.354  0.3860  0.3685 -1.4567
 6842TIP3    H242018   4.070   6.084  13.265 -1.0974  0.1575 -0.0874
 6843TIP3   OH242019   5.870   6.312   5.734 -0.0333  0.8731 -0.3581
 6843TIP3    H142020   5.890   6.220   5.719 -2.1068  0.6490 -2.5253
 6843TIP3    H242021   5.884   6.353   5.648 -0.5912  2.2591  0.1862
 6844TIP3   OH242022   5.638   5.848   2.200  0.9099 -0.0263 -0.3273
 6844TIP3    H142023   5.715   5.853   2.143  0.4235  1.1427 -0.9211
 6844TIP3    H242024   5.622   5.939   2.225  0.1389 -0.3494  0.3603
 6845TIP3   OH242025   4.261   5.181   0.187 -0.3486  0.1671 -0.3940
 6845TIP3    H142026   4.302   5.097   0.170 -0.3593 -0.4410  2.1819
 6845TIP3    H242027   4.205   5.197   0.110  1.5306 -0.9236 -2.0653
 6846TIP3   OH242028   4.778   2.919  12.079  0.2569 -0.4701  0.7366
 6846TIP3    H142029   4.786   2.993  12.139 -0.2423 -0.6780  1.0689
 6846TIP3    H242030   4.817   2.845  12.126  0.9530 -0.3754  0.3188
 6847TIP3   OH242031   5.288   5.923   3.136  0.1052 -0.0621  0.1631
 6847TIP3    H142032   5.283   6.019   3.131 -0.1563 -0.0896 -0.1224
 6847TIP3    H242033   5.199   5.894   3.118 -0.5679 -0.2528  3.1631
 6848TIP3   OH242034   5.023   2.010  14.571 -0.3462  0.5954  0.6171
 6848TIP3    H142035   5.067   1.937  14.527  0.3422  2.3164 -1.8073
 6848TIP3    H242036   4.930   1.988  14.568 -0.2928  0.4315 -1.4717
 6849TIP3   OH242037   5.958   4.932  15.589 -0.5091 -0.0324  0.3025
 6849TIP3    H142038   5.908   5.010  15.614 -0.5503  0.3734 -0.9586
 6849TIP3    H242039   5.929   4.913  15.499  0.0099 -1.0878  0.3422
 6850TIP3   OH242040   2.277   1.389  14.891 -0.4526 -0.6780  0.4079
 6850TIP3    H142041   2.183   1.373  14.895 -0.8740  1.3220 -0.0413
 6850TIP3    H242042   2.285   1.475  14.849  1.6452 -1.3571 -0.7527
 6851TIP3   OH242043   6.007   0.894  14.315 -0.2952 -0.6725 -0.6310
 6851TIP3    H142044   5.939   0.848  14.267  0.0849 -2.3670  0.3683
 6851TIP3    H242045   6.057   0.825  14.359  2.1894  0.4640 -1.4516
 6852TIP3   OH242046   2.204   5.896   4.424  0.7043 -0.4488 -0.0779
 6852TIP3    H142047   2.214   5.921   4.516 -0.2456 -0.3146 -0.0063
 6852TIP3    H242048   2.165   5.809   4.427  0.3375 -0.2968 -0.3510
 6853TIP3   OH242049   2.562   5.374   6.221  0.1702  0.2587  0.1003
 6853TIP3    H142050   2.574   5.296   6.276  0.0944  0.6345  0.6565
 6853TIP3    H242051   2.584   5.447   6.279 -2.1410  0.8248  0.3450
 6854TIP3   OH242052   4.872   0.149   0.439  0.0095 -0.2096  0.0307
 6854TIP3    H142053   4.821   0.072   0.416  0.4501 -0.5176  0.0671
 6854TIP3    H242054   4.856   0.162   0.532 -0.2125 -0.1424 -0.0161
 6855TIP3   OH242055   3.184   1.032  12.369 -0.1124  0.0017  0.0261
 6855TIP3    H142056   3.205   0.939  12.380  0.9340  0.1834 -0.3270
 6855TIP3    H242057   3.257   1.078  12.410  0.7491  0.6540 -2.1061
 6856TIP3   OH242058   6.000   5.997   0.039  0.1169 -0.0042 -0.3757
 6856TIP3    H142059   6.014   5.903   0.046 -2.2413 -0.3566  0.6920
 6856TIP3    H242060   5.963   6.022   0.124 -2.0317  1.2875 -1.5885
 6857TIP3   OH242061   3.320   6.631  15.864  0.3877  0.0593 -0.4309
 6857TIP3    H142062   3.410   6.617  15.893  0.3019  0.4180  0.0254
 6857TIP3    H242063   3.279   6.545  15.868  0.5646 -0.0122 -0.1179
 6858TIP3   OH242064   1.108   5.309   1.867 -0.4264 -0.0787 -0.0532
 6858TIP3    H142065   1.019   5.329   1.894 -0.1287  3.2690 -1.1116
 6858TIP3    H242066   1.160   5.384   1.895  2.0114 -1.6284 -0.0263
 6859TIP3   OH242067   2.579   5.697  12.017 -0.0471  0.3237 -0.1121
 6859TIP3    H142068   2.673   5.700  12.033 -0.2212 -0.4017  1.0892
 6859TIP3    H242069   2.540   5.734  12.096 -0.8561 -1.5954  0.4355
 6860TIP3   OH242070   2.291   1.010   5.837 -0.1830 -0.4715 -0.7158
 6860TIP3    H142071   2.298   1.105   5.832  1.2257 -0.5038  0.2308
 6860TIP3    H242072   2.278   0.992   5.930 -1.4484 -1.1762 -1.0009
 6861TIP3   OH242073   0.570   4.240  16.285 -0.2721  0.2477  0.3173
 6861TIP3    H142074   0.505   4.297  16.244  0.4847  1.0686  0.2259
 6861TIP3    H242075   0.524   4.200  16.359 -0.9526  0.6130  0.0997
 6862TIP3   OH242076   3.123   2.715  15.777  0.1765  0.2667 -0.1023
 6862TIP3    H142077   3.055   2.715  15.710 -0.2367 -0.7508  0.2930
 6862TIP3    H242078   3.075   2.709  15.860  0.7070  0.7507  0.2509
 6863TIP3   OH242079   4.031   4.460  17.017  0.0450  0.0927  0.0280
 6863TIP3    H142080   3.997   4.430  17.101 -0.4139 -2.9632 -1.1347
 6863TIP3    H242081   3.957   4.450  16.956  1.3666 -1.3535 -1.4430
 6864TIP3   OH242082   2.922   3.124  15.741 -0.2012  0.1415 -0.1745
 6864TIP3    H142083   2.918   3.217  15.763  0.2428 -0.3808  2.4373
 6864TIP3    H242084   2.931   3.122  15.646  4.5809  2.9754 -0.1147
 6865TIP3   OH242085   1.522   2.365  12.931 -0.4348  0.7381 -0.2478
 6865TIP3    H142086   1.508   2.389  12.839 -2.4092 -0.6933 -0.3627
 6865TIP3    H242087   1.566   2.280  12.927 -1.3557  0.2391  0.1190
 6866TIP3   OH242088   3.333   6.400  11.534 -0.0430  0.1107 -0.0039
 6866TIP3    H142089   3.278   6.475  11.555 -0.9553 -0.1384 -1.3649
 6866TIP3    H242090   3.320   6.386  11.440  2.9856  0.5317 -0.5722
 6867TIP3   OH242091   0.918   2.177  14.561 -0.4988 -0.0307  0.6045
 6867TIP3    H142092   0.909   2.124  14.482  0.4694  0.7560 -0.0590
 6867TIP3    H242093   0.909   2.267  14.531 -2.1822  0.2104  1.7287
 6868TIP3   OH242094   1.640   5.824  16.604 -0.6195 -0.1022  0.0610
 6868TIP3    H142095   1.622   5.733  16.628 -0.4729  0.0065  0.5896
 6868TIP3    H242096   1.616   5.875  16.682  0.0133  0.2374  0.0409
 6869TIP3   OH242097   6.202   6.545   5.666 -0.0781  0.2168 -0.0369
 6869TIP3    H142098   6.227   6.473   5.609 -2.2576 -1.2106  0.7035
 6869TIP3    H242099   6.161   6.609   5.606  0.1258 -0.0169 -0.4319
 6870TIP3   OH242100   6.174   4.971   4.031 -0.1044  0.1818  0.4210
 6870TIP3    H142101   6.220   5.001   3.953 -0.1958 -2.1782 -0.6313
 6870TIP3    H242102   6.132   5.049   4.066  2.1253  1.8348 -0.3339
 6871TIP3   OH242103   1.804   2.380  12.641  0.3111  0.6501  0.4337
 6871TIP3    H142104   1.839   2.350  12.725  0.7725 -0.2690 -0.0632
 6871TIP3    H242105   1.833   2.470  12.634 -2.1999  1.7633  2.5663
 6872TIP3   OH242106   4.754   0.395  16.046 -0.4167 -0.6783  0.7915
 6872TIP3    H142107   4.824   0.341  16.009 -2.1545 -2.0067 -0.7616
 6872TIP3    H242108   4.736   0.460  15.978 -2.3868 -1.9857 -0.0275
 6873TIP3   OH242109   5.528   6.001  11.891 -0.2965  0.2007 -0.2144
 6873TIP3    H142110   5.575   6.000  11.808 -1.1582 -1.0928 -0.7299
 6873TIP3    H242111   5.568   5.931  11.942 -1.0301 -0.3045 -0.3115
 6874TIP3   OH242112   0.825   1.896   5.698 -0.0010  0.1420  0.3361
 6874TIP3    H142113   0.914   1.928   5.709  0.3959 -0.7835 -0.0444
 6874TIP3    H242114   0.791   1.944   5.622  0.5519 -0.2439 -0.1719
 6875TIP3   OH242115   6.491   5.059  10.966 -0.0566 -0.2330  0.0641
 6875TIP3    H142116   6.501   5.148  11.001  1.4501 -0.5540  0.5657
 6875TIP3    H242117   6.429   5.067  10.895  2.8855  2.0034 -2.5364
 6876TIP3   OH242118   1.047   6.528   3.067 -0.1119 -0.2817 -0.3023
 6876TIP3    H142119   1.131   6.568   3.045  1.3897 -2.6199  0.7956
 6876TIP3    H242120   1.019   6.573   3.146  0.2050  0.3675 -0.5500
 6877TIP3   OH242121   5.992   0.566  16.539 -0.2714  0.2536  0.5007
 6877TIP3    H142122   5.972   0.578  16.446 -0.7135  0.3602  0.6064
 6877TIP3    H242123   5.927   0.620  16.584 -0.7464 -0.6465  0.9052
 6878TIP3   OH242124   5.728   2.532   2.521 -0.4323  0.9525 -0.1201
 6878TIP3    H142125   5.707   2.452   2.569  0.6747  1.3993  1.1640
 6878TIP3    H242126   5.819   2.550   2.543 -0.6202  2.5077 -0.5016
 6879TIP3   OH242127   1.752   3.933   1.543 -0.1355  0.1998 -0.1201
 6879TIP3    H142128   1.741   3.842   1.571 -0.0773 -0.4325 -2.0185
 6879TIP3    H242129   1.699   3.983   1.604 -4.4025 -1.5870 -1.9462
 6880TIP3   OH242130   6.340   6.271   0.730  0.1809 -0.1694 -0.0322
 6880TIP3    H142131   6.259   6.226   0.705  0.4500 -0.9600  0.4880
 6880TIP3    H242132   6.359   6.329   0.656  0.2160 -1.4288 -1.0304
 6881TIP3   OH242133   1.415   1.762  17.092 -0.1228  0.2662 -0.3752
 6881TIP3    H142134   1.348   1.802  17.148 -0.8293  0.4679 -1.3467
 6881TIP3    H242135   1.405   1.807  17.008  0.1508 -0.8447 -1.0109
 6882TIP3   OH242136   1.209   3.315   2.128 -0.1589 -0.0640 -0.0336
 6882TIP3    H142137   1.276   3.323   2.197  0.4036  0.8859 -0.6571
 6882TIP3    H242138   1.218   3.225   2.097 -0.1596 -0.3891  0.8659
 6883TIP3   OH242139   4.317   5.694   3.893  0.0407  0.5361  0.3336
 6883TIP3    H142140   4.382   5.758   3.922  0.6121 -0.1205  0.5444
 6883TIP3    H242141   4.239   5.712   3.946  0.5576  0.3555  1.1803
 6884TIP3   OH242142   1.873   4.564  11.809 -0.0290 -0.3764 -0.2495
 6884TIP3    H142143   1.803   4.545  11.872 -0.1667  0.2050 -0.2153
 6884TIP3    H242144   1.902   4.478  11.778 -2.4119 -0.6285 -2.0707
 6885TIP3   OH242145   0.026   5.908  12.600  0.9527 -0.2855 -0.6038
 6885TIP3    H142146   0.085   5.872  12.666 -0.3968  1.3617  1.6537
 6885TIP3    H242147  -0.006   5.831  12.552  2.0244 -1.5565  0.6346
 6886TIP3   OH242148   3.220   1.786  17.029 -0.4171  0.0224 -0.4421
 6886TIP3    H142149   3.204   1.790  17.123  0.6057 -1.6221 -0.1493
 6886TIP3    H242150   3.151   1.729  16.994 -0.4373  0.1317 -0.5821
 6887TIP3   OH242151   5.238   1.367  11.662 -0.2683  0.3397  0.5891
 6887TIP3    H142152   5.283   1.392  11.581  2.2119 -2.8207  0.7853
 6887TIP3    H242153   5.152   1.336  11.634 -0.4993  1.8326 -0.4460
 6888TIP3   OH242154   2.857   6.029   5.671 -0.5955  0.3486  0.2998
 6888TIP3    H142155   2.885   6.118   5.689  0.0570  0.1101  0.4950
 6888TIP3    H242156   2.864   5.984   5.755 -2.1854  0.4242  0.5080
 6889TIP3   OH242157   6.359   0.990   4.486  0.2113  0.2599  0.3907
 6889TIP3    H142158   6.310   1.072   4.485 -0.0355  0.1660  1.9072
 6889TIP3    H242159   6.413   0.996   4.565 -0.2452 -1.2689  0.8520
 6890TIP3   OH242160   5.513   3.443   0.469 -0.1400  0.3725  0.5301
 6890TIP3    H142161   5.451   3.435   0.396  0.4949  2.2032 -0.2646
 6890TIP3    H242162   5.459   3.473   0.542 -0.0743  3.3886 -0.5310
 6891TIP3   OH242163   0.727   4.591   5.357 -0.0344 -0.4350 -0.7993
 6891TIP3    H142164   0.679   4.673   5.371  0.0898 -0.0169 -2.5251
 6891TIP3    H242165   0.661   4.532   5.320  0.1762 -0.7097 -0.7363
 6892TIP3   OH242166   4.628   5.156  15.155 -0.1928 -0.3792  0.7144
 6892TIP3    H142167   4.557   5.120  15.208  0.1725 -1.4160  0.5409
 6892TIP3    H242168   4.681   5.079  15.132  1.5132  0.4751  1.6351
 6893TIP3   OH242169   3.172   5.420   4.766  0.3717 -0.2708  0.2326
 6893TIP3    H142170   3.151   5.360   4.695  1.2755 -0.0677 -0.2180
 6893TIP3    H242171   3.211   5.364   4.833 -0.1668 -0.4074  0.4422
 6894TIP3   OH242172   0.543   4.126   5.643  1.1359 -0.4450  0.0699
 6894TIP3    H142173   0.556   4.168   5.728  4.9038 -1.7226  0.3195
 6894TIP3    H242174   0.490   4.049   5.662 -0.6829  0.8968  0.6477
 6895TIP3   OH242175   2.549   0.222   1.687  0.2097  0.7148  0.5579
 6895TIP3    H142176   2.637   0.188   1.672 -0.2869 -0.7423  0.7741
 6895TIP3    H242177   2.539   0.223   1.782 -0.7895 -1.3237  0.5112
 6896TIP3   OH242178   1.247   0.788   5.888 -0.0796 -0.5506 -0.1298
 6896TIP3    H142179   1.335   0.768   5.919 -0.2484 -0.1728  0.6033
 6896TIP3    H242180   1.188   0.737   5.944 -0.3593 -0.2923 -0.1800
 6897TIP3   OH242181   1.340   3.579   3.254 -0.2646 -0.0424  0.0340
 6897TIP3    H142182   1.313   3.596   3.344 -1.0960 -0.2066 -0.1721
 6897TIP3    H242183   1.281   3.634   3.201 -0.4629 -0.7145 -0.4542
 6898TIP3   OH242184   0.985   2.211   1.124  0.7090 -0.5570  0.0715
 6898TIP3    H142185   0.955   2.259   1.201  0.8965 -0.0739 -0.1510
 6898TIP3    H242186   0.966   2.270   1.050  1.3946 -0.6091 -0.1557
 6899TIP3   OH242187   3.112   6.426  13.777  0.0714 -0.1992  0.2973
 6899TIP3    H142188   3.170   6.371  13.831 -2.3231 -0.2064  3.1260
 6899TIP3    H242189   3.025   6.389  13.791 -1.2339  2.4931 -0.0754
 6900TIP3   OH242190   0.814   3.008   2.972 -0.4058 -0.6584  0.8446
 6900TIP3    H142191   0.760   3.053   3.037 -0.0470  1.3876 -0.1875
 6900TIP3    H242192   0.898   3.055   2.975 -0.4590 -0.3528 -1.2105
 6901TIP3   OH242193   5.184   4.067  11.770 -0.2666 -0.6393  0.3580
 6901TIP3    H142194   5.216   4.113  11.848 -0.9723  2.5945 -1.1036
 6901TIP3    H242195   5.263   4.032  11.729  0.5116  0.5603  0.7785
 6902TIP3   OH242196   3.447   4.172   5.575 -0.4304 -0.5957  0.5530
 6902TIP3    H142197   3.365   4.185   5.526  1.3891 -0.4428 -2.7525
 6902TIP3    H242198   3.485   4.259   5.582  0.4887 -0.9392 -0.0062
 6903TIP3   OH242199   2.248   5.800   2.215 -0.0880  0.0998  0.3897
 6903TIP3    H142200   2.323   5.742   2.202  0.2463 -0.0419  2.5395
 6903TIP3    H242201   2.174   5.741   2.226  0.1406  0.0456  1.9024
 6904TIP3   OH242202   5.784   3.073  11.325  0.2584  0.5995  0.3003
 6904TIP3    H142203   5.759   3.139  11.260  0.4264  1.0095  0.6482
 6904TIP3    H242204   5.861   3.030  11.287 -0.9913 -0.7460 -0.8281
 6905TIP3   OH242205   0.888   6.619  15.505 -0.1484 -0.3163  0.2770
 6905TIP3    H142206   0.877   6.682  15.433 -0.5027 -0.2182  0.4153
 6905TIP3    H242207   0.983   6.608  15.512 -0.1154 -0.4338 -0.3008
 6906TIP3   OH242208   3.243   1.201  14.195 -0.1042 -0.0885 -0.1576
 6906TIP3    H142209   3.158   1.172  14.162 -0.3653  0.2024  0.2494
 6906TIP3    H242210   3.253   1.290  14.162 -0.9067  0.6523  1.4858
 6907TIP3   OH242211   2.242   5.481  16.815  0.0689  0.4256  0.3163
 6907TIP3    H142212   2.162   5.531  16.827 -0.6617 -0.2723 -1.3305
 6907TIP3    H242213   2.289   5.527  16.746  0.1697 -0.2216 -0.0570
 6908TIP3   OH242214   5.908   3.881   0.877  0.1389 -0.0446  0.1957
 6908TIP3    H142215   5.957   3.963   0.885  0.8211 -0.2485 -1.5528
 6908TIP3    H242216   5.820   3.903   0.908  0.3119  1.3421 -0.2231
 6909TIP3   OH242217   4.817   6.628  13.877 -0.1482  0.0052  0.6210
 6909TIP3    H142218   4.725   6.614  13.899 -0.3452 -0.1773 -0.2828
 6909TIP3    H242219   4.851   6.681  13.949 -1.0759  0.4462  0.7537
 6910TIP3   OH242220   4.564   6.298   5.361  0.4293 -0.4373  0.0592
 6910TIP3    H142221   4.487   6.324   5.412  0.7446 -2.2201  1.5769
 6910TIP3    H242222   4.529   6.277   5.275 -1.5294 -4.4001  1.5557
 6911TIP3   OH242223   4.258   2.325   4.123 -0.4960  0.1054 -0.0675
 6911TIP3    H142224   4.213   2.296   4.043 -0.3919 -0.4744  0.0737
 6911TIP3    H242225   4.270   2.244   4.173  1.6802  0.0559 -0.5879
 6912TIP3   OH242226   6.731   3.449  14.596  0.6637  0.0822  0.1128
 6912TIP3    H142227   6.686   3.473  14.515 -0.1759  1.1487  0.8509
 6912TIP3    H242228   6.820   3.481  14.584  1.0677 -1.3864 -1.0782
 6913TIP3   OH242229   0.699   6.472   6.043  0.6510 -0.8292  0.4334
 6913TIP3    H142230   0.672   6.553   5.998 -1.0902 -1.9103 -0.5906
 6913TIP3    H242231   0.741   6.503   6.123 -0.9551  1.1235  0.6259
 6914TIP3   OH242232   5.487   0.658  12.649  1.0281  0.4224  0.6997
 6914TIP3    H142233   5.463   0.581  12.700  2.3820  1.0155  2.3552
 6914TIP3    H242234   5.547   0.625  12.582 -0.3665 -0.2924 -0.2419
 6915TIP3   OH242235   4.083   3.334  15.327  0.3701 -0.0253 -0.1009
 6915TIP3    H142236   3.992   3.305  15.314  0.7467 -1.1194 -0.4428
 6915TIP3    H242237   4.083   3.377  15.412 -0.5077  0.1293 -0.1727
 6916TIP3   OH242238   1.161   2.986   5.422  0.0263  0.6954 -0.5128
 6916TIP3    H142239   1.131   3.011   5.510  0.7108  3.4121 -0.9619
 6916TIP3    H242240   1.084   3.002   5.366 -0.0280  0.1612 -0.5957
 6917TIP3   OH242241   4.492   5.853  14.333 -0.0566  0.6349  0.1704
 6917TIP3    H142242   4.461   5.867  14.244 -0.9021 -0.2935  0.2922
 6917TIP3    H242243   4.424   5.890  14.389  0.3110  0.9202  0.4348
 6918TIP3   OH242244   1.285   1.221  12.252  1.3189  0.6302  0.3526
 6918TIP3    H142245   1.265   1.139  12.206 -0.3014  1.0074  0.3197
 6918TIP3    H242246   1.350   1.264  12.197 -0.0287  0.7302 -1.2503
 6919TIP3   OH242247   0.392   0.985   4.598 -0.2860 -0.4326 -0.4708
 6919TIP3    H142248   0.436   0.930   4.533  0.3585 -0.8513  0.3036
 6919TIP3    H242249   0.317   1.022   4.551  0.5052 -0.2388 -1.6309
 6920TIP3   OH242250   5.055   6.123  16.496 -0.0437 -1.0063  0.5400
 6920TIP3    H142251   4.984   6.061  16.514 -1.6196  0.3113 -0.7381
 6920TIP3    H242252   5.054   6.133  16.401  2.0068 -1.0580  0.4884
 6921TIP3   OH242253   3.098   1.813   1.439  0.3056 -0.5226  0.2670
 6921TIP3    H142254   3.135   1.854   1.361 -0.1796 -0.3573  0.1188
 6921TIP3    H242255   3.108   1.719   1.424  0.0526 -0.4981 -0.0814
 6922TIP3   OH242256   3.918   5.638  11.107  0.5421  0.5058 -0.4403
 6922TIP3    H142257   3.844   5.698  11.095  0.1130  0.1334  0.2922
 6922TIP3    H242258   3.984   5.670  11.046 -0.3568  0.6237 -1.3921
 6923TIP3   OH242259   5.614   1.572   5.688 -0.6197 -0.1202 -0.2785
 6923TIP3    H142260   5.539   1.603   5.738  0.5869  1.9916  0.3359
 6923TIP3    H242261   5.608   1.617   5.604  0.3748  0.7095  0.0776
 6924TIP3   OH242262   0.799   6.563   6.267  0.6261 -0.2538  0.0161
 6924TIP3    H142263   0.876   6.517   6.300  1.7822  0.7801 -1.1401
 6924TIP3    H242264   0.819   6.656   6.278 -0.6623  0.0306  0.1164
 6925TIP3   OH242265   1.721   6.635   2.476  0.1426 -0.1644  0.3379
 6925TIP3    H142266   1.803   6.681   2.458  1.5011 -1.7914  2.0621
 6925TIP3    H242267   1.706   6.580   2.399 -0.8386  2.0741 -1.1856
 6926TIP3   OH242268   1.471   4.851  13.995 -0.1611  0.0517  1.2881
 6926TIP3    H142269   1.411   4.908  14.044 -0.5809  0.6263  0.1284
 6926TIP3    H242270   1.447   4.762  14.022 -0.3293  0.3569  2.1797
 6927TIP3   OH242271   2.120   2.900  15.846  0.3581 -0.2585  0.7921
 6927TIP3    H142272   2.052   2.890  15.913 -0.0978  0.3368  0.4261
 6927TIP3    H242273   2.137   2.811  15.816 -1.0948 -0.3134  0.0773
 6928TIP3   OH242274   5.924   6.125   0.823 -0.0082 -0.5762  0.1660
 6928TIP3    H142275   5.855   6.188   0.800 -0.0468 -1.1509 -1.4964
 6928TIP3    H242276   5.963   6.159   0.903  0.3981  1.9235 -1.0130
 6929TIP3   OH242277   5.410   3.473  12.741  0.3264 -0.0473  0.4130
 6929TIP3    H142278   5.342   3.541  12.740 -0.8927 -1.1732  2.0411
 6929TIP3    H242279   5.487   3.518  12.776 -0.4254  0.5588  1.3775
 6930TIP3   OH242280   4.412   2.069   3.660 -0.3388 -0.6687  0.0331
 6930TIP3    H142281   4.365   2.143   3.621  1.2130  0.0552 -0.5490
 6930TIP3    H242282   4.426   2.009   3.587  0.8677 -0.2053 -0.1460
 6931TIP3   OH242283   6.366   3.654   1.622  0.0855 -0.5271  0.6683
 6931TIP3    H142284   6.360   3.731   1.565 -1.3793 -1.2821 -0.2659
 6931TIP3    H242285   6.426   3.681   1.692 -1.6505  2.0971  1.3254
 6932TIP3   OH242286   4.098   6.452   5.348 -0.0469 -0.6735 -0.9570
 6932TIP3    H142287   4.030   6.401   5.393  0.1492  0.0391  0.2029
 6932TIP3    H242288   4.120   6.400   5.271 -0.3154 -2.0173 -0.1655
 6933TIP3   OH242289   2.130   0.827  12.192  0.0699 -0.7992  0.4753
 6933TIP3    H142290   2.209   0.858  12.236  0.1381 -2.9604  2.0073
 6933TIP3    H242291   2.058   0.863  12.244  0.1167 -1.6703  1.1502
 6934TIP3   OH242292   3.956   4.902  15.296 -0.4085  0.2096  0.2300
 6934TIP3    H142293   3.924   4.858  15.375  0.8404  0.7227  1.0511
 6934TIP3    H242294   3.876   4.922  15.246 -1.2651  0.1592  1.5095
 6935TIP3   OH242295   5.073   2.406   2.611  0.1083  0.5984  0.2828
 6935TIP3    H142296   5.011   2.454   2.666  0.6355  0.5016  0.9723
 6935TIP3    H242297   5.127   2.473   2.570 -0.0155  0.6476  0.1972
 6936TIP3   OH242298   1.950   1.368  10.827 -0.0081  0.1976 -0.1281
 6936TIP3    H142299   2.031   1.414  10.805 -0.0798  0.7293  0.6931
 6936TIP3    H242300   1.882   1.417  10.779 -0.1419  1.2549  1.0891
 6937TIP3   OH242301   0.783   0.424  15.689 -0.0954 -0.8196  0.1565
 6937TIP3    H142302   0.712   0.407  15.751 -1.9107 -0.1896 -1.6821
 6937TIP3    H242303   0.805   0.516  15.702 -0.4690 -0.6900 -0.1404
 6938TIP3   OH242304   0.317   0.310   1.901 -0.1109 -0.2707 -0.8058
 6938TIP3    H142305   0.256   0.265   1.959  0.0765  1.6792  1.0022
 6938TIP3    H242306   0.358   0.377   1.955  2.8391 -0.7474 -2.2610
 6939TIP3   OH242307   5.684   5.294   4.139  0.6038 -0.5461 -0.6349
 6939TIP3    H142308   5.694   5.212   4.187  2.3410  0.0836  0.1586
 6939TIP3    H242309   5.764   5.302   4.088  1.0508  1.2147  0.2375
 6940TIP3   OH242310   0.189   0.106  12.083  0.5440 -0.5506 -0.0194
 6940TIP3    H142311   0.210   0.038  12.147  3.3515  0.2823  0.0716
 6940TIP3    H242312   0.269   0.116  12.032 -0.6826  0.8612 -1.7590
 6941TIP3   OH242313   2.505   1.737   2.738  0.1823 -0.1969  0.2121
 6941TIP3    H142314   2.470   1.687   2.664  0.0058 -0.1535  0.2646
 6941TIP3    H242315   2.461   1.822   2.732 -0.2245 -0.3743  0.6695
 6942TIP3   OH242316   4.785   6.301   2.442 -0.7635  0.1262 -0.1278
 6942TIP3    H142317   4.747   6.286   2.355 -0.0301  1.2013 -0.6667
 6942TIP3    H242318   4.877   6.319   2.425 -0.3676 -0.7357  0.9985
 6943TIP3   OH242319   3.619   2.374  16.119 -0.4697  0.1328  0.0621
 6943TIP3    H142320   3.598   2.310  16.187 -0.0132 -0.9414 -0.7793
 6943TIP3    H242321   3.570   2.345  16.042  0.8968 -0.0913 -0.7611
 6944TIP3   OH242322   1.843   1.180   1.331 -0.0567  0.0917 -0.1674
 6944TIP3    H142323   1.889   1.111   1.283 -1.0509 -0.8404  0.1536
 6944TIP3    H242324   1.771   1.205   1.273  0.3419  0.9284 -0.3111
 6945TIP3   OH242325   5.015   0.788  12.596  0.7983  0.3268 -0.2936
 6945TIP3    H142326   5.110   0.802  12.597  0.7337  0.7901 -0.3024
 6945TIP3    H242327   4.986   0.813  12.684  0.6867  0.1468 -0.2773
 6946TIP3   OH242328   4.734   1.843   0.080 -0.0694  0.2551 -0.0232
 6946TIP3    H142329   4.681   1.798   0.014  0.6319 -0.2869 -0.2331
 6946TIP3    H242330   4.719   1.936   0.063 -2.0482  0.1448  0.8313
 6947TIP3   OH242331   5.364   0.117  16.248 -0.3215  0.4518  0.3917
 6947TIP3    H142332   5.453   0.091  16.270 -1.0337 -1.0479  1.6858
 6947TIP3    H242333   5.359   0.108  16.153  1.1316  1.3750  0.1977
 6948TIP3   OH242334   0.243   1.555   6.240  0.2816  0.0101 -0.3321
 6948TIP3    H142335   0.232   1.460   6.237  3.6817 -0.5059 -0.6393
 6948TIP3    H242336   0.230   1.584   6.150  0.2129 -0.3120 -0.4266
 6949TIP3   OH242337   4.667   5.532   3.318 -0.0036 -0.2265 -0.1722
 6949TIP3    H142338   4.584   5.570   3.290  0.5348  0.8706 -0.3139
 6949TIP3    H242339   4.673   5.550   3.411 -0.4180 -1.2664  0.0661
 6950TIP3   OH242340   5.444   4.747   5.888  0.0312 -0.0129 -0.6361
 6950TIP3    H142341   5.441   4.683   5.959  0.5339  0.7860  0.1340
 6950TIP3    H242342   5.481   4.699   5.814 -0.4005 -0.8319 -0.3415
 6951TIP3   OH242343   3.709   3.310   1.197 -0.5680  0.2322  0.6122
 6951TIP3    H142344   3.615   3.311   1.180 -0.7587 -2.3291  1.0790
 6951TIP3    H242345   3.716   3.291   1.291  0.3989 -0.3037  0.4473
 6952TIP3   OH242346   3.312   1.136   2.770 -0.4309 -0.0854  0.0125
 6952TIP3    H142347   3.313   1.232   2.769  0.6273 -0.0722  0.4737
 6952TIP3    H242348   3.243   1.113   2.832 -0.0998  0.4071  0.5843
 6953TIP3   OH242349   0.818   1.009   5.623  0.3721 -0.0188  0.2396
 6953TIP3    H142350   0.841   1.005   5.716 -0.7606  0.8804  0.5745
 6953TIP3    H242351   0.883   1.067   5.585  1.5549 -1.2937  0.2087
 6954TIP3   OH242352   6.787   1.498   4.501 -0.4160 -0.3073 -0.0008
 6954TIP3    H142353   6.800   1.440   4.426 -0.1707  0.0264 -0.2239
 6954TIP3    H242354   6.865   1.554   4.501  0.0872 -0.9908  1.1361
 6955TIP3   OH242355   0.369   6.212   0.973  0.0986 -0.0337  0.5255
 6955TIP3    H142356   0.358   6.225   1.067 -0.4876  0.3272  0.4105
 6955TIP3    H242357   0.280   6.209   0.938  0.3092  1.8490 -0.2836
 6956TIP3   OH242358   4.261   3.658   0.926  0.4935 -0.1594  0.0666
 6956TIP3    H142359   4.263   3.592   0.857  0.9486 -0.8921  0.7584
 6956TIP3    H242360   4.268   3.608   1.008 -0.3453  0.6581  0.6724
 6957TIP3   OH242361   4.974   4.983  13.080 -0.0452  0.2208 -0.6366
 6957TIP3    H142362   4.880   4.974  13.063  0.0220  1.4587 -1.9092
 6957TIP3    H242363   4.981   5.054  13.143 -0.0186 -0.9494  0.7207
 6958TIP3   OH242364   5.632   2.316   1.015 -0.2607  0.6744 -1.3351
 6958TIP3    H142365   5.551   2.266   1.006 -0.2346  0.6624 -1.5189
 6958TIP3    H242366   5.618   2.393   0.958 -0.2846  0.8526 -1.0898
 6959TIP3   OH242367   3.342   0.919   3.551 -0.2773 -0.1296  0.2975
 6959TIP3    H142368   3.300   0.870   3.481 -1.6942  1.4382 -0.0099
 6959TIP3    H242369   3.346   0.857   3.625 -1.1469 -0.9838 -0.3467
 6960TIP3   OH242370   0.201   0.551   0.192  0.0859  0.7267  0.4726
 6960TIP3    H142371   0.164   0.510   0.269  1.8206  1.7537  1.9380
 6960TIP3    H242372   0.254   0.482   0.150  1.3110  0.8453  1.7535
 6961TIP3   OH242373   3.127   1.788  16.096  0.2230 -0.2902  0.0318
 6961TIP3    H142374   3.056   1.724  16.090  1.2423 -1.3051 -2.3127
 6961TIP3    H242375   3.207   1.735  16.096  1.0641  0.9379 -0.4917
 6962TIP3   OH242376   0.769   0.595  14.845  0.0448 -0.1386 -0.9499
 6962TIP3    H142377   0.837   0.579  14.780  1.1550  0.2038  0.0856
 6962TIP3    H242378   0.754   0.510  14.887  2.9978  0.4749  1.7480
 6963TIP3   OH242379   2.265   0.356   4.106  0.1484  0.2084 -0.3867
 6963TIP3    H142380   2.212   0.307   4.169 -0.7981 -0.0303 -1.3325
 6963TIP3    H242381   2.222   0.441   4.098 -3.8119 -1.7208 -5.3294
 6964TIP3   OH242382   5.361   4.778  13.558 -0.1161 -0.1962  0.1511
 6964TIP3    H142383   5.326   4.826  13.632  0.7398 -0.6323  0.8589
 6964TIP3    H242384   5.306   4.803  13.484 -0.0326  1.4412  0.6166
 6965TIP3   OH242385   1.988   3.592   5.252  0.0866 -0.0410  0.1183
 6965TIP3    H142386   1.902   3.570   5.287  0.4136  0.7901  1.5226
 6965TIP3    H242387   2.034   3.508   5.247 -0.5052 -0.3765  0.1746
 6966TIP3   OH242388   5.429   0.241  11.417  0.0082 -0.2768  0.2881
 6966TIP3    H142389   5.423   0.310  11.483 -0.8172  0.8993 -0.9726
 6966TIP3    H242390   5.436   0.287  11.334 -1.7231 -1.6579 -0.7181
 6967TIP3   OH242391   5.639   0.817  11.192 -0.0926  0.0954 -0.0942
 6967TIP3    H142392   5.624   0.722  11.197  0.0052 -0.0063 -1.4571
 6967TIP3    H242393   5.707   0.833  11.258 -1.8466 -0.3652  1.9409
 6968TIP3   OH242394   0.550   5.194   0.112 -0.3310 -0.4161 -0.0823
 6968TIP3    H142395   0.638   5.158   0.108 -1.0337 -2.3114  0.2584
 6968TIP3    H242396   0.520   5.175   0.201 -0.3592  2.1213  0.5276
 6969TIP3   OH242397   3.013   5.133   5.938  0.0242  0.0720 -0.5251
 6969TIP3    H142398   3.092   5.180   5.910 -0.7872  1.4111 -0.5999
 6969TIP3    H242399   2.940   5.185   5.906 -0.9200 -0.4204  0.7240
 6970TIP3   OH242400   0.659   3.022   3.370  0.0092  0.3141  0.3410
 6970TIP3    H142401   0.608   3.045   3.448  0.4204  0.6006  0.5323
 6970TIP3    H242402   0.594   2.993   3.306 -0.5448  1.9212  0.1209
 6971TIP3   OH242403   4.702   6.540  17.107 -0.6595  0.6135 -0.2358
 6971TIP3    H142404   4.742   6.539  17.020 -1.0511  1.2286 -0.4275
 6971TIP3    H242405   4.610   6.521  17.092 -0.4048 -1.2388  0.2532
 6972TIP3   OH242406   3.502   5.634  13.188 -0.0097  0.3767 -0.2188
 6972TIP3    H142407   3.584   5.656  13.144 -0.4756 -0.1545 -1.3806
 6972TIP3    H242408   3.436   5.690  13.147 -0.5799 -0.6582 -0.7338
 6973TIP3   OH242409   6.653   3.518  12.715  1.1151 -0.4353 -0.3167
 6973TIP3    H142410   6.738   3.533  12.673  0.3237  0.6827 -1.6006
 6973TIP3    H242411   6.614   3.605  12.723 -0.1554 -0.9860 -0.3030
 6974TIP3   OH242412   0.034   0.274   1.668 -0.1798 -0.1380 -0.3321
 6974TIP3    H142413   0.023   0.180   1.652 -0.0362 -0.2339  0.1314
 6974TIP3    H242414   0.062   0.309   1.583 -0.3774 -0.4872 -0.5470
 6975TIP3   OH242415   5.602   5.977  14.335 -0.1172 -0.5138 -0.0089
 6975TIP3    H142416   5.542   5.951  14.404 -1.2880 -0.0571 -0.8211
 6975TIP3    H242417   5.577   6.067  14.313  0.5843 -0.4589 -0.6528
 6976TIP3   OH242418   5.073   6.647  12.353  0.5374  0.6575  0.4652
 6976TIP3    H142419   5.152   6.633  12.406 -0.3596  0.3006  1.7552
 6976TIP3    H242420   5.034   6.560  12.345 -0.9930  1.1662  1.9288
 6977TIP3   OH242421   0.731   4.497   5.694 -0.3167 -0.5651  0.2613
 6977TIP3    H142422   0.722   4.571   5.634  1.3862  2.1111  3.0502
 6977TIP3    H242423   0.640   4.470   5.710 -1.0392  1.1273 -0.6085
 6978TIP3   OH242424   2.066   0.579   0.879  0.1195  0.2209  0.1510
 6978TIP3    H142425   2.123   0.555   0.806 -0.5836 -0.8922 -0.0547
 6978TIP3    H242426   2.005   0.506   0.886 -1.8449  1.7498 -0.2106
 6979TIP3   OH242427   6.666   3.595   4.431  0.5568  0.2675  0.1501
 6979TIP3    H142428   6.717   3.515   4.441  1.4697  1.1180  3.5073
 6979TIP3    H242429   6.718   3.650   4.372  3.2064  0.7118  2.6833
 6980TIP3   OH242430   3.096   5.258   2.774  0.5190 -0.4327 -0.3539
 6980TIP3    H142431   3.022   5.246   2.714 -0.8107  1.0191  0.9138
 6980TIP3    H242432   3.090   5.183   2.834 -0.0954 -0.1798 -0.0924
 6981TIP3   OH242433   6.440   1.484   5.146  0.2952 -0.2453 -0.1733
 6981TIP3    H142434   6.364   1.517   5.194 -1.2114  1.0449 -3.2223
 6981TIP3    H242435   6.503   1.556   5.146  0.0594 -0.0343 -0.5666
 6982TIP3   OH242436   0.402   0.546  15.988  0.1036 -0.2814 -0.0054
 6982TIP3    H142437   0.316   0.512  16.010 -0.2031  0.2989 -0.2720
 6982TIP3    H242438   0.384   0.628  15.941  0.7452 -1.0383 -1.6612
 6983TIP3   OH242439   0.247   4.573   3.617  0.0682 -0.0510 -0.0578
 6983TIP3    H142440   0.233   4.565   3.712  1.8972  1.3363  0.3786
 6983TIP3    H242441   0.162   4.604   3.584  0.1482  2.2477  1.5847
 6984TIP3   OH242442   6.402   6.042  15.588 -0.4700  0.1071  0.6918
 6984TIP3    H142443   6.417   6.058  15.495  0.6248  0.5701  0.9278
 6984TIP3    H242444   6.463   6.101  15.632  0.1682 -1.2308  1.6730
 6985TIP3   OH242445   6.474   6.093  10.383 -0.5668  0.3164  0.8782
 6985TIP3    H142446   6.472   6.103  10.478 -0.4642  0.8192  0.8299
 6985TIP3    H242447   6.541   6.026  10.366  0.5417  1.3474  1.0691
 6986TIP3   OH242448   4.101   5.717   3.169 -0.1943  0.2397 -0.1315
 6986TIP3    H142449   4.157   5.640   3.173 -0.9672 -0.4386 -1.6655
 6986TIP3    H242450   4.041   5.708   3.243  0.6425  0.1166  0.5379
 6987TIP3   OH242451   3.601   0.130  14.654  0.6593  0.7078 -0.0192
 6987TIP3    H142452   3.512   0.137  14.688  0.9950  0.6807  0.9049
 6987TIP3    H242453   3.594   0.155  14.562 -0.4245 -0.0078 -0.1454
 6988TIP3   OH242454   1.116   3.544   0.400 -0.5645  0.0972 -0.4815
 6988TIP3    H142455   1.149   3.456   0.413 -1.1949 -0.1119 -0.2790
 6988TIP3    H242456   1.035   3.532   0.351 -0.7570  0.5517 -0.2787
 6989TIP3   OH242457   0.956   1.687   3.483 -0.1990  0.0561 -0.7148
 6989TIP3    H142458   0.975   1.780   3.482 -1.0822  0.2485 -0.2464
 6989TIP3    H242459   0.898   1.674   3.558 -1.2616 -0.6267 -1.6227
 6990TIP3   OH242460   5.252   0.867  10.760 -0.3843 -0.0831 -0.5377
 6990TIP3    H142461   5.206   0.915  10.692 -1.9755  0.8269  1.0821
 6990TIP3    H242462   5.274   0.783  10.721 -1.7651  0.1922 -1.9810
 6991TIP3   OH242463   2.580   4.662  15.687  0.4086 -0.2776  0.3344
 6991TIP3    H142464   2.510   4.708  15.640  2.0408 -0.3192 -2.3181
 6991TIP3    H242465   2.604   4.720  15.758 -0.3501  1.1000 -0.4961
 6992TIP3   OH242466   2.475   2.837   2.960 -0.3582  0.2102  0.0976
 6992TIP3    H142467   2.513   2.835   3.048 -2.3906 -1.8051  1.0364
 6992TIP3    H242468   2.445   2.927   2.948 -0.3425  0.4391  1.6330
 6993TIP3   OH242469   6.523   4.597  15.305 -0.0477 -0.3153  0.4604
 6993TIP3    H142470   6.486   4.636  15.226  0.1585  0.0369  0.5358
 6993TIP3    H242471   6.527   4.669  15.368  2.6459  0.2161 -0.1748
 6994TIP3   OH242472   2.051   4.718  14.116 -0.0339  0.2638  0.2242
 6994TIP3    H142473   2.005   4.768  14.183  0.9212  0.1312  0.9934
 6994TIP3    H242474   1.989   4.650  14.089 -1.2276  1.6255 -0.6045
 6995TIP3   OH242475   2.583   0.151  13.173 -0.0094  0.3427  0.3140
 6995TIP3    H142476   2.597   0.118  13.084  2.6507  1.5776  0.1862
 6995TIP3    H242477   2.584   0.073  13.228 -1.4138 -0.4165 -0.6535
 6996TIP3   OH242478   3.271   1.659   5.286 -0.0330  0.5136  0.3201
 6996TIP3    H142479   3.363   1.635   5.278 -0.5395 -1.7570  0.8327
 6996TIP3    H242480   3.262   1.689   5.376 -0.0582 -0.5450  0.6757
 6997TIP3   OH242481   4.440   3.048   1.813 -0.2161  0.5587 -0.3214
 6997TIP3    H142482   4.474   2.977   1.868  0.3297  0.2560 -1.0374
 6997TIP3    H242483   4.363   3.009   1.770 -0.7595  0.8572  0.3656
 6998TIP3   OH242484   5.558   4.004   0.707 -0.2709 -0.1141  0.3005
 6998TIP3    H142485   5.546   3.959   0.623 -0.8671  1.2751 -0.3868
 6998TIP3    H242486   5.513   3.948   0.770 -0.9848 -0.5081 -0.5290
 6999TIP3   OH242487   1.176   3.220   5.669  0.0557 -0.5356  0.2377
 6999TIP3    H142488   1.081   3.236   5.668 -0.0537 -1.1427 -1.2888
 6999TIP3    H242489   1.215   3.306   5.657 -0.3791 -0.4931 -1.0931
 7000TIP3   OH242490   1.857   2.001  13.611  0.0195 -0.3805 -0.4323
 7000TIP3    H142491   1.920   1.937  13.578  0.2816 -0.9106  1.0508
 7000TIP3    H242492   1.783   1.948  13.642  0.5904 -0.0584  1.5704
 7001TIP3   OH242493   0.618   0.376  15.925 -0.2025 -0.0415  0.4047
 7001TIP3    H142494   0.563   0.299  15.944  1.1117 -0.3464  3.6283
 7001TIP3    H242495   0.563   0.451  15.949 -1.0129  0.0047 -1.4692
 7002TIP3   OH242496   2.527   4.211   0.281 -0.0337  0.4042  0.1731
 7002TIP3    H142497   2.507   4.233   0.372  3.5643 -0.1029  1.2182
 7002TIP3    H242498   2.501   4.119   0.272  3.1318 -0.7931  2.0214
 7003TIP3   OH242499   6.366   0.195   6.211  0.3630 -0.2105  0.0850
 7003TIP3    H142500   6.281   0.151   6.213  1.6937 -2.9641  1.7827
 7003TIP3    H242501   6.423   0.135   6.162  1.7632  0.6761  0.5823
 7004TIP3   OH242502   5.457   0.047  12.747 -0.2484 -0.2261 -0.4422
 7004TIP3    H142503   5.540   0.016  12.782 -0.7164 -1.8643 -0.7037
 7004TIP3    H242504   5.478   0.131  12.706  0.6645  0.8510  2.0594
 7005TIP3   OH242505   3.645   1.070  14.941  0.3444  0.6275 -0.1318
 7005TIP3    H142506   3.657   1.006  14.871  0.0128  1.2602 -0.7755
 7005TIP3    H242507   3.704   1.041  15.010  1.0737  0.2942 -0.8838
 7006TIP3   OH242508   3.125   6.232  12.464 -0.0204 -0.0134  0.0122
 7006TIP3    H142509   3.124   6.224  12.368 -0.0224  0.3599 -0.0188
 7006TIP3    H242510   3.157   6.320  12.481  0.2895 -0.1909  0.3674
 7007TIP3   OH242511   3.080   6.287  16.982 -0.8484  1.0088  0.4327
 7007TIP3    H142512   3.170   6.313  16.999 -0.3352 -0.1406 -0.4102
 7007TIP3    H242513   3.054   6.239  17.061 -0.5360  0.8524  0.4405
 7008TIP3   OH242514   6.138   0.060   0.251  0.4498 -0.6071  0.1014
 7008TIP3    H142515   6.231   0.057   0.273  0.6934  1.5482 -0.4164
 7008TIP3    H242516   6.096   0.006   0.319  1.9304 -0.5486  1.1242
 7009TIP3   OH242517   1.042   1.308   0.164 -0.1475 -0.6269  0.2538
 7009TIP3    H142518   1.061   1.379   0.102 -2.0767  0.2631  0.6126
 7009TIP3    H242519   1.114   1.313   0.227  1.7037 -1.3661 -1.6817
 7010TIP3   OH242520   0.818   3.852   1.124 -0.1033  0.5865 -0.1676
 7010TIP3    H142521   0.788   3.933   1.084  0.3634  1.3170  0.9005
 7010TIP3    H242522   0.839   3.795   1.051 -0.6764  1.3413 -0.9372
 7011TIP3   OH242523   1.711   5.172   5.340 -0.5182 -0.1123 -0.1373
 7011TIP3    H142524   1.801   5.164   5.309 -0.8476  1.1376 -1.5268
 7011TIP3    H242525   1.709   5.121   5.421  0.9568 -1.6747 -1.0210
 7012TIP3   OH242526   5.049   2.709  15.087  0.3554  0.9433  0.4565
 7012TIP3    H142527   5.134   2.665  15.091 -0.4159 -0.6093  0.8257
 7012TIP3    H242528   4.999   2.658  15.023 -0.3226  1.7806  0.3063
 7013TIP3   OH242529   5.561   6.407  15.202  0.1576  0.2267  0.5077
 7013TIP3    H142530   5.486   6.433  15.256  0.5945 -1.0545  1.7817
 7013TIP3    H242531   5.567   6.312  15.214  1.5596  0.2226 -0.1412
 7014TIP3   OH242532   3.358   5.631   5.448 -0.5152 -0.6265 -0.5628
 7014TIP3    H142533   3.453   5.632   5.435 -0.3040 -2.3664  0.4251
 7014TIP3    H242534   3.327   5.711   5.407  1.5554  0.7618  0.4039
 7015TIP3   OH242535   6.437   3.087   5.053 -0.1974  0.0956 -0.2365
 7015TIP3    H142536   6.369   3.147   5.085  0.8839  0.0800  2.3688
 7015TIP3    H242537   6.440   3.103   4.959 -2.0595  1.8908 -0.0822
 7016TIP3   OH242538   1.265   6.047  14.032  0.7801 -0.0486 -0.0796
 7016TIP3    H142539   1.253   6.106  14.107  1.8164  1.5134 -1.0964
 7016TIP3    H242540   1.196   5.982  14.043  1.0668 -0.0591  2.3891
 7017TIP3   OH242541   5.610   3.517   0.827 -0.1270  0.3074  0.1814
 7017TIP3    H142542   5.699   3.536   0.796  0.3325 -0.0925  1.2009
 7017TIP3    H242543   5.578   3.600   0.860 -0.2671  0.5292 -0.4967
 7018TIP3   OH242544   5.279   1.285   3.133  0.7097 -0.1697  0.3328
 7018TIP3    H142545   5.283   1.368   3.180  1.1380  0.5008 -0.8543
 7018TIP3    H242546   5.205   1.239   3.172  0.9511  0.4234  1.5392
 7019TIP3   OH242547   5.285   3.607  15.169 -0.1384 -0.4671  0.0286
 7019TIP3    H142548   5.212   3.666  15.191 -0.3421 -0.6579 -0.1372
 7019TIP3    H242549   5.321   3.581  15.254 -0.5739 -0.7619  0.1257
 7020TIP3   OH242550   1.023   4.799   3.858 -0.3840  0.6812  0.2205
 7020TIP3    H142551   0.996   4.736   3.925 -0.7347  0.1509 -0.4072
 7020TIP3    H242552   0.980   4.769   3.778  2.0715 -0.2540 -0.8543
 7021TIP3   OH242553   1.910   5.516   1.368 -0.0027  0.3603 -0.0464
 7021TIP3    H142554   1.839   5.470   1.323 -0.0298 -1.7220  1.9255
 7021TIP3    H242555   1.878   5.606   1.377 -1.4922 -0.0235 -1.0159
 7022TIP3   OH242556   6.057   5.011   1.746 -0.0807 -0.1240 -0.3381
 7022TIP3    H142557   6.069   4.926   1.789 -0.3460  0.3743  0.7555
 7022TIP3    H242558   5.998   5.059   1.805  0.5692  1.0526 -0.6237
 7023TIP3   OH242559   0.550   4.659  13.119 -0.8548  0.0265 -0.1486
 7023TIP3    H142560   0.524   4.622  13.035  1.6154  0.4123 -1.1921
 7023TIP3    H242561   0.616   4.725  13.096 -0.3779  0.4020  2.0673
 7024TIP3   OH242562   4.904   5.752   3.773 -0.0048 -0.1861  1.0075
 7024TIP3    H142563   4.957   5.693   3.826  1.1746 -0.1735 -0.0986
 7024TIP3    H242564   4.859   5.694   3.711  0.2313 -0.0358  0.6917
 7025TIP3   OH242565   5.194   5.109  11.884  0.0595  0.2588  0.0408
 7025TIP3    H142566   5.155   5.169  11.948  1.3760 -1.0477  2.1986
 7025TIP3    H242567   5.256   5.163  11.835  2.2687  0.5362  2.8690
 7026TIP3   OH242568   1.892   1.776  15.544  0.2929 -0.0183  0.3752
 7026TIP3    H142569   1.884   1.686  15.513  1.0183  0.3429 -0.9453
 7026TIP3    H242570   1.802   1.808  15.548  0.0770 -0.5801  0.1643
 7027TIP3   OH242571   4.132   6.742   2.605  0.6655 -0.0874  0.2845
 7027TIP3    H142572   4.108   6.741   2.698  0.5484 -0.2997  0.2524
 7027TIP3    H242573   4.048   6.747   2.559  0.7898  2.5463  0.2218
 7028TIP3   OH242574   1.028   2.850  13.301  0.2268  0.1928  0.0884
 7028TIP3    H142575   0.938   2.883  13.305  0.8716  1.9404  0.8186
 7028TIP3    H242576   1.075   2.915  13.249  1.0232 -0.8910 -0.5967
 7029TIP3   OH242577   1.153   4.942   0.408 -0.0916 -0.2007  0.1802
 7029TIP3    H142578   1.236   4.937   0.361 -0.7425  0.3088 -1.0785
 7029TIP3    H242579   1.161   5.020   0.462  0.2065 -0.0745 -0.0382
 7030TIP3   OH242580   5.874   4.069   6.365 -0.3584 -0.5746  0.2618
 7030TIP3    H142581   5.861   4.164   6.368 -0.7465 -0.6568  1.7527
 7030TIP3    H242582   5.915   4.053   6.279  0.7075  1.0457  0.4291
 7031TIP3   OH242583   6.343   4.715   5.451 -0.1039  0.3834 -0.4082
 7031TIP3    H142584   6.269   4.675   5.496  0.5706 -0.3532  0.0823
 7031TIP3    H242585   6.389   4.764   5.518  0.4097  0.0081 -0.4758
 7032TIP3   OH242586   1.982   1.129   1.794  0.4708 -0.2626 -0.8778
 7032TIP3    H142587   1.890   1.113   1.814  0.7311  0.3021  0.9301
 7032TIP3    H242588   2.016   1.172   1.872  2.1275  0.1012 -1.7661
 7033TIP3   OH242589   1.366   6.666   4.231  0.8158  0.3677 -0.1911
 7033TIP3    H142590   1.352   6.625   4.316  0.8599 -0.4808 -0.5822
 7033TIP3    H242591   1.310   6.743   4.232 -0.5030 -0.5549 -0.0274
 7034TIP3   OH242592   2.155   4.440   0.799 -0.3937 -0.2745 -0.4136
 7034TIP3    H142593   2.214   4.368   0.775 -0.1740  0.0344 -0.7987
 7034TIP3    H242594   2.213   4.513   0.821 -0.6289  0.0042 -0.7127
 7035TIP3   OH242595   2.677   2.991   0.491 -0.1352 -0.0136  0.2174
 7035TIP3    H142596   2.712   3.040   0.566 -0.6169 -0.0061  0.4392
 7035TIP3    H242597   2.665   3.057   0.423  0.2747 -0.0153  0.1401
 7036TIP3   OH242598   4.789   0.417   6.009  0.1688 -0.3438 -0.1297
 7036TIP3    H142599   4.823   0.498   6.046  0.0405  0.2860 -1.3393
 7036TIP3    H242600   4.789   0.355   6.082  3.0951 -0.1556  0.1251
 7037TIP3   OH242601   3.098   3.128   0.272 -0.1814  0.1845  0.2402
 7037TIP3    H142602   3.192   3.147   0.270  0.3622 -2.1818 -0.1084
 7037TIP3    H242603   3.060   3.196   0.327  1.8742  0.6496  1.1572
 7038TIP3   OH242604   6.793   1.297  12.469  0.4160 -0.1534  0.0684
 7038TIP3    H142605   6.726   1.258  12.414 -0.4537  0.4880  0.6473
 7038TIP3    H242606   6.861   1.230  12.475  0.0795 -0.6178 -0.9489
 7039TIP3   OH242607   4.508   2.208   5.696  0.3824  0.2846 -0.1987
 7039TIP3    H142608   4.454   2.196   5.617  0.2147 -0.1552 -0.0228
 7039TIP3    H242609   4.565   2.282   5.675  2.2064 -1.4320 -1.7689
 7040TIP3   OH242610   2.083   1.619  12.044  0.2564  0.1387  0.0431
 7040TIP3    H142611   1.990   1.641  12.038  0.2516 -0.2285 -1.6929
 7040TIP3    H242612   2.128   1.703  12.037  0.0864  0.1804 -0.6107
 7041TIP3   OH242613   0.027   5.421   2.152  0.6561  0.1058  0.5247
 7041TIP3    H142614   0.011   5.366   2.075  1.4505 -1.2494  1.2857
 7041TIP3    H242615  -0.056   5.466   2.166 -0.1994 -1.2906  0.1590
 7042TIP3   OH242616   2.738   0.151  11.965  0.5592  0.2518 -0.3586
 7042TIP3    H142617   2.748   0.202  12.046 -0.4579 -0.3669  0.1738
 7042TIP3    H242618   2.776   0.207  11.897 -1.3151  2.1542  0.0460
 7043TIP3   OH242619   1.563   6.790  11.853  0.5082 -0.2060  0.2441
 7043TIP3    H142620   1.558   6.860  11.788  2.0193  1.3055  1.6460
 7043TIP3    H242621   1.546   6.834  11.937 -0.8271 -1.9814  0.9794
 7044TIP3   OH242622   3.601   0.127   6.049 -0.3031 -0.0377  0.5991
 7044TIP3    H142623   3.552   0.171   6.119  0.2279 -0.2608  1.1167
 7044TIP3    H242624   3.664   0.072   6.095  1.2950  1.1609 -0.0340
 7045TIP3   OH242625   0.243   2.061  11.398  0.2399  0.1624  0.7236
 7045TIP3    H142626   0.197   2.144  11.410 -0.1462 -0.2540  2.3340
 7045TIP3    H242627   0.334   2.079  11.423  1.2534  1.1512 -3.0667
 7046TIP3   OH242628   6.620   2.333  11.818  0.2367 -0.7114 -0.2919
 7046TIP3    H142629   6.623   2.303  11.727 -0.0329 -1.6221 -0.0068
 7046TIP3    H242630   6.543   2.290  11.855 -1.2612  1.7378 -0.3369
 7047TIP3   OH242631   2.432   5.373   3.304  0.1542  0.4435 -0.2238
 7047TIP3    H142632   2.338   5.369   3.284 -0.0273 -2.4467  0.6725
 7047TIP3    H242633   2.447   5.295   3.358  3.4885 -0.4075 -2.1411
 7048TIP3   OH242634   2.681   6.208   5.169 -0.6806  0.1450 -0.2483
 7048TIP3    H142635   2.691   6.121   5.206 -0.7416  0.7503  1.2298
 7048TIP3    H242636   2.764   6.252   5.187 -1.8271  1.4984  2.0890
 7049TIP3   OH242637   2.126   5.773  10.742 -0.3558  0.0684  0.2083
 7049TIP3    H142638   2.209   5.810  10.712 -0.0444  0.6710  1.7253
 7049TIP3    H242639   2.150   5.693  10.788 -0.4098  1.0031  1.9572
 7050TIP3   OH242640   2.485   2.045  15.567  0.5156  0.4267  0.0294
 7050TIP3    H142641   2.464   1.963  15.611 -2.2016 -0.4066 -2.5390
 7050TIP3    H242642   2.439   2.112  15.618  1.9921  0.3235  1.5975
 7051TIP3   OH242643   2.938   6.697   4.485  0.0891  0.1643  0.0926
 7051TIP3    H142644   2.986   6.614   4.482  0.0607  0.1582 -2.6267
 7051TIP3    H242645   2.984   6.749   4.551  0.8523 -1.5559  0.9817
 7052TIP3   OH242646   5.654   2.266  13.817 -0.0914  0.5672  0.0610
 7052TIP3    H142647   5.738   2.312  13.806  0.4620 -0.0163  1.6454
 7052TIP3    H242648   5.602   2.295  13.742  0.6619  2.8304  0.3351
 7053TIP3   OH242649   4.611   5.055  11.572  0.0103  0.0413 -0.2248
 7053TIP3    H142650   4.682   5.004  11.532 -1.0300 -2.2124  0.6486
 7053TIP3    H242651   4.574   5.105  11.499  1.5293  0.1254 -0.9879
 7054TIP3   OH242652   1.053   2.330  16.389 -0.2017 -0.7003  0.2487
 7054TIP3    H142653   1.112   2.300  16.459 -1.0507 -1.3612  0.6960
 7054TIP3    H242654   1.038   2.422  16.409 -0.0560 -0.7618  0.6646
 7055TIP3   OH242655   0.371   0.475  13.884  0.5635 -0.1601  0.4591
 7055TIP3    H142656   0.393   0.566  13.901  0.0870 -0.1360  0.9927
 7055TIP3    H242657   0.454   0.434  13.859  0.8086  0.3798  0.3791
 7056TIP3   OH242658   0.164   1.495   3.874 -0.3121 -0.5333 -0.2174
 7056TIP3    H142659   0.101   1.544   3.927  1.2461  0.4532  0.8182
 7056TIP3    H242660   0.193   1.424   3.932 -1.1643 -1.5964 -1.0466
 7057TIP3   OH242661   0.508   3.924  13.965  0.0350  0.5587 -0.3406
 7057TIP3    H142662   0.546   3.940  14.052  0.9342 -1.9498 -0.1932
 7057TIP3    H242663   0.422   3.884  13.983 -0.1933  0.9102 -0.6287
 7058TIP3   OH242664   0.696   4.673   3.668 -0.4939 -0.3554 -0.2418
 7058TIP3    H142665   0.706   4.768   3.669 -0.1532 -0.3942  0.3435
 7058TIP3    H242666   0.691   4.648   3.760  0.4037 -0.9999 -0.3483
 7059TIP3   OH242667   5.308   4.806   1.374 -0.2800 -0.2267  0.1442
 7059TIP3    H142668   5.274   4.808   1.464  0.5774 -1.2597  0.5267
 7059TIP3    H242669   5.317   4.713   1.355 -0.2222 -0.0068 -0.9367
 7060TIP3   OH242670   1.390   2.549   2.506 -0.0013  0.1660 -0.0293
 7060TIP3    H142671   1.466   2.581   2.555  0.6421  0.5274 -1.2104
 7060TIP3    H242672   1.407   2.455   2.495 -0.0937  0.1049  0.3422
 7061TIP3   OH242673   4.432   3.889  15.827  0.1182 -0.2565 -0.2650
 7061TIP3    H142674   4.342   3.907  15.854 -0.2364 -1.2474 -0.7427
 7061TIP3    H242675   4.459   3.815  15.882  1.3288  1.1843  1.2158
 7062TIP3   OH242676   3.404   0.173  13.607 -0.7117  0.1089 -0.0249
 7062TIP3    H142677   3.386   0.221  13.688 -1.2644  0.7144 -0.5023
 7062TIP3    H242678   3.491   0.135  13.622 -0.9821 -0.1420  1.0181
 7063TIP3   OH242679   3.909   1.142  16.460  0.0292 -0.2745 -0.0307
 7063TIP3    H142680   3.831   1.198  16.466  1.3341  1.7222 -0.9147
 7063TIP3    H242681   3.974   1.185  16.516  0.5707 -1.8607  0.6162
 7064TIP3   OH242682   4.722   3.795  15.201 -0.4812 -0.1497 -0.1326
 7064TIP3    H142683   4.739   3.722  15.142 -1.2946 -1.9991  1.7980
 7064TIP3    H242684   4.631   3.819  15.183 -1.1027 -1.4638  1.0544
 7065TIP3   OH242685   4.588   0.376  12.735  0.1468  0.2311  0.3767
 7065TIP3    H142686   4.642   0.318  12.681 -0.7040 -0.8824  0.7182
 7065TIP3    H242687   4.519   0.406  12.676  0.5728  0.9146  0.2057
 7066TIP3   OH242688   4.992   5.197  13.274 -0.2523 -0.3153 -0.1196
 7066TIP3    H142689   4.923   5.263  13.276 -0.2260 -0.1958 -1.9308
 7066TIP3    H242690   5.067   5.240  13.314 -0.0306  1.0462 -1.8863
 7067TIP3   OH242691   2.064   4.681   2.851  0.4012  0.3371 -0.1101
 7067TIP3    H142692   2.053   4.674   2.946 -0.8139  1.1290 -0.1673
 7067TIP3    H242693   2.082   4.592   2.823  2.1819  0.2794  0.9921
 7068TIP3   OH242694   4.790   2.489  13.255 -0.4436 -0.3069  0.0774
 7068TIP3    H142695   4.762   2.580  13.248  0.8938  0.3048  1.8724
 7068TIP3    H242696   4.767   2.463  13.344  2.1677 -0.6023  0.7581
 7069TIP3   OH242697   6.351   0.749   5.250  0.2902  0.4938 -0.6962
 7069TIP3    H142698   6.437   0.783   5.225 -0.1614  0.4402 -2.5273
 7069TIP3    H242699   6.368   0.658   5.275  0.7295  0.3297 -1.5327
 7070TIP3   OH242700   4.044   0.312   5.236  0.8126 -0.3918 -0.0793
 7070TIP3    H142701   4.126   0.288   5.280 -1.3021 -2.0797  3.4116
 7070TIP3    H242702   3.998   0.366   5.300 -0.3181  1.7579 -2.5118
 7071TIP3   OH242703   1.864   6.682  15.518 -0.0037  0.0968 -0.3026
 7071TIP3    H142704   1.861   6.587  15.517  0.1053  0.0864  0.1863
 7071TIP3    H242705   1.879   6.707  15.426 -1.0572 -0.3213 -0.6031
 7072TIP3   OH242706   5.721   6.237   1.663 -0.1529  0.0101 -0.0269
 7072TIP3    H142707   5.813   6.261   1.675 -0.3504  2.3054 -2.3720
 7072TIP3    H242708   5.674   6.289   1.728  0.1511 -1.3095  1.3076
 7073TIP3   OH242709   3.678   0.688   1.160  0.6141  0.2287 -0.1568
 7073TIP3    H142710   3.710   0.717   1.074  1.4691 -1.2179 -0.3685
 7073TIP3    H242711   3.648   0.768   1.203  1.0728  1.1220 -1.4284
 7074TIP3   OH242712   2.526   1.434   3.650  0.2511 -0.1623  0.1074
 7074TIP3    H142713   2.570   1.467   3.728  1.1869 -0.7268 -0.1615
 7074TIP3    H242714   2.597   1.414   3.589 -0.3580 -1.2696 -0.2803
 7075TIP3   OH242715   2.706   3.216  11.865 -0.2277  0.1782 -0.3147
 7075TIP3    H142716   2.754   3.134  11.863 -0.7505 -0.2206  1.6497
 7075TIP3    H242717   2.761   3.278  11.816 -0.4307 -1.5872 -2.9969
 7076TIP3   OH242718   0.012   6.577  15.564  0.6210  0.4220  0.1813
 7076TIP3    H142719   0.024   6.648  15.500 -0.7154  0.6963  0.1858
 7076TIP3    H242720  -0.011   6.501  15.511  1.6670  0.0911  0.2026
 7077TIP3   OH242721   4.806   5.532  15.196 -0.3127  0.2266 -0.2479
 7077TIP3    H142722   4.841   5.602  15.250  1.2109  0.7972 -1.8716
 7077TIP3    H242723   4.817   5.453  15.248 -0.1045  0.9190  0.7800
 7078TIP3   OH242724   4.892   3.653   5.989 -0.2385 -0.4136  0.4726
 7078TIP3    H142725   4.799   3.633   6.000  0.1893 -1.5091  2.5709
 7078TIP3    H242726   4.934   3.618   6.067  1.7411  1.5049  0.3745
 7079TIP3   OH242727   4.307   3.317   2.185 -0.2168  0.1753 -0.0340
 7079TIP3    H142728   4.268   3.377   2.120 -1.7541  0.2129  0.8666
 7079TIP3    H242729   4.385   3.283   2.142  0.1899  2.1005 -0.9385
 7080TIP3   OH242730   5.565   2.247   0.090 -0.8102 -0.3029 -0.5896
 7080TIP3    H142731   5.632   2.303   0.053 -0.2260 -0.9863 -0.5964
 7080TIP3    H242732   5.504   2.231   0.018 -0.3983 -0.5460 -0.8844
 7081TIP3   OH242733   3.421   5.672  14.012  0.0943 -0.5299  0.9625
 7081TIP3    H142734   3.500   5.648  14.061 -0.2615 -2.6777  0.5520
 7081TIP3    H242735   3.379   5.738  14.067  0.7641 -1.3565  2.5450
 7082TIP3   OH242736   1.554   1.706   3.360  0.3633  0.0237  0.1474
 7082TIP3    H142737   1.485   1.703   3.294  2.1060 -1.2155 -1.7194
 7082TIP3    H242738   1.597   1.621   3.354  0.9640  0.0918  2.5154
 7083TIP3   OH242739   3.890   0.348  14.561 -0.1055  0.5799  0.0631
 7083TIP3    H142740   3.860   0.305  14.641  1.0650  0.9578  0.7318
 7083TIP3    H242741   3.959   0.408  14.591  2.3093 -1.2432 -1.5039
 7084TIP3   OH242742   2.283   5.071   6.022 -0.1060 -0.0859  0.0036
 7084TIP3    H142743   2.202   5.120   6.010 -0.4992 -0.8816 -0.7200
 7084TIP3    H242744   2.268   5.021   6.102  0.0040  0.4081  0.3346
 7085TIP3   OH242745   6.606   4.044   5.077 -0.4900  0.6581  0.9049
 7085TIP3    H142746   6.617   4.136   5.055 -1.3733  0.3769 -0.8853
 7085TIP3    H242747   6.590   4.000   4.993  0.3756 -1.2107  1.6530
 7086TIP3   OH242748   0.599   5.246   1.071  0.1953 -0.5356 -0.2162
 7086TIP3    H142749   0.617   5.333   1.107 -1.3545  0.2996 -1.3327
 7086TIP3    H242750   0.560   5.198   1.144 -0.7581  0.3739 -0.0951
 7087TIP3   OH242751   1.346   5.898  10.085 -0.4250  0.6793 -0.4944
 7087TIP3    H142752   1.432   5.885  10.125  0.3718  2.2808 -1.5434
 7087TIP3    H242753   1.310   5.974  10.130 -0.3592  1.2986 -1.4382
 7088TIP3   OH242754   5.027   5.125  10.667  0.5840  0.4315  0.0503
 7088TIP3    H142755   4.996   5.125  10.576 -1.4573  2.2793  0.6644
 7088TIP3    H242756   5.109   5.174  10.664  1.0647 -0.3709 -0.8935
 7089TIP3   OH242757   0.904   5.153  12.678  0.1170 -0.1341 -0.2466
 7089TIP3    H142758   0.924   5.072  12.630 -0.5369 -0.5512  0.1563
 7089TIP3    H242759   0.987   5.181  12.714 -0.0598 -2.2466  2.0732
 7090TIP3   OH242760   4.896   5.817   4.988  0.6250  0.6243 -0.3484
 7090TIP3    H142761   4.859   5.905   4.990 -0.4079  0.2072  2.0041
 7090TIP3    H242762   4.975   5.825   4.934  0.2566  2.8453 -0.6366
 7091TIP3   OH242763   0.386   6.752  16.102  0.0191 -0.0883  0.1488
 7091TIP3    H142764   0.315   6.794  16.151  0.0778  0.0317  0.1315
 7091TIP3    H242765   0.413   6.678  16.157 -0.0349 -0.0603  0.2124
 7092TIP3   OH242766   3.480   2.824  10.951  0.4119  0.1373 -0.2751
 7092TIP3    H142767   3.469   2.919  10.938 -0.2911  0.1101  0.0764
 7092TIP3    H242768   3.395   2.787  10.926  0.2997 -0.2876  0.7059
 7093TIP3   OH242769   6.744   1.497  17.132 -0.0899  0.3138 -0.1097
 7093TIP3    H142770   6.776   1.484  17.042  1.5061 -1.3588  0.6347
 7093TIP3    H242771   6.708   1.412  17.157  0.4680  0.4378  1.2003
 7094TIP3   OH242772   0.125   0.874  15.255 -0.2730  0.6402  0.1489
 7094TIP3    H142773   0.088   0.791  15.225  0.7821 -0.3627  1.4854
 7094TIP3    H242774   0.056   0.914  15.308 -0.3820  0.0373  0.4686
 7095TIP3   OH242775   1.058   1.210  13.992  0.1697  0.4245 -0.4878
 7095TIP3    H142776   0.986   1.226  14.052  0.4871  2.3239 -0.5560
 7095TIP3    H242777   1.021   1.227  13.905  0.3279 -0.0018 -0.6419
 7096TIP3   OH242778   1.620   3.993  13.469  0.3025  0.0916  0.7515
 7096TIP3    H142779   1.558   4.000  13.541  1.8769  0.0664  2.1707
 7096TIP3    H242780   1.705   3.977  13.511  1.6234  1.9949 -0.9680
 7097TIP3   OH242781   4.535   4.744  15.137  0.3087  0.3741  0.0922
 7097TIP3    H142782   4.482   4.782  15.207 -1.0792  1.0398 -1.2551
 7097TIP3    H242783   4.531   4.650  15.153  1.2886  0.5769  1.7536
 7098TIP3   OH242784   4.616   3.315   1.270  0.1665  0.4070  0.1076
 7098TIP3    H142785   4.651   3.381   1.330  2.6851  0.6608 -1.4791
 7098TIP3    H242786   4.691   3.260   1.248 -0.6402  0.2093 -2.5955
 7099TIP3   OH242787   6.246   2.780   2.270 -0.1906 -0.5898  0.3035
 7099TIP3    H142788   6.207   2.765   2.184 -0.9389 -1.4538  0.7753
 7099TIP3    H242789   6.302   2.704   2.285  1.4194  0.4472 -0.1927
 7100TIP3   OH242790   3.824   0.400   2.317 -0.1562  0.1562  0.1146
 7100TIP3    H142791   3.786   0.387   2.230  1.0548  1.1253 -0.5928
 7100TIP3    H242792   3.893   0.334   2.324  0.8600  1.1203 -0.3743
 7101TIP3   OH242793   6.694   6.786  11.651 -0.2771 -0.0403  0.6529
 7101TIP3    H142794   6.696   6.848  11.579  1.9756  1.6183  2.0297
 7101TIP3    H242795   6.750   6.714  11.622  1.6684  1.2017  1.1397
 7102TIP3   OH242796   1.832   4.726  12.627 -0.1718 -0.5803  0.3203
 7102TIP3    H142797   1.895   4.683  12.570 -1.4262 -0.9383 -0.8487
 7102TIP3    H242798   1.838   4.819  12.605  0.2849 -0.5473  0.5720
 7103TIP3   OH242799   2.069   4.953   2.932  0.4327 -0.3448  0.3918
 7103TIP3    H142800   1.978   4.976   2.915  1.4353  0.9965 -4.7732
 7103TIP3    H242801   2.079   4.865   2.894  1.5052  0.0675 -0.3428
 7104TIP3   OH242802   1.518   4.702   4.613  0.4675 -0.5357 -0.5031
 7104TIP3    H142803   1.503   4.760   4.539  2.3074  0.8199  0.1172
 7104TIP3    H242804   1.431   4.668   4.635 -0.4499  0.8781 -1.7727
 7105TIP3   OH242805   5.975   6.160   2.001  0.0422 -0.4022 -0.8762
 7105TIP3    H142806   6.048   6.098   2.006  0.3921  0.0846  1.1832
 7105TIP3    H242807   5.990   6.209   1.920  1.1767 -1.2977 -1.2333
 7106TIP3   OH242808   5.856   6.722   2.329  0.6491  0.3334  0.3700
 7106TIP3    H142809   5.796   6.666   2.378  1.2028 -1.2378 -0.6583
 7106TIP3    H242810   5.939   6.674   2.329  1.0209  0.9314 -0.9473
 7107TIP3   OH242811   4.898   0.157   5.027  0.1785 -0.1704  0.4670
 7107TIP3    H142812   4.967   0.092   5.014  2.1972  2.0553 -0.6500
 7107TIP3    H242813   4.826   0.128   4.970  0.2103 -2.3665  1.4182
 7108TIP3   OH242814   3.096   3.050   2.090 -0.1972  0.2308 -0.3167
 7108TIP3    H142815   3.057   3.057   2.177 -1.0108 -1.5394 -0.4832
 7108TIP3    H242816   3.127   2.959   2.085  0.6349  0.5528 -1.5572
 7109TIP3   OH242817   6.631   2.203   5.426  0.0111  0.0986  0.3853
 7109TIP3    H142818   6.571   2.275   5.408 -0.5437  0.0152  1.7755
 7109TIP3    H242819   6.653   2.212   5.519  1.9955 -0.0066 -0.0289
 7110TIP3   OH242820   3.127   4.904  15.791 -0.6622 -0.1784 -0.2711
 7110TIP3    H142821   3.040   4.944  15.788 -0.2731  0.6623 -1.0748
 7110TIP3    H242822   3.142   4.872  15.702 -0.2455 -0.5355 -0.0784
 7111TIP3   OH242823   3.084   5.163  14.147  0.3502 -0.0897 -0.1687
 7111TIP3    H142824   3.021   5.223  14.107 -0.3311  0.9548  2.2874
 7111TIP3    H242825   3.165   5.214  14.155  0.0977  0.1705  0.9070
 7112TIP3   OH242826   5.681   0.063  16.667 -0.0617 -0.0492 -0.2133
 7112TIP3    H142827   5.769   0.077  16.633 -0.0623  0.2643 -0.0914
 7112TIP3    H242828   5.624   0.097  16.598 -0.0618  0.6438  0.1156
 7113TIP3   OH242829   4.602   4.137  15.708  0.4440 -0.8260 -0.5826
 7113TIP3    H142830   4.638   4.074  15.771  1.1679  0.5692  0.4447
 7113TIP3    H242831   4.546   4.084  15.651  1.6726 -2.5324 -0.2858
 7114TIP3   OH242832   1.446   3.630  10.579  0.2302 -0.2241  0.3538
 7114TIP3    H142833   1.504   3.673  10.516 -0.1106 -0.5778 -0.2101
 7114TIP3    H242834   1.500   3.560  10.617 -0.2896 -1.6831 -1.4194
 7115TIP3   OH242835   1.364   0.097   2.917 -0.1140  0.3083  0.2823
 7115TIP3    H142836   1.400   0.151   2.847  0.9964 -3.1092 -2.0552
 7115TIP3    H242837   1.285   0.059   2.880  0.2874 -1.2724  0.9707
 7116TIP3   OH242838   2.603   3.639  13.495 -0.3040  0.2674  0.2338
 7116TIP3    H142839   2.551   3.711  13.531 -0.5205  0.0119  0.4380
 7116TIP3    H242840   2.557   3.560  13.523 -0.3809  0.0565 -0.4536
 7117TIP3   OH242841   4.593   4.550  15.440  0.2658  0.3404  1.0534
 7117TIP3    H142842   4.605   4.645  15.434 -1.3918  0.4688 -1.0828
 7117TIP3    H242843   4.545   4.538  15.522 -0.9668  1.5533  0.5608
 7118TIP3   OH242844   2.423   0.464   2.854  0.2131  0.0443 -0.6358
 7118TIP3    H142845   2.458   0.493   2.769 -0.1411 -0.3509 -0.9207
 7118TIP3    H242846   2.501   0.437   2.904  0.5126  1.1241 -0.4976
 7119TIP3   OH242847   1.467   5.456  11.995 -0.2201 -0.4252 -0.0254
 7119TIP3    H142848   1.414   5.427  12.069 -1.0458  0.9428 -0.0537
 7119TIP3    H242849   1.541   5.502  12.035 -1.0063  0.8807 -0.0450
 7120TIP3   OH242850   5.451   5.628   1.223 -0.6742  0.1113  0.6828
 7120TIP3    H142851   5.376   5.614   1.280 -0.3178 -1.2021  0.8626
 7120TIP3    H242852   5.490   5.541   1.212 -0.2139  0.4758 -0.8453
 7121TIP3   OH242853   4.352   0.706  14.060 -0.1981  0.3471 -0.2520
 7121TIP3    H142854   4.292   0.779  14.052 -1.1432 -0.0757  2.2158
 7121TIP3    H242855   4.421   0.737  14.118 -0.6482 -0.6930  0.8834
 7122TIP3   OH242856   3.666   4.307  11.441  0.1766 -0.2860  0.3506
 7122TIP3    H142857   3.740   4.262  11.401  1.3416  0.9178  1.0818
 7122TIP3    H242858   3.608   4.236  11.470  1.4872 -1.2951  0.5895
 7123TIP3   OH242859   2.064   1.149   4.186 -0.6258 -0.0202  0.0835
 7123TIP3    H142860   1.970   1.143   4.199 -0.6837  0.2853 -0.1929
 7123TIP3    H242861   2.101   1.150   4.275 -1.0248  2.2197  0.2759
 7124TIP3   OH242862   5.441   1.889  14.609 -0.2895 -0.2852  0.2270
 7124TIP3    H142863   5.465   1.801  14.582 -0.4764 -0.8507  1.7999
 7124TIP3    H242864   5.481   1.946  14.543  0.1159 -1.5152 -0.6227
 7125TIP3   OH242865   3.139   5.189  15.641 -0.1360 -0.4304 -0.0004
 7125TIP3    H142866   3.167   5.197  15.732  0.2897  0.3854 -0.1893
 7125TIP3    H242867   3.044   5.180  15.645 -0.1215 -0.3384  0.5236
 7126TIP3   OH242868   5.581   0.041   4.688 -0.0368 -0.3596  0.2854
 7126TIP3    H142869   5.531   0.120   4.708  0.2809 -0.0972  0.0461
 7126TIP3    H242870   5.572  -0.014   4.767 -2.1042 -1.0624 -0.3644
 7127TIP3   OH242871   4.864   3.771   2.491 -0.0670 -0.0547 -0.0007
 7127TIP3    H142872   4.923   3.707   2.452  0.3865 -2.3019  3.8800
 7127TIP3    H242873   4.904   3.856   2.471  1.4018 -1.1567 -2.0904
 7128TIP3   OH242874   1.382   5.067  12.900 -0.3099 -0.2157  0.4909
 7128TIP3    H142875   1.364   5.155  12.933  1.4055 -0.3975  2.0346
 7128TIP3    H242876   1.365   5.009  12.974  2.2153 -0.7862  0.6835
 7129TIP3   OH242877   0.038   3.590  17.261 -0.0282 -0.4275 -0.1163
 7129TIP3    H142878   0.060   3.667  17.209  1.2736 -0.9311 -0.3456
 7129TIP3    H242879  -0.025   3.622  17.326 -2.7031 -0.0215 -2.6967
 7130TIP3   OH242880   4.043   1.723  16.289 -0.2298  0.6788 -0.2244
 7130TIP3    H142881   4.073   1.744  16.378  1.1888  1.3733 -0.8421
 7130TIP3    H242882   4.086   1.640  16.268  1.2458  1.6177 -1.0689
 7131TIP3   OH242883   6.623   1.041   1.304 -1.0854  0.2904 -0.5029
 7131TIP3    H142884   6.688   1.049   1.234 -0.6483 -0.3463 -0.1754
 7131TIP3    H242885   6.542   1.076   1.265 -1.0277 -0.7006 -1.5635
 7132TIP3   OH242886   2.077   4.805   6.285 -0.1670  0.1130  0.0769
 7132TIP3    H142887   2.085   4.784   6.378 -3.3896 -0.3658  0.3502
 7132TIP3    H242888   2.096   4.723   6.240 -0.6136 -0.1947  0.4464
 7133TIP3   OH242889   5.479   2.965   6.069  0.9134 -0.6129  0.0925
 7133TIP3    H142890   5.528   2.950   5.988  2.3139 -0.7628  0.9333
 7133TIP3    H242891   5.477   3.060   6.079  1.0658 -0.6067  0.0663
 7134TIP3   OH242892   4.604   4.066  16.597  0.5461  0.4027 -0.1262
 7134TIP3    H142893   4.520   4.038  16.634  0.5482  0.4880 -0.0566
 7134TIP3    H242894   4.669   4.031  16.657  0.5231  1.0768  0.2958
 7135TIP3   OH242895   3.480   0.407   4.975  0.2324 -0.5874  0.6850
 7135TIP3    H142896   3.441   0.471   4.915  3.1348  0.4892 -0.2324
 7135TIP3    H242897   3.469   0.445   5.062 -2.9184 -1.5693  0.8279
 7136TIP3   OH242898   5.835   6.764   6.155 -0.4136 -0.6648 -0.5241
 7136TIP3    H142899   5.902   6.696   6.163 -0.4986 -0.6498  0.5013
 7136TIP3    H242900   5.810   6.783   6.246 -0.0903  1.0355 -0.7727
 7137TIP3   OH242901   1.361   4.967   5.089 -0.3032 -0.2329 -0.0077
 7137TIP3    H142902   1.391   5.003   5.172  0.3299 -1.6699  0.4206
 7137TIP3    H242903   1.432   4.909   5.061 -0.3449  0.5162 -1.7557
 7138TIP3   OH242904   4.595   4.925  11.164 -0.6445 -0.0074  0.5785
 7138TIP3    H142905   4.541   4.890  11.234 -1.2502 -0.2802 -0.0075
 7138TIP3    H242906   4.628   4.847  11.118 -1.6080  0.1658 -0.4403
 7139TIP3   OH242907   6.161   3.755  17.069 -0.1897 -1.1063  0.2118
 7139TIP3    H142908   6.216   3.678  17.083 -0.1492 -1.3055 -0.9761
 7139TIP3    H242909   6.135   3.781  17.157  2.4886 -0.4849  0.9075
 7140TIP3   OH242910   3.788   0.746   0.260 -0.7782  0.2575  0.0848
 7140TIP3    H142911   3.853   0.813   0.242 -0.3698 -0.0645  0.3385
 7140TIP3    H242912   3.708   0.795   0.280 -0.0990  0.7365  1.8097
 7141TIP3   OH242913   6.437   1.258   3.853 -0.4499 -0.1265  0.1044
 7141TIP3    H142914   6.405   1.184   3.903 -2.0114 -0.2900 -1.0770
 7141TIP3    H242915   6.531   1.242   3.844 -0.3166 -0.6384  1.9971
 7142TIP3   OH242916   0.830   1.970   4.599  0.3916 -0.2538 -0.0406
 7142TIP3    H142917   0.888   1.914   4.652  0.0428 -1.5889 -1.0242
 7142TIP3    H242918   0.758   1.993   4.658  0.9185 -0.2233  0.5974
 7143TIP3   OH242919   0.929   6.689   0.476  0.3069 -0.0724 -0.2739
 7143TIP3    H142920   0.936   6.779   0.442  2.1727 -0.7850 -2.0177
 7143TIP3    H242921   0.859   6.649   0.424  0.3863  0.0082 -0.4460
 7144TIP3   OH242922   1.677   3.921  15.566  0.2067 -0.3256  0.8126
 7144TIP3    H142923   1.619   3.952  15.635 -0.5138  0.7740 -0.2400
 7144TIP3    H242924   1.732   3.855  15.608  0.6299  1.1605  2.7398
 7145TIP3   OH242925   1.827   6.268   0.581 -0.2634  0.0057 -0.4802
 7145TIP3    H142926   1.742   6.255   0.624  0.2875 -2.1299  0.1098
 7145TIP3    H242927   1.827   6.360   0.554 -2.4034  0.2793  0.2540
 7146TIP3   OH242928   3.108   1.644  14.354  0.0989 -0.5061  0.1364
 7146TIP3    H142929   3.113   1.727  14.308 -0.2085 -1.0807 -0.9816
 7146TIP3    H242930   3.186   1.641  14.409  0.7351 -0.0124 -0.7301
 7147TIP3   OH242931   3.705   0.640   3.983 -0.1603 -0.4511  0.2556
 7147TIP3    H142932   3.762   0.626   4.059  0.7024  1.5957  0.0397
 7147TIP3    H242933   3.765   0.663   3.912 -1.2006  2.3837  0.1735
 7148TIP3   OH242934   0.290   0.775   2.838  0.2511 -0.0986  0.0318
 7148TIP3    H142935   0.260   0.848   2.892  1.4757  0.0748  0.5127
 7148TIP3    H242936   0.375   0.803   2.805 -0.3888 -0.2647 -1.9070
 7149TIP3   OH242937   6.697   3.698   4.144  0.3485  0.5689  0.3647
 7149TIP3    H142938   6.651   3.738   4.217  1.1944 -0.6612  1.6441
 7149TIP3    H242939   6.786   3.734   4.150  0.3686  0.6101 -0.1795
 7150TIP3   OH242940   0.368   0.001  10.605  0.0558  0.4255  0.5930
 7150TIP3    H142941   0.448   0.049  10.627 -0.8411  1.7979  1.0217
 7150TIP3    H242942   0.305   0.069  10.582 -0.7401 -0.6715 -0.6453
 7151TIP3   OH242943   2.830   0.589  15.503  0.1276  0.3952 -0.4630
 7151TIP3    H142944   2.885   0.533  15.557 -1.7179 -1.1279 -0.0598
 7151TIP3    H242945   2.740   0.564  15.526 -0.7672  2.7450 -1.1023
 7152TIP3   OH242946   4.220   2.152   2.691  0.6589  0.2437 -0.5664
 7152TIP3    H142947   4.281   2.099   2.742  0.7155 -1.1582 -2.0281
 7152TIP3    H242948   4.274   2.223   2.655  1.1626 -0.2380 -0.7715
 7153TIP3   OH242949   0.752   0.394   4.277 -0.0401  0.9302 -0.3585
 7153TIP3    H142950   0.722   0.381   4.186  1.2691  0.2698 -0.7246
 7153TIP3    H242951   0.747   0.307   4.316  0.1388  1.0632 -0.0370
 7154TIP3   OH242952   1.079   4.107  16.183  0.4834  0.3363 -0.3274
 7154TIP3    H142953   1.099   4.200  16.190 -1.0955  0.7926 -1.3381
 7154TIP3    H242954   0.989   4.100  16.214  0.6416 -0.8977 -0.0981
 7155TIP3   OH242955   5.995   3.251   3.394 -0.0826  0.4113 -0.3706
 7155TIP3    H142956   5.926   3.267   3.330 -1.7364 -2.3616  0.5297
 7155TIP3    H242957   6.070   3.223   3.342 -0.6184  0.5608 -1.2370
 7156TIP3   OH242958   2.211   4.604  11.529  0.4169 -0.2793  0.3091
 7156TIP3    H142959   2.143   4.537  11.527  1.2693 -1.1609 -0.5416
 7156TIP3    H242960   2.287   4.563  11.487  1.2101  0.9623  0.4524
 7157TIP3   OH242961   6.576   4.965   1.203 -0.1904 -0.1264  0.0697
 7157TIP3    H142962   6.483   4.968   1.178 -0.8080 -0.3932  2.1530
 7157TIP3    H242963   6.623   4.958   1.119 -1.9617  1.1972 -1.1009
 7158TIP3   OH242964   5.464   5.637  11.777  0.0931 -0.1805 -0.7325
 7158TIP3    H142965   5.375   5.616  11.749 -0.8919  0.7229  1.5537
 7158TIP3    H242966   5.487   5.568  11.840  1.5365 -1.0900 -2.1493
 7159TIP3   OH242967   5.084   4.460  14.841  0.5727  0.1409  0.6700
 7159TIP3    H142968   5.142   4.499  14.908  0.9194 -0.3281  0.6479
 7159TIP3    H242969   5.012   4.523  14.832  1.7344  1.4050 -0.2552
 7160TIP3   OH242970   2.557   1.412   2.559  0.4633  0.0467  0.3938
 7160TIP3    H142971   2.509   1.372   2.631 -0.0366 -2.0598 -1.0051
 7160TIP3    H242972   2.525   1.366   2.481  2.5742  0.6912 -0.9245
 7161TIP3   OH242973   5.866   0.006   4.733  0.1372 -0.0546  0.0369
 7161TIP3    H142974   5.773   0.006   4.713  0.3087  1.5842 -0.9258
 7161TIP3    H242975   5.904  -0.059   4.674 -0.1729  0.5463 -0.8412
 7162TIP3   OH242976   3.822   6.571  16.493  0.2361 -0.5100  0.3420
 7162TIP3    H142977   3.731   6.581  16.523  0.5927  1.5311  0.8473
 7162TIP3    H242978   3.814   6.548  16.401 -0.7898 -0.9669  0.5224
 7163TIP3   OH242979   0.922   4.628  17.123  0.1501 -0.7012  0.1794
 7163TIP3    H142980   0.936   4.534  17.135  0.4127 -0.6303  0.4430
 7163TIP3    H242981   0.828   4.636  17.107  0.4590 -1.2772 -2.4265
 7164TIP3   OH242982   3.683   6.522  13.433  0.8985 -0.2696  0.6185
 7164TIP3    H142983   3.604   6.555  13.390  0.7447 -0.8273  0.4660
 7164TIP3    H242984   3.729   6.474  13.365  2.2520  1.4914  0.2335
 7165TIP3   OH242985   0.498   4.166   6.143 -0.3177 -0.3584 -0.1443
 7165TIP3    H142986   0.586   4.202   6.152 -0.4299 -0.3730  1.3362
 7165TIP3    H242987   0.472   4.145   6.233 -1.5857 -0.9384 -0.6274
 7166TIP3   OH242988   5.651   5.627   4.721 -0.0851  0.0522  0.0931
 7166TIP3    H142989   5.558   5.647   4.728 -0.1915 -0.4604  0.2027
 7166TIP3    H242990   5.663   5.548   4.774  0.2802 -0.2781 -0.4661
 7167TIP3   OH242991   5.217   2.614   2.543  0.1961 -0.0639 -0.6696
 7167TIP3    H142992   5.312   2.609   2.553 -0.0023 -2.6813  1.0043
 7167TIP3    H242993   5.190   2.685   2.601  1.0043 -0.5228  0.2957
 7168TIP3   OH242994   4.536   4.219  16.393 -0.0977 -0.2917 -0.1840
 7168TIP3    H142995   4.504   4.276  16.463  1.1474 -0.1863  0.3402
 7168TIP3    H242996   4.586   4.151  16.439  2.1935  0.7303 -1.0160
 7169TIP3   OH242997   4.057   3.046  15.580 -0.2825  0.3605 -0.2436
 7169TIP3    H142998   3.962   3.045  15.578 -0.3306  1.1262  0.6794
 7169TIP3    H242999   4.079   3.090  15.662  0.8712 -0.9978  0.2321
 7170TIP3   OH243000   6.498   4.562  12.638 -0.0347 -0.3877  0.6924
 7170TIP3    H143001   6.411   4.523  12.623  1.1533 -2.8780 -0.4234
 7170TIP3    H243002   6.533   4.513  12.712  0.8685 -0.2430  0.3718
 7171TIP3   OH243003   4.958   2.828   2.984 -1.0354 -0.3557 -0.0754
 7171TIP3    H143004   4.910   2.895   2.936 -0.8210 -0.0566  0.1229
 7171TIP3    H243005   5.017   2.877   3.041 -0.1567 -0.7096 -0.6483
 7172TIP3   OH243006   1.128   4.521  10.602 -0.5607  0.8469 -0.4194
 7172TIP3    H143007   1.094   4.432  10.590 -2.2043  0.9622  2.5626
 7172TIP3    H243008   1.220   4.508  10.624 -0.8555 -0.1778  0.2799
 7173TIP3   OH243009   1.129   6.130   2.249 -0.3633 -0.2529 -0.6859
 7173TIP3    H143010   1.145   6.209   2.196 -0.5877 -0.2303 -0.7234
 7173TIP3    H243011   1.110   6.163   2.336  2.8886 -0.3943  0.1871
 7174TIP3   OH243012   6.242   2.243  15.517  0.5476  0.5862 -0.5951
 7174TIP3    H143013   6.211   2.264  15.429 -1.2663 -0.1891 -0.1767
 7174TIP3    H243014   6.244   2.328  15.563 -1.4279  0.6319 -0.5221
 7175TIP3   OH243015   1.343   1.754  13.868 -0.2884 -0.0715  0.8101
 7175TIP3    H143016   1.319   1.833  13.820  1.1111  0.6522  1.2356
 7175TIP3    H243017   1.407   1.710  13.812  1.0651  0.5816  1.7943
 7176TIP3   OH243018   5.410   2.840  16.444  0.0435  0.2840 -0.2264
 7176TIP3    H143019   5.488   2.880  16.404  0.3278  0.5341  0.5610
 7176TIP3    H243020   5.337   2.872  16.390  0.6580 -2.1606 -2.7364
 7177TIP3   OH243021   2.191   2.555   4.407  0.1436 -0.5021 -0.2799
 7177TIP3    H143022   2.249   2.603   4.348  0.8579 -1.8594 -0.7294
 7177TIP3    H243023   2.241   2.545   4.488 -0.1134 -0.2341 -0.0884
 7178TIP3   OH243024   1.832   4.623  10.608  0.0307 -0.2397  0.2703
 7178TIP3    H143025   1.841   4.545  10.664  0.2079  0.1011  0.7188
 7178TIP3    H243026   1.922   4.651  10.591  0.0171 -0.8178 -0.8779
 7179TIP3   OH243027   3.773   4.130  13.182 -0.1317 -0.9326  0.0844
 7179TIP3    H143028   3.694   4.076  13.184 -0.9578  0.1877 -0.5365
 7179TIP3    H243029   3.808   4.127  13.271 -0.5979 -1.8262  0.2473
 7180TIP3   OH243030   1.970   5.029  14.762  0.7886  0.2030  0.0772
 7180TIP3    H143031   2.048   4.976  14.780  0.9789  0.8353  1.2601
 7180TIP3    H243032   1.921   5.028  14.845  0.1369  0.7778 -0.2887
 7181TIP3   OH243033   1.022   0.160   1.525 -0.2482 -0.2052 -0.4823
 7181TIP3    H143034   0.999   0.253   1.526  3.0210  0.7344  1.0514
 7181TIP3    H243035   1.002   0.129   1.613 -0.4717 -0.7260 -0.7128
 7182TIP3   OH243036   4.514   2.011   3.228  0.0452  0.3489  0.1569
 7182TIP3    H143037   4.458   2.084   3.201 -1.0696 -0.3711  0.4391
 7182TIP3    H243038   4.461   1.964   3.292  0.4907 -1.0706 -0.4904
 7183TIP3   OH243039   4.952   5.648  15.377  0.2044 -0.2349 -0.1615
 7183TIP3    H143040   4.921   5.726  15.331  1.1753  0.5917  0.5348
 7183TIP3    H243041   4.939   5.669  15.470 -0.8192 -1.4734 -0.0063
 7184TIP3   OH243042   0.618   5.397  11.482  0.0925 -0.2092  0.4973
 7184TIP3    H143043   0.525   5.378  11.466 -0.1803  0.5845  1.0674
 7184TIP3    H243044   0.623   5.492  11.482  0.7940 -0.2350  1.0832
 7185TIP3   OH243045   6.234   3.942  15.264 -0.1358  0.4155 -0.0388
 7185TIP3    H143046   6.299   3.977  15.324  0.3032 -0.0856 -0.2154
 7185TIP3    H243047   6.166   4.009  15.260 -0.5205  0.1491  1.5586
 7186TIP3   OH243048   6.364   4.700  17.118 -0.0809 -0.6933  0.5343
 7186TIP3    H143049   6.349   4.616  17.075  2.0667 -1.2840  0.8297
 7186TIP3    H243050   6.330   4.688  17.207 -1.3259 -0.6368  0.0966
 7187TIP3   OH243051   1.178   5.216  15.681  0.2868  0.1417 -0.5849
 7187TIP3    H143052   1.206   5.244  15.593  1.7232 -2.2028 -0.9498
 7187TIP3    H243053   1.213   5.128  15.690 -0.9227 -0.1529  1.8932
 7188TIP3   OH243054   1.573   2.253  15.064  0.3449  0.5139  0.3279
 7188TIP3    H143055   1.519   2.176  15.047 -0.7474  1.1098  0.9618
 7188TIP3    H243056   1.581   2.256  15.159  1.7115  0.3080  0.2276
 7189TIP3   OH243057   2.083   4.306  15.447  0.1682  0.2714  0.1760
 7189TIP3    H143058   2.096   4.360  15.369 -0.2953 -1.3997 -1.0932
 7189TIP3    H243059   1.992   4.320  15.471  0.1171  0.2318  0.0010
 7190TIP3   OH243060   2.982   2.099   3.014  0.1150 -0.1232 -0.5989
 7190TIP3    H143061   3.047   2.055   2.959  0.2338 -1.7241  0.7395
 7190TIP3    H243062   2.930   2.152   2.952  0.2940 -1.7481 -2.2370
 7191TIP3   OH243063   5.893   4.177   5.119  0.0460 -0.3822 -0.0263
 7191TIP3    H143064   5.863   4.099   5.165 -0.8179 -0.4743 -0.7075
 7191TIP3    H243065   5.947   4.224   5.182  0.5440 -1.5090  0.4051
 7192TIP3   OH243066   4.345   5.556  14.425  0.3078  0.3202 -0.2820
 7192TIP3    H143067   4.378   5.624  14.365  1.0004  1.0861  0.9289
 7192TIP3    H243068   4.251   5.573  14.432  0.6610  2.0057  1.0002
 7193TIP3   OH243069   0.735   0.201  11.220  0.1689 -0.2506 -0.1929
 7193TIP3    H143070   0.750   0.118  11.174 -1.2213 -0.9148  0.4892
 7193TIP3    H243071   0.662   0.241  11.173 -0.6062 -0.4656  0.8049
 7194TIP3   OH243072   6.000   0.617  13.744  0.2478  1.1653  0.3018
 7194TIP3    H143073   6.040   0.562  13.677 -0.4178 -0.4070  1.1526
 7194TIP3    H243074   5.906   0.605  13.731  0.1116  1.1572  1.2686
 7195TIP3   OH243075   3.128   4.457   2.157 -0.2950 -0.1629  0.3008
 7195TIP3    H143076   3.165   4.483   2.073  2.2958  1.5792  1.8395
 7195TIP3    H243077   3.044   4.502   2.161  0.6841  1.8435 -0.3567
 7196TIP3   OH243078   3.011   0.358   4.605  0.9433  0.8619  0.5477
 7196TIP3    H143079   3.000   0.417   4.530 -0.8525 -1.0574 -0.8023
 7196TIP3    H243080   2.936   0.378   4.662  0.3623 -0.0174  0.1144
 7197TIP3   OH243081   1.080   0.774  11.411 -0.7799 -0.5472  0.5732
 7197TIP3    H143082   1.165   0.816  11.423 -0.9890  0.1785 -0.3087
 7197TIP3    H243083   1.026   0.807  11.482 -1.7033  2.8221 -1.4373
 7198TIP3   OH243084   1.126   4.626   4.118 -0.2869 -0.2823 -0.4123
 7198TIP3    H143085   1.169   4.650   4.199 -0.4537  0.9015 -0.6591
 7198TIP3    H243086   1.190   4.645   4.050 -0.6289  0.0125 -0.6566
 7199TIP3   OH243087   4.441   4.343   0.355 -0.0820 -0.4190 -0.1258
 7199TIP3    H143088   4.482   4.298   0.281  1.8789  2.1228 -0.7135
 7199TIP3    H243089   4.473   4.296   0.432 -0.1339 -1.5482 -0.7656
 7200TIP3   OH243090   1.183   3.873  16.099  0.3061 -0.1832  0.0516
 7200TIP3    H143091   1.157   3.961  16.125  2.6225  0.2007  1.3355
 7200TIP3    H243092   1.168   3.820  16.178 -1.1263 -0.9857 -0.7290
 7201TIP3   OH243093   2.855   3.540  16.801  0.1127  0.6093  0.2010
 7201TIP3    H143094   2.798   3.463  16.799  0.9663 -0.0484  0.5655
 7201TIP3    H243095   2.817   3.597  16.868  0.2105 -0.0919  0.8637
 7202TIP3   OH243096   1.429   1.888  16.847  0.2954  0.5752  0.5510
 7202TIP3    H143097   1.428   1.797  16.817 -1.2977  0.9089 -0.5405
 7202TIP3    H243098   1.426   1.940  16.767  1.0270  1.6180  1.1642
 7203TIP3   OH243099   2.041   3.080  11.664  0.2359 -0.1024  0.0082
 7203TIP3    H143100   1.948   3.088  11.642  0.1458 -2.9381 -1.0022
 7203TIP3    H243101   2.080   3.035  11.589  1.8735 -1.4835  1.6015
 7204TIP3   OH243102   0.917   1.808   4.084 -0.1621  0.0416  0.2922
 7204TIP3    H143103   0.975   1.746   4.128 -0.5307 -0.8315 -0.4006
 7204TIP3    H243104   0.829   1.776   4.106 -0.3485 -0.2820 -0.8771
 7205TIP3   OH243105   3.340   6.630   1.302  0.3251  0.0447  0.0697
 7205TIP3    H143106   3.271   6.664   1.358  0.7363  1.9700 -0.4891
 7205TIP3    H243107   3.371   6.707   1.253  1.8500 -1.0342 -0.7658
 7206TIP3   OH243108   3.846   2.634  14.564 -0.2307 -0.6099 -0.0894
 7206TIP3    H143109   3.836   2.541  14.587 -0.1972 -0.6935 -0.4109
 7206TIP3    H243110   3.929   2.660  14.604  0.2414 -0.9741 -0.8116
 7207TIP3   OH243111   2.960   3.551  13.659  0.6220  0.2494 -0.2235
 7207TIP3    H143112   2.985   3.581  13.572 -0.5913 -0.3273 -0.7892
 7207TIP3    H243113   2.883   3.602  13.682  0.4190 -0.2134  0.1483
 7208TIP3   OH243114   3.233   0.419   4.075 -0.3864 -0.6170  0.2916
 7208TIP3    H143115   3.298   0.489   4.083 -1.0206  0.1458 -0.8116
 7208TIP3    H243116   3.161   0.447   4.131 -0.7921 -0.1720 -0.4282
 7209TIP3   OH243117   5.429   3.670  16.201 -0.0674 -0.4588  0.1902
 7209TIP3    H143118   5.516   3.698  16.171 -0.0027 -0.8007  0.0532
 7209TIP3    H243119   5.444   3.584  16.241 -0.1998 -0.1394  0.9552
 7210TIP3   OH243120   1.878   0.998  13.297 -0.7217  0.1203  0.0270
 7210TIP3    H143121   1.916   0.915  13.328 -1.2955 -0.5126 -0.8907
 7210TIP3    H243122   1.903   1.002  13.205 -0.6997  0.9852  0.0692
 7211TIP3   OH243123   0.136   5.715   3.255  0.0920 -0.2217  0.0037
 7211TIP3    H143124   0.132   5.620   3.242 -2.0340 -0.1694 -0.1303
 7211TIP3    H243125   0.046   5.745   3.237  0.7923  1.8585 -0.2751
 7212TIP3   OH243126   3.359   1.627  16.192  0.8293 -0.3797  0.2776
 7212TIP3    H143127   3.373   1.637  16.097  1.3271 -0.1567  0.3723
 7212TIP3    H243128   3.393   1.540  16.212 -1.2243 -1.3440 -0.1089
 7213TIP3   OH243129   4.034   4.098  14.745 -0.1880 -0.0685  0.3600
 7213TIP3    H143130   4.074   4.012  14.749  0.4616  0.1693 -0.5270
 7213TIP3    H243131   3.958   4.086  14.687  0.4976  0.1498 -0.6180
 7214TIP3   OH243132   3.918   4.725   5.037 -1.0382 -0.1007 -0.1767
 7214TIP3    H143133   3.904   4.631   5.031 -0.2446 -0.2368  0.0352
 7214TIP3    H243134   4.011   4.735   5.056 -0.8070  0.7815 -1.6147
 7215TIP3   OH243135   5.579   1.657   2.646  0.4692  0.2063  0.2444
 7215TIP3    H143136   5.559   1.579   2.594  0.1895 -0.1595  0.8932
 7215TIP3    H243137   5.537   1.729   2.597  0.4891 -0.0819 -0.2044
 7216TIP3   OH243138   3.454   4.799   5.330  0.4221 -0.0650 -0.0382
 7216TIP3    H143139   3.378   4.856   5.319  0.0150 -0.9518 -2.6287
 7216TIP3    H243140   3.419   4.710   5.317  1.7468 -0.5484 -0.4870
 7217TIP3   OH243141   4.095   0.787  12.722 -0.3619 -0.2707  0.2138
 7217TIP3    H143142   4.147   0.848  12.669 -1.1805  0.4876  0.2414
 7217TIP3    H243143   4.062   0.841  12.794  1.4117 -1.4807  2.0092
 7218TIP3   OH243144   2.394   3.684   5.780  0.0686 -0.0258  0.0314
 7218TIP3    H143145   2.353   3.770   5.782 -0.3667 -0.1724 -1.4509
 7218TIP3    H243146   2.397   3.661   5.687  0.4941 -1.4593  0.3757
 7219TIP3   OH243147   6.357   0.310  13.685 -0.6819 -0.1519 -0.7617
 7219TIP3    H143148   6.415   0.355  13.747 -2.1790  0.4947  0.2282
 7219TIP3    H243149   6.333   0.229  13.730 -0.0238 -0.7390 -1.4559
 7220TIP3   OH243150   4.459   3.245  16.242  0.0911  0.1067  0.1066
 7220TIP3    H143151   4.523   3.301  16.286  0.1729 -0.4919  0.7608
 7220TIP3    H243152   4.480   3.254  16.149  1.0648 -0.0028  0.3034
 7221TIP3   OH243153   1.565   3.628  16.653  0.7324  0.6407  0.5115
 7221TIP3    H143154   1.574   3.533  16.666  0.5216  0.5933  0.3044
 7221TIP3    H243155   1.635   3.650  16.592  1.3007  0.7543  1.1871
 7222TIP3   OH243156   6.257   4.766   5.745 -0.1606  0.2779 -0.1482
 7222TIP3    H143157   6.266   4.812   5.828 -0.9162  0.7370 -0.3046
 7222TIP3    H243158   6.339   4.720   5.733 -1.1646 -2.4924  2.4382
 7223TIP3   OH243159   6.059   2.171  14.650  0.0702 -0.2241 -0.3839
 7223TIP3    H143160   5.982   2.166  14.706 -0.4989 -0.0676 -1.1412
 7223TIP3    H243161   6.095   2.082  14.651 -1.8399 -1.1192 -2.3794
 7224TIP3   OH243162   1.235   4.506  14.112 -0.0258  0.6492  0.1434
 7224TIP3    H143163   1.241   4.478  14.203 -1.8661 -0.6692 -0.0806
 7224TIP3    H243164   1.209   4.427  14.064  0.4649  1.4148 -1.4708
 7225TIP3   OH243165   2.077   6.104  15.078  0.3440 -0.0667 -0.1532
 7225TIP3    H143166   2.054   6.080  14.988 -4.2615  0.5237  0.6189
 7225TIP3    H243167   2.072   6.199  15.080 -0.6563 -0.1142  0.8975
 7226TIP3   OH243168   0.833   0.326  12.153 -0.7423  0.2430  0.4207
 7226TIP3    H143169   0.841   0.303  12.246 -0.0254  0.2627  0.3697
 7226TIP3    H243170   0.861   0.417  12.149 -0.8289  0.2594  0.1860
 7227TIP3   OH243171   4.685   3.579  17.006 -0.1244 -0.1637  0.5769
 7227TIP3    H143172   4.654   3.494  16.974  2.3073 -0.7169 -0.5228
 7227TIP3    H243173   4.659   3.640  16.938  1.5765 -0.7188 -0.6370
 7228TIP3   OH243174   0.035   5.351   4.567 -0.2626 -0.1690  0.0894
 7228TIP3    H143175   0.091   5.424   4.542 -0.3777 -0.0254  0.2516
 7228TIP3    H243176  -0.017   5.384   4.640 -1.1853 -0.0147 -0.6153
 7229TIP3   OH243177   3.559   2.324   1.833  0.1006  0.3848 -0.2930
 7229TIP3    H143178   3.636   2.276   1.866  1.5465  1.5092 -1.8336
 7229TIP3    H243179   3.596   2.395   1.781 -2.0043  0.4546 -1.8405
 7230TIP3   OH243180   6.740   6.601  17.250  0.1176 -0.2611 -0.4581
 7230TIP3    H143181   6.645   6.594  17.246  0.0962  0.4343 -1.6371
 7230TIP3    H243182   6.760   6.684  17.206  1.1794  0.3181  1.0459
 7231TIP3   OH243183   0.747   0.747  16.704  0.0490 -0.4097 -0.0443
 7231TIP3    H143184   0.707   0.834  16.714 -1.4477 -0.9897 -0.6062
 7231TIP3    H243185   0.699   0.691  16.765  1.9429 -0.5898  1.3340
 7232TIP3   OH243186   1.547   6.114  12.256 -0.1306 -0.5725  0.1410
 7232TIP3    H143187   1.528   6.052  12.327 -0.3577 -1.2536 -0.4968
 7232TIP3    H243188   1.625   6.078  12.214  2.5726  1.9941  2.5056
 7233TIP3   OH243189   5.141   1.763   0.453 -0.5952 -0.2405  0.1446
 7233TIP3    H143190   5.104   1.776   0.541 -1.6309 -0.5777 -0.2245
 7233TIP3    H243191   5.066   1.737   0.400  0.3049 -1.5966 -0.5042
 7234TIP3   OH243192   4.231   2.191   3.489  0.5971  0.1867  0.0540
 7234TIP3    H143193   4.291   2.251   3.444  1.8205  0.3919  1.8261
 7234TIP3    H243194   4.215   2.121   3.426  1.2724  1.0517 -1.1167
 7235TIP3   OH243195   1.252   3.906  11.690  0.2437 -0.2814  0.6164
 7235TIP3    H143196   1.225   3.906  11.782  0.4640 -1.9138  0.7112
 7235TIP3    H243197   1.327   3.847  11.687  1.5021  1.2884 -0.3032
 7236TIP3   OH243198   4.529   1.713   0.484  0.2296 -0.1735  0.1139
 7236TIP3    H143199   4.478   1.786   0.449  1.1616 -0.0943 -1.1439
 7236TIP3    H243200   4.605   1.753   0.526 -0.0671 -0.3532  0.8393
 7237TIP3   OH243201   4.667   2.086   4.396 -0.0375 -0.9345  0.1812
 7237TIP3    H143202   4.609   2.049   4.329 -0.7961  1.6095 -0.6518
 7237TIP3    H243203   4.615   2.154   4.439  1.5342 -0.2604  1.1049
 7238TIP3   OH243204   1.443   0.021  15.361 -0.8938 -0.3741  0.2167
 7238TIP3    H143205   1.395  -0.059  15.380 -0.6622 -0.0778  2.2379
 7238TIP3    H243206   1.448   0.067  15.445  0.2898  1.0329 -0.5756
 7239TIP3   OH243207   2.774   2.887  16.835 -0.2022  0.0132 -0.3120
 7239TIP3    H143208   2.792   2.913  16.745 -0.4481 -0.6432 -0.5554
 7239TIP3    H243209   2.858   2.898  16.881 -0.8151  3.5876  0.2085
 7240TIP3   OH243210   1.270   5.739  16.350 -1.2909  0.7209  0.1119
 7240TIP3    H143211   1.184   5.718  16.387 -0.5169 -3.0251  0.1232
 7240TIP3    H243212   1.265   5.706  16.260  0.1723  0.3118  0.1679
 7241TIP3   OH243213   2.319   4.704   1.314 -0.2228 -0.0057  0.3879
 7241TIP3    H143214   2.235   4.690   1.270  0.1704  1.4133 -0.8842
 7241TIP3    H243215   2.296   4.708   1.407 -1.5541  0.2482  0.0743
 7242TIP3   OH243216   6.685   2.880   5.186  0.2446 -0.0977 -0.5957
 7242TIP3    H143217   6.710   2.841   5.270  1.7770  1.2990 -0.3458
 7242TIP3    H243218   6.605   2.928   5.206  0.7782  0.5024  0.1779
 7243TIP3   OH243219   2.776   0.341   4.759  0.3194  0.1057  0.1342
 7243TIP3    H143220   2.683   0.361   4.769  0.7540  1.5007  1.7419
 7243TIP3    H243221   2.781   0.247   4.773 -0.7858  0.0809  0.5113
 7244TIP3   OH243222   2.706   2.412   3.420  0.3117  0.1666  0.0241
 7244TIP3    H143223   2.643   2.481   3.399 -0.3684 -0.7811 -1.1574
 7244TIP3    H243224   2.668   2.333   3.383  1.8538 -0.5682 -0.0638
 7245TIP3   OH243225   3.270   5.372   1.533 -0.1763  0.3193 -0.9181
 7245TIP3    H143226   3.328   5.296   1.544  0.5094  0.4074 -3.3848
 7245TIP3    H243227   3.196   5.354   1.591  0.4986 -1.6906 -0.5905
 7246TIP3   OH243228   6.029   2.025   5.477 -0.0433 -0.0301  0.4724
 7246TIP3    H143229   6.069   2.112   5.482  0.5485 -0.2287 -0.4956
 7246TIP3    H243230   6.094   1.971   5.431 -0.1171 -1.1591  1.6347
 7247TIP3   OH243231   2.452   5.766  13.629  0.0359  0.4329 -0.2297
 7247TIP3    H143232   2.389   5.798  13.564  0.9480  0.3003 -1.2016
 7247TIP3    H243233   2.424   5.676  13.647 -0.4107  0.5766 -0.1919
 7248TIP3   OH243234   2.107   3.613  16.848  0.2153 -0.3347 -0.0493
 7248TIP3    H143235   2.081   3.549  16.914 -1.4807 -1.2449 -1.5295
 7248TIP3    H243236   2.037   3.678  16.848  1.5253  1.1390  0.8713
 7249TIP3   OH243237   0.966   6.534  15.888  0.1886 -0.5885  0.3051
 7249TIP3    H143238   0.974   6.451  15.935  0.4593 -0.1845  0.9828
 7249TIP3    H243239   1.055   6.556  15.863 -0.0005 -1.0454 -0.8641
 7250TIP3   OH243240   2.832   6.254   0.075 -0.0930  0.3619  0.5070
 7250TIP3    H143241   2.908   6.273   0.131 -1.1018 -1.2466  2.5257
 7250TIP3    H243242   2.813   6.162   0.089  0.3910 -0.5649 -3.6264
 7251TIP3   OH243243   0.427   5.840  12.246  0.5286 -0.2695 -0.1093
 7251TIP3    H143244   0.396   5.831  12.155  1.6938 -0.9823 -0.4470
 7251TIP3    H243245   0.464   5.755  12.268 -2.2922 -1.0856  2.0704
 7252TIP3   OH243246   5.478   4.631   5.343  0.0782  0.1226 -0.6797
 7252TIP3    H143247   5.515   4.708   5.387 -1.5952  1.1325 -0.9574
 7252TIP3    H243248   5.461   4.661   5.254 -0.5164 -0.6079 -0.8191
 7253TIP3   OH243249   2.306   0.351  10.185  0.6890  0.0588 -0.3658
 7253TIP3    H143250   2.345   0.420  10.131  0.2690  0.4822 -0.1286
 7253TIP3    H243251   2.216   0.380  10.200  0.5715 -0.4424 -0.0920
 7254TIP3   OH243252   0.726   0.607   2.157 -0.1586  0.3814  0.2233
 7254TIP3    H143253   0.755   0.691   2.121 -0.6721  0.0923 -0.9301
 7254TIP3    H243254   0.805   0.552   2.155 -0.4292 -0.0064 -1.6775
 7255TIP3   OH243255   2.839   1.855   0.206 -0.1252 -0.1427  0.1859
 7255TIP3    H143256   2.831   1.901   0.290  0.6771  0.9297 -0.3065
 7255TIP3    H243257   2.881   1.772   0.228 -1.1507 -0.4626  1.0222
 7256TIP3   OH243258   3.807   4.654  12.814  0.0290  0.1442 -0.2702
 7256TIP3    H143259   3.875   4.621  12.756 -0.3368 -1.6379  0.2358
 7256TIP3    H243260   3.799   4.586  12.881 -0.8136  1.2973  0.8396
 7257TIP3   OH243261   5.198   3.200   2.688 -0.1355  0.3253 -0.2852
 7257TIP3    H143262   5.234   3.122   2.729 -0.1217 -0.0110 -0.9203
 7257TIP3    H243263   5.275   3.248   2.656 -0.1940  0.1365 -0.7098
 7258TIP3   OH243264   6.115   5.218   4.464 -0.1712  0.2514  0.6945
 7258TIP3    H143265   6.170   5.271   4.405  0.3616 -1.3780 -0.3280
 7258TIP3    H243266   6.133   5.255   4.551 -0.8891  2.6390 -0.0763
 7259TIP3   OH243267   2.052   4.369  14.708 -0.0467 -0.3320  0.3662
 7259TIP3    H143268   2.131   4.316  14.724 -0.2421 -0.7170  0.0787
 7259TIP3    H243269   2.042   4.370  14.613  1.3542  2.3291  0.1484
 7260TIP3   OH243270   2.727   5.961   4.587 -0.6353  0.6983 -0.0512
 7260TIP3    H143271   2.634   5.943   4.576 -0.4808  0.2591 -0.6589
 7260TIP3    H243272   2.771   5.881   4.561 -0.0523  1.1293 -0.4190
 7261TIP3   OH243273   1.430   4.550  15.609  0.3547 -0.0747 -0.4663
 7261TIP3    H143274   1.352   4.599  15.583  0.8978  1.6773  1.0175
 7261TIP3    H243275   1.503   4.603  15.580  0.9895  1.2851  3.0727
 7262TIP3   OH243276   0.647   5.508  10.868  0.3034 -0.4949  0.0271
 7262TIP3    H143277   0.572   5.466  10.826 -1.4603  0.5585  1.9583
 7262TIP3    H243278   0.705   5.531  10.795 -0.4718 -2.7323 -1.3833
 7263TIP3   OH243279   5.799   0.544   2.976  0.3302 -0.3409  0.1762
 7263TIP3    H143280   5.780   0.451   2.991  1.1402 -0.5238  0.0985
 7263TIP3    H243281   5.717   0.580   2.944  0.4961 -1.4258 -1.6327
 7264TIP3   OH243282   0.932   1.764  12.915 -0.2464  0.0050  0.1274
 7264TIP3    H143283   0.869   1.774  12.843  0.7915 -0.2433 -0.8547
 7264TIP3    H243284   0.899   1.689  12.965 -0.2786 -0.6667 -0.8713
 7265TIP3   OH243285   4.673   5.043  16.464  0.2576  0.4312  0.8449
 7265TIP3    H143286   4.617   5.081  16.397 -0.2444 -3.5355 -1.2782
 7265TIP3    H243287   4.762   5.049  16.428  0.0418 -1.2693 -0.0739
 7266TIP3   OH243288   4.263   3.576  12.800 -0.3856 -0.1313 -0.3245
 7266TIP3    H143289   4.256   3.631  12.722  1.0720 -1.9186 -1.7917
 7266TIP3    H243290   4.298   3.635  12.867 -1.1993  1.3274 -1.1174
 7267TIP3   OH243291   4.163   3.978  12.011  0.0782 -0.6030 -0.2037
 7267TIP3    H143292   4.137   4.037  12.081  1.4443 -1.0484  0.7123
 7267TIP3    H243293   4.219   4.032  11.954 -0.5496 -0.4041 -0.6441
 7268TIP3   OH243294   5.583   3.157  15.036 -0.0066  0.1239  0.2500
 7268TIP3    H143295   5.517   3.220  15.008 -0.0651  0.2416  0.6433
 7268TIP3    H243296   5.610   3.188  15.123  0.4909  0.0190  0.1328
 7269TIP3   OH243297   1.131   4.080   0.084 -0.4245 -0.1725 -0.6343
 7269TIP3    H143298   1.151   4.165   0.046  0.8965 -0.8393 -1.5108
 7269TIP3    H243299   1.177   4.017   0.027 -3.0294 -1.6463 -1.2656
 7270TIP3   OH243300   6.232   1.341   5.752  0.1554 -0.3222  0.1561
 7270TIP3    H143301   6.232   1.376   5.841  3.2137  0.7383 -0.1509
 7270TIP3    H243302   6.202   1.414   5.697  1.0540  0.0066  0.0794
 7271TIP3   OH243303   5.570   1.708   5.443 -0.0151  0.0833  0.2961
 7271TIP3    H143304   5.494   1.760   5.416 -0.4842 -0.7353 -0.0020
 7271TIP3    H243305   5.644   1.747   5.397 -0.2495  0.8816  0.5802
 7272TIP3   OH243306   2.823   1.368   2.400 -0.5525  0.1903  0.3927
 7272TIP3    H143307   2.749   1.374   2.460  0.8278 -0.3650  2.2013
 7272TIP3    H243308   2.812   1.284   2.356  0.4153 -1.2218  2.6756
 7273TIP3   OH243309   3.275   2.812  13.051  0.5559  0.1284 -0.1792
 7273TIP3    H143310   3.199   2.868  13.066  0.9296  0.8711 -0.9333
 7273TIP3    H243311   3.244   2.744  12.992  0.5795  0.7286 -0.9081
 7274TIP3   OH243312   5.878   6.427  15.302  0.3011  0.4429 -0.0964
 7274TIP3    H143313   5.783   6.427  15.311  0.4631 -0.4170  1.9720
 7274TIP3    H243314   5.902   6.335  15.295  0.9079  0.7072 -2.1068
 7275TIP3   OH243315   4.424   5.084   3.040  0.3685 -0.0572 -0.3092
 7275TIP3    H143316   4.404   5.141   3.114  0.9142  0.1638 -0.3228
 7275TIP3    H243317   4.350   5.092   2.981 -0.5565 -1.0194  0.6817
 7276TIP3   OH243318   3.880   6.008  11.327 -0.4014 -0.4385  0.1024
 7276TIP3    H143319   3.941   5.935  11.336  0.1822 -0.0975 -0.9494
 7276TIP3    H243320   3.878   6.026  11.233 -0.2464  1.1550  0.3856
 7277TIP3   OH243321   4.554   3.357  10.729  0.3611  0.0298 -0.3617
 7277TIP3    H143322   4.491   3.318  10.789 -0.4519  1.2730 -0.3821
 7277TIP3    H243323   4.503   3.417  10.674  1.4693  0.7375 -0.6724
 7278TIP3   OH243324   6.675   2.012  12.486  0.2947 -0.4252  0.0156
 7278TIP3    H143325   6.677   2.086  12.547  3.3157 -0.8449  0.6152
 7278TIP3    H243326   6.724   1.943  12.531  0.5050 -1.6103 -1.9052
 7279TIP3   OH243327   6.147   2.620   1.791  0.7522  0.0851 -0.3716
 7279TIP3    H143328   6.132   2.586   1.703 -0.2794  0.0662 -0.2022
 7279TIP3    H243329   6.189   2.548   1.838 -1.3935 -0.9998 -0.0208
 7280TIP3   OH243330   4.051   4.059   0.853 -0.2334 -0.4520 -0.0186
 7280TIP3    H143331   4.026   3.970   0.878 -1.4200 -0.3798 -0.8505
 7280TIP3    H243332   4.022   4.113   0.926 -0.9503 -0.5736 -0.2104
 7281TIP3   OH243333   6.390   3.602   4.454  0.6610 -0.1028 -0.5514
 7281TIP3    H143334   6.367   3.577   4.364 -0.0268 -0.6767 -0.2314
 7281TIP3    H243335   6.484   3.619   4.451  0.7931 -0.8633 -1.2266
 7282TIP3   OH243336   4.490   4.916   3.781 -0.5767 -0.3796 -0.7771
 7282TIP3    H143337   4.556   4.950   3.720  1.1399 -0.6432  0.8313
 7282TIP3    H243338   4.519   4.827   3.800 -1.1680 -0.3645  0.2697
 7283TIP3   OH243339   0.018   4.067  11.421  0.5389  0.1719  0.0681
 7283TIP3    H143340   0.111   4.089  11.421  0.3130  1.2663 -0.9104
 7283TIP3    H243341  -0.019   4.120  11.492  0.5394  0.4118 -0.1058
 7284TIP3   OH243342   1.132   6.607  16.777 -0.2833 -0.1339 -0.3951
 7284TIP3    H143343   1.223   6.615  16.747 -0.3968  0.4529 -0.6035
 7284TIP3    H243344   1.084   6.578  16.700 -0.3849  0.2487 -0.4792
 7285TIP3   OH243345   0.579   5.939  14.066  0.1210  0.0723 -0.2081
 7285TIP3    H143346   0.520   5.864  14.076 -0.8712  1.1368  3.3173
 7285TIP3    H243347   0.521   6.015  14.059  1.0104  0.9615  1.4505
 7286TIP3   OH243348   0.481   2.121  13.245  0.1959  0.5329  0.0755
 7286TIP3    H143349   0.492   2.084  13.157 -0.1523  0.2706  0.1408
 7286TIP3    H243350   0.428   2.199  13.231 -0.8890 -0.1630  0.1867
 7287TIP3   OH243351   6.382   4.850   0.622  0.2254  0.2659  0.1463
 7287TIP3    H143352   6.382   4.925   0.681  1.2707 -0.2008  0.7691
 7287TIP3    H243353   6.300   4.805   0.640 -1.2568  2.1730 -1.4694
 7288TIP3   OH243354   3.079   1.025   2.865 -0.4455  0.1690  0.3979
 7288TIP3    H143355   3.079   1.064   2.952  1.4227  0.6562  0.2274
 7288TIP3    H243356   3.034   0.941   2.876  0.9555 -0.4063  2.1606
 7289TIP3   OH243357   3.268   5.590   5.783 -0.3206 -0.1000  0.4223
 7289TIP3    H143358   3.247   5.564   5.873  0.8938 -2.6745  0.0315
 7289TIP3    H243359   3.184   5.618   5.746 -1.3364 -1.4994  1.5767
 7290TIP3   OH243360   6.825   1.456  11.959 -0.5465 -0.3932 -0.2721
 7290TIP3    H143361   6.847   1.383  12.017  0.1525  0.6804  0.8568
 7290TIP3    H243362   6.788   1.414  11.881  2.7599 -2.1805 -1.0569
 7291TIP3   OH243363   2.386   5.434  12.863  0.4737 -0.1836  0.8158
 7291TIP3    H143364   2.366   5.441  12.770  0.0193 -1.6228  0.7725
 7291TIP3    H243365   2.315   5.380  12.899 -0.2193  1.6396  2.3166
 7292TIP3   OH243366   0.847   2.803   1.668  0.1292 -0.2891 -0.9486
 7292TIP3    H143367   0.898   2.871   1.625  0.6897 -1.5468 -2.3377
 7292TIP3    H243368   0.810   2.752   1.597  0.8517 -2.2710  0.0319
 7293TIP3   OH243369   3.415   5.400  11.154 -0.0264  0.4201  0.3425
 7293TIP3    H143370   3.507   5.415  11.177 -0.5437  0.7589  2.3185
 7293TIP3    H243371   3.419   5.346  11.075  1.9026 -2.0548  1.9777
 7294TIP3   OH243372   0.953   3.335   2.268 -0.0840  0.3796  0.8290
 7294TIP3    H143373   1.023   3.289   2.222 -0.0964  2.6574 -1.7113
 7294TIP3    H243374   0.874   3.311   2.219 -0.4845  0.8831  1.2261
 7295TIP3   OH243375   3.771   4.846   1.556  0.6074 -0.2724  0.1096
 7295TIP3    H143376   3.853   4.801   1.536  0.2275 -0.8771 -0.1074
 7295TIP3    H243377   3.702   4.788   1.521  0.0226 -0.4224  1.4619
 7296TIP3   OH243378   5.962   5.970  12.671 -0.2032 -0.0893  0.1442
 7296TIP3    H143379   6.039   6.026  12.669  0.2909 -0.7787 -0.4714
 7296TIP3    H243380   5.968   5.917  12.591 -0.1708 -1.6680  1.1548
 7297TIP3   OH243381   0.611   1.758   1.385  0.3469  0.1278 -0.2031
 7297TIP3    H143382   0.655   1.674   1.369 -0.8970 -0.3391 -1.3608
 7297TIP3    H243383   0.666   1.823   1.341  0.4049 -0.3063 -0.7801
 7298TIP3   OH243384   0.446   6.514  12.637 -0.7915 -0.4732 -0.2115
 7298TIP3    H143385   0.495   6.594  12.619 -0.5412 -0.6471 -0.3172
 7298TIP3    H243386   0.451   6.504  12.732 -0.8662 -0.3371 -0.1927
 7299TIP3   OH243387   4.161   1.264   4.143  0.6529  0.6159 -0.1523
 7299TIP3    H143388   4.213   1.184   4.147  0.9439  0.8456  1.0099
 7299TIP3    H243389   4.159   1.287   4.051  2.0927  0.2613 -0.2906
 7300TIP3   OH243390   6.352   1.958   3.042  0.1091 -0.3092  0.1724
 7300TIP3    H143391   6.375   1.913   2.961  1.8766  1.8623 -0.6203
 7300TIP3    H243392   6.392   1.905   3.111  1.1019 -0.6035 -0.6105
 7301TIP3   OH243393   5.309   0.573  15.324  0.6475 -0.2659  0.7256
 7301TIP3    H143394   5.404   0.584  15.311  0.3290  2.4364  0.1643
 7301TIP3    H243395   5.290   0.622  15.403 -0.1874 -1.5948  1.3801
 7302TIP3   OH243396   6.049   6.555   5.253  0.1767  0.3025  0.3752
 7302TIP3    H143397   6.073   6.639   5.212  0.7004  0.6547  1.3866
 7302TIP3    H243398   6.079   6.489   5.191 -0.8391  0.8528 -0.7576
 7303TIP3   OH243399   6.782   4.126   6.324  0.0544  0.1138  0.2321
 7303TIP3    H143400   6.734   4.052   6.286  0.0325 -0.3180  1.0905
 7303TIP3    H243401   6.751   4.132   6.414  0.2930  0.9748  0.2624
 7304TIP3   OH243402   2.994   3.659   1.930  0.3243  0.5574  0.0410
 7304TIP3    H143403   2.948   3.644   1.848  0.0898  1.1855  0.0562
 7304TIP3    H243404   3.057   3.586   1.935  1.4851  1.3834 -1.4999
 7305TIP3   OH243405   1.151   4.577  15.437 -0.1727 -0.1216 -0.6258
 7305TIP3    H143406   1.170   4.670  15.434  0.5093 -0.2166  0.2898
 7305TIP3    H243407   1.152   4.549  15.345  1.2478  0.4606 -0.8101
 7306TIP3   OH243408   5.990   1.776   1.312 -0.0089 -0.1270 -0.2420
 7306TIP3    H143409   5.977   1.807   1.402 -2.4316  0.0356 -0.5632
 7306TIP3    H243410   6.079   1.740   1.311 -0.0154 -0.4008  2.3064
 7307TIP3   OH243411   3.620   4.993   4.194  0.7659  0.4927 -1.1044
 7307TIP3    H143412   3.681   4.957   4.258  0.1019 -0.7670 -1.1521
 7307TIP3    H243413   3.651   4.959   4.110  0.8155  1.0076 -1.2995
 7308TIP3   OH243414   0.242   1.681  15.555 -0.3499  0.7027  0.1524
 7308TIP3    H143415   0.170   1.621  15.574 -0.9190  0.8578 -1.3992
 7308TIP3    H243416   0.321   1.628  15.571 -0.8388 -0.6428 -1.5900
 7309TIP3   OH243417   6.463   2.697  15.180 -0.0054 -0.0839  0.9324
 7309TIP3    H143418   6.394   2.730  15.237  1.2988  0.4928  2.2385
 7309TIP3    H243419   6.523   2.771  15.169  1.1024 -0.9463  0.9623
 7310TIP3   OH243420   3.670   4.038   5.336 -0.8944  0.8590  0.5898
 7310TIP3    H143421   3.595   4.005   5.385  0.6766 -0.4908  2.2232
 7310TIP3    H243422   3.714   3.959   5.304  0.6363  1.5178  0.9733
 7311TIP3   OH243423   0.811   6.651   1.175  0.1014  0.1448  0.2544
 7311TIP3    H143424   0.751   6.725   1.183  1.4281  1.4171 -0.9831
 7311TIP3    H243425   0.777   6.600   1.102  1.2055  1.6135 -1.3613
 7312TIP3   OH243426   1.605   6.419  16.601 -0.2222 -0.3052 -0.6107
 7312TIP3    H143427   1.523   6.407  16.649  0.2491 -0.2544  0.2457
 7312TIP3    H243428   1.646   6.332  16.602 -0.2208 -0.3072 -0.9423
 7313TIP3   OH243429   4.884   4.056   4.456 -0.3931 -0.4378  0.5807
 7313TIP3    H143430   4.853   4.037   4.544 -0.7807 -0.5762  0.4185
 7313TIP3    H243431   4.978   4.068   4.465 -0.6158  0.9291  1.2395
 7314TIP3   OH243432   4.474   3.169  11.183  0.1804  0.0664 -0.2016
 7314TIP3    H143433   4.468   3.233  11.112 -0.8106  0.3794  0.1517
 7314TIP3    H243434   4.383   3.150  11.206  0.4505 -1.3866 -0.2227
 7315TIP3   OH243435   3.919   3.659  11.484 -0.2292 -0.0852  0.5135
 7315TIP3    H143436   3.987   3.625  11.425 -0.8003 -2.1079  0.9442
 7315TIP3    H243437   3.941   3.621  11.569 -1.9855 -0.9719  0.6205
 7316TIP3   OH243438   3.874   6.324  13.826 -0.1425 -0.3528  0.5508
 7316TIP3    H143439   3.915   6.403  13.863 -0.0153 -0.9510  1.7444
 7316TIP3    H243440   3.784   6.351  13.807 -0.4149 -0.1604  1.9349
 7317TIP3   OH243441   3.731   6.377   5.974  0.6964  0.4114  0.0046
 7317TIP3    H143442   3.686   6.384   6.059 -0.4941 -0.5171 -0.5136
 7317TIP3    H243443   3.732   6.283   5.956  0.9792  0.5951 -0.9909
 7318TIP3   OH243444   1.320   6.499   4.017 -0.4391  0.2131 -0.7165
 7318TIP3    H143445   1.338   6.535   4.103 -0.8823  1.0647 -0.9730
 7318TIP3    H243446   1.282   6.571   3.967  1.1709  0.1880 -2.0924
 7319TIP3   OH243447   5.032   1.598   5.723  0.4846 -0.4419 -0.7653
 7319TIP3    H143448   5.125   1.611   5.707  0.4585  0.6116 -0.1927
 7319TIP3    H243449   5.026   1.580   5.817 -0.0326  1.4640 -0.3822
 7320TIP3   OH243450   3.277   1.791   3.097 -0.5385  0.5203 -0.5923
 7320TIP3    H143451   3.315   1.878   3.088  1.6136 -0.3749 -0.6964
 7320TIP3    H243452   3.305   1.761   3.184 -2.2807  0.3697 -0.0409
 7321TIP3   OH243453   2.017   1.053   0.569  0.1921 -0.7288  0.3964
 7321TIP3    H143454   2.062   1.010   0.497 -0.9650 -0.3178 -0.6036
 7321TIP3    H243455   2.043   1.003   0.647  2.4376 -0.4249 -0.0991
 7322TIP3   OH243456   3.070   6.778   4.758 -0.2948  0.4679  0.6191
 7322TIP3    H143457   3.133   6.820   4.817  0.4013  1.6395 -0.8871
 7322TIP3    H243458   3.082   6.684   4.773  0.3341  0.7184  1.8374
 7323TIP3   OH243459   1.200   4.159   4.019  0.0930  0.2479  0.1178
 7323TIP3    H143460   1.148   4.101   3.963 -0.5518  2.3088 -1.5336
 7323TIP3    H243461   1.283   4.168   3.973 -0.3920  1.8570 -0.4893
 7324TIP3   OH243462   3.847   5.741  16.097  0.3742 -0.2791 -0.1071
 7324TIP3    H143463   3.800   5.658  16.103 -2.5875  1.2385 -0.3230
 7324TIP3    H243464   3.882   5.742  16.007  0.5816 -1.3130 -0.0530
 7325TIP3   OH243465   2.203   5.153   5.481  0.1975  0.0146 -0.2593
 7325TIP3    H143466   2.130   5.124   5.536  1.1155 -1.0848  0.4046
 7325TIP3    H243467   2.258   5.076   5.471  1.9131  1.1188  0.2548
 7326TIP3   OH243468   5.664   6.194  16.635  0.6160 -0.9551  0.1739
 7326TIP3    H143469   5.744   6.219  16.682  0.9567  0.2764 -0.9820
 7326TIP3    H243470   5.690   6.192  16.543 -0.7849 -0.0422 -0.2706
 7327TIP3   OH243471   6.437   4.047  13.313 -0.1057 -0.3574 -0.5609
 7327TIP3    H143472   6.442   3.979  13.245 -0.2457 -0.1014 -0.8295
 7327TIP3    H243473   6.459   4.001  13.394 -0.6474 -0.8245 -0.6738
 7328TIP3   OH243474   2.920   1.243   6.805 -0.1989  0.2284  0.0268
 7328TIP3    H143475   2.827   1.219   6.798  0.0497 -0.3721 -1.6464
 7328TIP3    H243476   2.943   1.275   6.718  0.7930  1.9083  0.8458
 7329TIP3   OH243477   0.515   0.747   0.196  0.8339  0.5847 -0.7971
 7329TIP3    H143478   0.514   0.678   0.262  2.4794  0.4291 -0.9109
 7329TIP3    H243479   0.466   0.819   0.237  1.6588  0.4209  0.5208
 7330TIP3   OH243480   5.881   3.259  14.836  0.0887  0.6779  0.2854
 7330TIP3    H143481   5.870   3.188  14.900  0.3359  1.1023  0.7990
 7330TIP3    H243482   5.975   3.263  14.820 -0.0612 -0.1411 -0.9312
 7331TIP3   OH243483   3.668   1.148  14.597  0.1144  0.3194  0.1615
 7331TIP3    H143484   3.621   1.087  14.540  1.9593 -0.0780 -1.0301
 7331TIP3    H243485   3.604   1.173  14.664 -1.5674 -0.6466 -1.0120
 7332TIP3   OH243486   3.922   2.114   3.516 -0.6573 -0.1748 -0.7098
 7332TIP3    H143487   3.977   2.065   3.577 -0.7305  0.5394 -0.0674
 7332TIP3    H243488   3.964   2.199   3.509 -1.7034  0.3967 -0.1728
 7333TIP3   OH243489   1.454   0.493   6.668  0.9167 -0.0047 -0.6316
 7333TIP3    H143490   1.451   0.510   6.574  1.0021  0.5504 -0.5401
 7333TIP3    H243491   1.531   0.541   6.698  0.1096  0.9653 -0.0625
 7334TIP3   OH243492   6.786   2.639   6.294  0.4021  0.2373 -0.2548
 7334TIP3    H143493   6.707   2.597   6.327  0.9932 -1.6890 -1.1936
 7334TIP3    H243494   6.834   2.664   6.373  1.3978 -3.5215  0.4894
 7335TIP3   OH243495   6.159   6.495   5.918  0.6503  0.7736 -0.1459
 7335TIP3    H143496   6.178   6.402   5.914  0.2402  0.6763  0.1944
 7335TIP3    H243497   6.167   6.525   5.827 -0.9702  0.0717 -0.5423
 7336TIP3   OH243498   0.352   2.361  12.816 -0.3879 -0.3091  0.2378
 7336TIP3    H143499   0.418   2.363  12.746 -1.6691 -0.8377 -1.0379
 7336TIP3    H243500   0.361   2.273  12.854 -0.3063 -0.3610  0.1012
 7337TIP3   OH243501   5.002   4.097   5.658  0.3542  0.0322 -0.5056
 7337TIP3    H143502   5.042   4.017   5.623  0.1370 -0.2178 -0.1865
 7337TIP3    H243503   4.927   4.066   5.708 -1.7772  0.6318 -3.1273
 7338TIP3   OH243504   0.653   2.933  14.232  0.0235 -0.0165  0.1197
 7338TIP3    H143505   0.717   3.002  14.214  0.3524  0.0806  1.5225
 7338TIP3    H243506   0.638   2.938  14.327 -1.7650 -0.3136 -0.1189
 7339TIP3   OH243507   2.545   0.158  16.586 -0.3385  0.2430  0.5969
 7339TIP3    H143508   2.560   0.195  16.499 -0.8143  0.7341  0.7230
 7339TIP3    H243509   2.472   0.097  16.575  0.4042 -0.6374  0.4001
 7340TIP3   OH243510   3.726   5.503   3.184 -0.0580  0.0534 -0.4744
 7340TIP3    H143511   3.754   5.573   3.243 -0.1002 -0.1004 -0.2697
 7340TIP3    H243512   3.769   5.522   3.101  0.9893 -0.4094 -0.0503
 7341TIP3   OH243513   6.529   5.225   1.934  0.0673  0.2990  0.3926
 7341TIP3    H143514   6.438   5.233   1.906  0.1715 -0.0490 -0.0572
 7341TIP3    H243515   6.525   5.177   2.017  0.0852 -3.8675 -1.7492
 7342TIP3   OH243516   6.273   2.752  12.201  0.2301  0.5899 -0.3466
 7342TIP3    H143517   6.302   2.720  12.116 -0.5760  0.6731 -0.6570
 7342TIP3    H243518   6.179   2.768  12.191  0.1114  0.5573  0.5665
 7343TIP3   OH243519   2.111   1.912   3.496 -0.0894  0.2607  0.1339
 7343TIP3    H143520   2.017   1.901   3.512 -0.1157  1.2353  0.6887
 7343TIP3    H243521   2.147   1.933   3.582  0.5279  0.6252 -0.2122
 7344TIP3   OH243522   4.990   2.419   6.087  0.2662 -0.4246  0.0509
 7344TIP3    H143523   5.076   2.458   6.106  0.2662  0.0132 -0.8024
 7344TIP3    H243524   4.950   2.407   6.172  1.9133 -2.3656  0.6452
 7345TIP3   OH243525   1.529   0.521  17.012  0.5418 -0.0932  0.4701
 7345TIP3    H143526   1.568   0.441  17.047 -0.3782  0.2197  2.3147
 7345TIP3    H243527   1.603   0.582  17.006  0.8351 -0.3478  1.3111
 7346TIP3   OH243528   3.618   2.291  14.290 -0.5982  0.0752 -0.1495
 7346TIP3    H143529   3.594   2.289  14.383  0.2254  1.1507  0.1112
 7346TIP3    H243530   3.627   2.384  14.270  1.4817 -0.1998 -0.7013
 7347TIP3   OH243531   5.472   4.771  17.203  0.3152 -0.3425  0.0211
 7347TIP3    H143532   5.544   4.716  17.233  0.0019 -1.2200 -0.7767
 7347TIP3    H243533   5.483   4.775  17.108  0.8872  1.8014  0.1183
 7348TIP3   OH243534   2.548   0.630   5.519 -0.3179 -0.2234  0.3134
 7348TIP3    H143535   2.643   0.643   5.519  0.0428 -2.4231 -1.0122
 7348TIP3    H243536   2.517   0.687   5.448  0.4418 -1.6640 -1.2594
 7349TIP3   OH243537   5.934   4.642  13.141 -0.0145  0.3365  0.3598
 7349TIP3    H143538   5.855   4.591  13.121 -0.4308  0.1027  2.4327
 7349TIP3    H243539   5.998   4.613  13.075 -0.8627 -1.3879  0.2328
 7350TIP3   OH243540   1.333   1.153  13.939 -0.3442  0.4101 -0.2830
 7350TIP3    H143541   1.246   1.176  13.970  0.5243  0.8298  2.0380
 7350TIP3    H243542   1.366   1.090  14.002  1.0266  0.2057 -1.1432
 7351TIP3   OH243543   4.876   4.244  13.046  0.4076 -0.2456  0.4716
 7351TIP3    H143544   4.811   4.274  13.110 -0.5756 -2.2247  0.4509
 7351TIP3    H243545   4.841   4.163  13.012  1.3185  0.3328 -2.0276
 7352TIP3   OH243546   2.454   2.837  12.636  0.1951 -0.1863  0.2915
 7352TIP3    H143547   2.526   2.864  12.579  0.2414  0.7820  0.7911
 7352TIP3    H243548   2.496   2.809  12.717 -0.0249  2.3763  1.3954
 7353TIP3   OH243549   0.714   5.046  16.500 -0.6496  0.0875  0.1958
 7353TIP3    H143550   0.673   4.982  16.557  0.0835  0.2398  0.9222
 7353TIP3    H243551   0.698   5.130  16.543  0.4548  0.1412  0.5429
 7354TIP3   OH243552   6.225   5.342  14.352 -0.2374  0.3741 -0.3930
 7354TIP3    H143553   6.189   5.351  14.263 -0.1310 -0.4640 -0.5224
 7354TIP3    H243554   6.173   5.272  14.391  0.6898 -0.2662 -0.2907
 7355TIP3   OH243555   6.323   1.846   0.203 -0.6835  0.9541  0.1849
 7355TIP3    H143556   6.232   1.818   0.194 -0.9974  1.9930 -0.0344
 7355TIP3    H243557   6.374   1.773   0.166 -1.3393 -0.1455  1.3555
 7356TIP3   OH243558   6.753   1.340   1.168 -0.2621  0.2307  0.6527
 7356TIP3    H143559   6.691   1.383   1.109 -0.3176 -0.0583  0.4970
 7356TIP3    H243560   6.761   1.400   1.242  1.0199  1.3657 -0.3548
 7357TIP3   OH243561   4.544   2.676  15.071 -0.2210 -0.0555  0.3463
 7357TIP3    H143562   4.607   2.609  15.096  0.4317  0.8364  1.1620
 7357TIP3    H243563   4.461   2.648  15.110 -0.1730 -0.8694 -0.1284
 7358TIP3   OH243564   3.204   4.062   5.764 -0.1106 -0.5314  0.0215
 7358TIP3    H143565   3.232   4.132   5.823  0.0146 -0.7986  0.2829
 7358TIP3    H243566   3.111   4.080   5.749  0.2895  0.6596 -1.2654
 7359TIP3   OH243567   2.558   2.180   0.048  0.9224  0.3530 -0.0614
 7359TIP3    H143568   2.579   2.195  -0.044  0.3863 -1.2250 -0.4820
 7359TIP3    H243569   2.641   2.188   0.094  1.1586  1.3911 -0.6311
 7360TIP3   OH243570   0.260   2.973   6.793  0.8903  0.2711 -0.5694
 7360TIP3    H143571   0.206   2.996   6.718  1.6644  0.2584 -1.1512
 7360TIP3    H243572   0.309   3.053   6.813 -1.0335  1.0342  1.4785
 7361TIP3   OH243573   1.452   3.836  12.329  0.4960 -0.5386  0.1386
 7361TIP3    H143574   1.499   3.821  12.410 -1.6200  2.6273  2.1867
 7361TIP3    H243575   1.360   3.837  12.354 -0.2004  1.1209 -2.1284
 7362TIP3   OH243576   5.449   2.385   5.165  0.0605 -0.6404 -0.1317
 7362TIP3    H143577   5.435   2.436   5.085 -1.6085 -0.4418  0.2485
 7362TIP3    H243578   5.410   2.300   5.146 -1.2798 -0.2678  0.7841
 7363TIP3   OH243579   4.357   4.035   5.188  0.3287 -0.5399  0.1637
 7363TIP3    H143580   4.341   3.943   5.167 -0.6661 -0.8783  2.1320
 7363TIP3    H243581   4.270   4.072   5.200  0.7475  0.3238  0.6173
 7364TIP3   OH243582   2.948   2.768  15.587  0.6859 -0.5088  0.4884
 7364TIP3    H143583   2.866   2.746  15.543  1.3098 -0.5076 -0.7188
 7364TIP3    H243584   2.980   2.845  15.540  0.9345  0.0503  1.5428
 7365TIP3   OH243585   6.692   0.861   1.901 -0.2807  0.4058  0.2788
 7365TIP3    H143586   6.686   0.957   1.898  1.8721  0.5763 -0.9546
 7365TIP3    H243587   6.713   0.836   1.811  0.5468 -1.0922  0.8625
 7366TIP3   OH243588   5.115   4.331   4.368  0.1320 -0.0164 -0.1677
 7366TIP3    H143589   5.078   4.348   4.455 -0.9140  0.1708 -0.6307
 7366TIP3    H243590   5.106   4.237   4.356  1.6605 -0.2823  0.5126
 7367TIP3   OH243591   1.590   1.330   0.717  0.2088 -0.1568  0.5481
 7367TIP3    H143592   1.587   1.259   0.782  1.7532  0.9640  1.9438
 7367TIP3    H243593   1.668   1.312   0.666  1.5780  1.3362  1.9878
 7368TIP3   OH243594   6.503   5.619   2.733 -0.4927 -0.0080  0.2946
 7368TIP3    H143595   6.528   5.661   2.814  1.0186 -2.3078  1.1335
 7368TIP3    H243596   6.478   5.530   2.758 -0.8457 -0.5261 -1.6598
 7369TIP3   OH243597   3.063   2.486  16.215  0.4829 -0.3908  0.1846
 7369TIP3    H143598   2.971   2.512  16.223  0.4093 -0.1315 -1.3189
 7369TIP3    H243599   3.068   2.403  16.263 -1.5092 -2.5618 -3.0088
 7370TIP3   OH243600   4.447   5.048  14.494 -0.0450 -0.2790  0.2354
 7370TIP3    H143601   4.362   5.084  14.522 -0.3341 -0.1780 -0.7429
 7370TIP3    H243602   4.506   5.068  14.567 -0.8197 -0.2075  0.8610
 7371TIP3   OH243603   2.505   5.967   0.048 -0.4021 -0.2549  0.4038
 7371TIP3    H143604   2.494   6.017  -0.033  1.8783 -0.8196 -0.3082
 7371TIP3    H243605   2.599   5.969   0.065 -0.1742 -4.2389  0.3693
 7372TIP3   OH243606   6.761   0.035   1.859 -0.0470 -0.0355  0.2883
 7372TIP3    H143607   6.709   0.115   1.855  0.8857  0.6623  1.4806
 7372TIP3    H243608   6.697  -0.034   1.878 -0.6098  0.7320  1.2960
 7373TIP3   OH243609   1.105   4.421  15.848  0.4478 -0.4888  0.8163
 7373TIP3    H143610   1.038   4.399  15.912  1.4728  1.0345  2.4921
 7373TIP3    H243611   1.060   4.415  15.763 -1.8178  0.5487  1.8769
 7374TIP3   OH243612   0.814   5.007   2.007  0.0764 -0.0662 -0.7059
 7374TIP3    H143613   0.864   4.944   1.955  0.9711 -0.0366  0.0860
 7374TIP3    H243614   0.734   4.960   2.031 -0.5934  0.0925 -2.4993
 7375TIP3   OH243615   5.899   4.997  12.167 -0.1252  0.8177  0.2987
 7375TIP3    H143616   5.833   5.042  12.113  0.7190  1.5154 -0.1770
 7375TIP3    H243617   5.875   4.905  12.162  0.5446  0.7022 -2.2100
 7376TIP3   OH243618   4.761   5.643  13.370  0.2887 -0.6856  0.5806
 7376TIP3    H143619   4.821   5.703  13.414  0.7805  0.4972 -1.5775
 7376TIP3    H243620   4.817   5.584  13.320 -0.2429 -2.1441  1.6425
 7377TIP3   OH243621   0.478   4.694   0.734  0.6514 -0.1244  0.4992
 7377TIP3    H143622   0.396   4.739   0.756  0.9431  1.1165 -0.7652
 7377TIP3    H243623   0.451   4.623   0.675  0.5974  1.3887 -1.3921
 7378TIP3   OH243624   0.520   0.264  14.258 -0.6037  0.0335  0.0133
 7378TIP3    H143625   0.436   0.297  14.227 -0.2513 -0.5914 -1.7020
 7378TIP3    H243626   0.551   0.206  14.188  1.0734 -0.0558  0.7708
 7379TIP3   OH243627   5.133   0.270  11.299 -0.7244 -0.0466  0.1066
 7379TIP3    H143628   5.129   0.177  11.323 -0.5411 -0.0349  0.1857
 7379TIP3    H243629   5.215   0.301  11.338  0.4228 -0.3992 -1.8707
 7380TIP3   OH243630   0.752   2.404   2.160  0.3649 -0.3740  0.5174
 7380TIP3    H143631   0.706   2.325   2.135 -1.3829  0.4175  1.1080
 7380TIP3    H243632   0.760   2.454   2.078  2.2021 -1.4451 -0.0271
 7381TIP3   OH243633   3.380   0.739   3.756 -0.0756  0.2396  0.4810
 7381TIP3    H143634   3.456   0.683   3.744  0.4113  1.2799 -1.8730
 7381TIP3    H243635   3.395   0.783   3.840  1.4464 -0.2575  0.4938
 7382TIP3   OH243636   1.706   2.061  11.446 -0.8039 -0.4469  0.0480
 7382TIP3    H143637   1.723   2.151  11.418 -0.9509 -0.5747 -0.4632
 7382TIP3    H243638   1.624   2.038  11.401 -2.0810 -0.0230  2.0288
 7383TIP3   OH243639   5.392   6.578   0.257  0.2410  0.4369 -0.4258
 7383TIP3    H143640   5.353   6.666   0.261 -1.7707 -0.2966 -2.0666
 7383TIP3    H243641   5.331   6.528   0.203  0.6003 -2.3583  1.5593
 7384TIP3   OH243642   3.274   0.537  11.975 -0.0775 -0.6167  0.5908
 7384TIP3    H143643   3.305   0.511  12.062  0.6508  2.2998  1.2992
 7384TIP3    H243644   3.191   0.583  11.992 -1.9438 -3.2470 -0.7169
 7385TIP3   OH243645   6.701   0.216   1.035  0.5482  0.2603 -0.4985
 7385TIP3    H143646   6.662   0.222   1.123 -0.2144  0.4801 -0.8448
 7385TIP3    H243647   6.636   0.169   0.983  1.3058 -0.4976 -0.7796
 7386TIP3   OH243648   6.440   1.869  12.422  0.1812 -0.1330  1.3269
 7386TIP3    H143649   6.505   1.939  12.426 -2.0678  2.0914  1.4509
 7386TIP3    H243650   6.486   1.796  12.381  2.2364  1.9461 -0.3688
 7387TIP3   OH243651   1.326   5.405  12.223 -0.2939 -0.0465  0.1197
 7387TIP3    H143652   1.312   5.317  12.258 -1.6245 -1.4521 -3.3762
 7387TIP3    H243653   1.243   5.450  12.239  0.3183  0.5763  1.7313
 7388TIP3   OH243654   3.649   1.863  16.807  0.5458 -0.1442 -0.4226
 7388TIP3    H143655   3.569   1.826  16.770 -0.0845  0.9050 -0.1564
 7388TIP3    H243656   3.675   1.802  16.875 -0.8774  0.2373  0.4969
 7389TIP3   OH243657   3.198   4.760  14.166 -0.6131 -0.1515 -0.4441
 7389TIP3    H143658   3.177   4.845  14.126  0.7845  0.6332  0.4366
 7389TIP3    H243659   3.194   4.698  14.093  0.1953  0.9702 -1.4812
 7390TIP3   OH243660   2.495   6.676   2.628 -0.3375 -0.3005  0.1807
 7390TIP3    H143661   2.514   6.591   2.588 -1.2984  0.2805 -1.6679
 7390TIP3    H243662   2.473   6.732   2.554 -2.3246  0.8491  1.5371
 7391TIP3   OH243663   0.109   3.580  14.228 -0.4668  0.5948 -1.2642
 7391TIP3    H143664   0.165   3.654  14.254 -2.2998  0.7368  3.2121
 7391TIP3    H243665   0.024   3.620  14.209 -0.4209 -0.0517 -2.9343
 7392TIP3   OH243666   5.304   3.400   1.031  0.3240 -0.2484 -0.3120
 7392TIP3    H143667   5.371   3.346   1.073 -0.5734 -1.8870 -0.8911
 7392TIP3    H243668   5.331   3.490   1.049  0.3607 -0.8265  3.1734
 7393TIP3   OH243669   5.667   5.462  13.501 -0.1749 -0.3722 -0.0960
 7393TIP3    H143670   5.638   5.475  13.591  1.1752 -4.2496  1.1137
 7393TIP3    H243671   5.763   5.461  13.507 -0.0607 -0.6177 -1.5842
 7394TIP3   OH243672   1.203   1.486   1.630 -0.3902 -0.0368 -0.4216
 7394TIP3    H143673   1.263   1.520   1.563 -1.2329 -0.0580 -1.2037
 7394TIP3    H243674   1.117   1.491   1.590 -1.1730  1.6028  1.2933
 7395TIP3   OH243675   2.650   0.894  12.415 -0.1907  0.3726 -0.3193
 7395TIP3    H143676   2.660   0.848  12.499 -0.0841  0.0877 -0.4899
 7395TIP3    H243677   2.708   0.970  12.423  0.6065 -0.1943 -0.5237
 7396TIP3   OH243678   6.059   1.846   0.163  0.4858 -0.0598 -0.0399
 7396TIP3    H143679   5.966   1.867   0.176  0.1321 -1.9854  0.7815
 7396TIP3    H243680   6.084   1.897   0.086 -0.6035  2.3196  1.0673
 7397TIP3   OH243681   1.246   2.151   1.659  0.0164 -0.0901  0.4313
 7397TIP3    H143682   1.263   2.086   1.728  1.2591  0.3597  0.5681
 7397TIP3    H243683   1.271   2.107   1.578 -1.0589 -0.4740  0.2901
 7398TIP3   OH243684   3.291   0.782   3.310 -0.1234 -0.1589 -0.2342
 7398TIP3    H143685   3.301   0.693   3.343 -0.5041 -0.0311  0.2404
 7398TIP3    H243686   3.292   0.773   3.215 -1.6225 -0.8459 -0.2026
 7399TIP3   OH243687   5.883   1.943  15.169  0.3174 -0.5117 -0.5473
 7399TIP3    H143688   5.796   1.947  15.209  1.3507  3.3943  1.9927
 7399TIP3    H243689   5.882   2.012  15.102  1.0898 -1.3286 -1.4256
 7400TIP3   OH243690   4.435   3.317  10.976 -0.0851  0.0624  0.9184
 7400TIP3    H143691   4.352   3.270  10.978 -1.1823  1.6663 -1.7628
 7400TIP3    H243692   4.411   3.409  10.990  0.7046  0.9742 -2.5953
 7401TIP3   OH243693   2.660   4.181  15.215  0.5600  0.2927 -0.2357
 7401TIP3    H143694   2.604   4.116  15.172  0.2684  0.0926  0.4332
 7401TIP3    H243695   2.690   4.237  15.144  1.7689 -1.2635 -0.9994
 7402TIP3   OH243696   6.166   1.538  16.824 -0.0410 -0.4116 -0.3877
 7402TIP3    H143697   6.133   1.605  16.883  2.3259  1.2592 -0.8374
 7402TIP3    H243698   6.115   1.460  16.846 -2.0892  1.1871  0.9559
 7403TIP3   OH243699   1.508   3.645  12.134 -0.1412  0.0494  0.4900
 7403TIP3    H143700   1.554   3.599  12.203 -0.8773 -1.3968  0.0485
 7403TIP3    H243701   1.445   3.701  12.180  0.1074 -0.0836  1.0008
 7404TIP3   OH243702   5.485   2.030  10.583 -0.0812 -0.2539 -0.2844
 7404TIP3    H143703   5.491   1.936  10.601 -0.3898 -0.3482 -0.6507
 7404TIP3    H243704   5.423   2.062  10.649  1.0624 -0.0527  0.7214
 7405TIP3   OH243705   2.661   1.761   4.426  0.3557 -0.2210 -0.1758
 7405TIP3    H143706   2.680   1.670   4.402 -2.4019 -0.5347 -1.6212
 7405TIP3    H243707   2.667   1.809   4.343 -0.7030  0.4106  0.0940
 7406TIP3   OH243708   0.139   5.519   1.890 -0.6979 -0.1551 -0.3833
 7406TIP3    H143709   0.185   5.462   1.951  0.3998  0.8454 -0.2509
 7406TIP3    H243710   0.051   5.480   1.882 -0.1963 -1.4517  0.2180
 7407TIP3   OH243711   4.776   4.961  15.662  0.5199  0.2278  0.0344
 7407TIP3    H143712   4.765   5.056  15.664  1.2973  0.3214  0.4886
 7407TIP3    H243713   4.821   4.940  15.745  1.0859 -0.4337 -0.4229
 7408TIP3   OH243714   3.722   2.020  12.237  0.1952 -0.1148  0.0245
 7408TIP3    H143715   3.726   2.067  12.320 -0.1280  1.0260 -0.5898
 7408TIP3    H243716   3.778   1.944  12.250 -0.3130 -0.2777  1.4832
 7409TIP3   OH243717   0.315   2.081  12.538  0.1598  0.0187 -0.1868
 7409TIP3    H143718   0.317   2.024  12.461  0.4969  2.1084 -1.8256
 7409TIP3    H243719   0.239   2.138  12.523  1.2840  1.6553  0.0519
 7410TIP3   OH243720   1.326   1.215  14.628 -0.2771 -0.4759  0.3745
 7410TIP3    H143721   1.396   1.279  14.621  0.3086 -0.9718  1.4962
 7410TIP3    H243722   1.315   1.182  14.538  0.8245 -0.2886  0.1589
 7411TIP3   OH243723   3.639   2.088  13.355 -0.2313  0.3858  0.0192
 7411TIP3    H143724   3.593   2.051  13.430 -0.4531  0.3138 -0.1518
 7411TIP3    H243725   3.571   2.105  13.290  0.0642 -0.3908 -0.5074
 7412TIP3   OH243726   0.016   0.321   4.483  0.1574 -0.4051  0.0039
 7412TIP3    H143727   0.105   0.325   4.447 -0.4498 -4.3953 -2.5595
 7412TIP3    H243728   0.029   0.299   4.575  1.9583 -2.9648 -0.7540
 7413TIP3   OH243729   5.303   1.117   1.669  0.2833 -0.0342  0.4497
 7413TIP3    H143730   5.395   1.100   1.647  0.4814  0.7065  0.6863
 7413TIP3    H243731   5.269   1.032   1.695  1.1819 -0.1284  1.3606
 7414TIP3   OH243732   3.563   5.851   2.686 -0.5994 -0.2079 -0.3746
 7414TIP3    H143733   3.555   5.944   2.710 -0.5008  0.0591 -1.3410
 7414TIP3    H243734   3.482   5.832   2.638  0.0574 -0.2062 -1.4998
 7415TIP3   OH243735   0.404   4.288   1.830 -0.4996  0.1971 -0.5686
 7415TIP3    H143736   0.378   4.374   1.861  1.0657  0.9577 -1.2596
 7415TIP3    H243737   0.336   4.263   1.767 -0.2350  1.5989 -1.4559
 7416TIP3   OH243738   3.031   6.123   6.489 -0.0953  0.2116 -0.1151
 7416TIP3    H143739   2.958   6.093   6.544  0.7844  0.2333  1.1003
 7416TIP3    H243740   3.010   6.089   6.402  0.9079 -4.2907  1.1362
 7417TIP3   OH243741   2.011   0.772   2.087 -0.2956 -0.2734 -0.0711
 7417TIP3    H143742   1.951   0.810   2.152 -1.3602 -2.4329  0.3146
 7417TIP3    H243743   2.076   0.725   2.139 -1.3521 -2.3043 -0.4846
 7418TIP3   OH243744   2.397   5.607  15.151 -0.1950  0.7781 -0.0800
 7418TIP3    H143745   2.331   5.547  15.187  1.7506 -1.4911 -0.0938
 7418TIP3    H243746   2.389   5.686  15.205 -2.3795  0.2976  0.4112
 7419TIP3   OH243747   1.546   0.723   4.790  0.2917 -0.0733  0.7389
 7419TIP3    H143748   1.464   0.674   4.793  0.8322 -0.9739  1.2362
 7419TIP3    H243749   1.588   0.705   4.874  0.9024  0.5564  0.5822
 7420TIP3   OH243750   4.860   4.428   3.826  0.4759 -0.5014  0.5430
 7420TIP3    H143751   4.811   4.449   3.905  0.0775 -1.6081  0.5941
 7420TIP3    H243752   4.941   4.480   3.834  0.2686 -0.3068  1.4746
 7421TIP3   OH243753   6.411   5.715   0.368  0.2245  0.2317  0.1417
 7421TIP3    H143754   6.463   5.641   0.399  0.4502  0.5992  0.6493
 7421TIP3    H243755   6.322   5.680   0.362  0.3405 -0.1046  0.3038
 7422TIP3   OH243756   5.289   0.692  13.930  0.4867  0.0312  0.8830
 7422TIP3    H143757   5.361   0.630  13.921 -1.0723 -1.6839 -0.4111
 7422TIP3    H243758   5.260   0.683  14.021 -0.8296 -2.5341  0.2965
 7423TIP3   OH243759   0.997   1.024  14.291  0.0672  0.0184  0.3194
 7423TIP3    H143760   0.941   0.993  14.363  1.3691  0.1434  1.4228
 7423TIP3    H243761   0.938   1.078  14.238 -0.9647 -0.1733  1.2132
 7424TIP3   OH243762   4.471   2.647  15.715 -0.7162  0.1351  0.0165
 7424TIP3    H143763   4.554   2.628  15.672 -0.8344 -0.0828 -0.1153
 7424TIP3    H243764   4.495   2.665  15.806 -0.4088  1.0980 -0.2488
 7425TIP3   OH243765   0.054   1.820  16.136 -0.5855 -0.0634  0.1626
 7425TIP3    H143766   0.122   1.881  16.166 -1.4131  0.7156  0.5001
 7425TIP3    H243767   0.022   1.779  16.216  0.4406 -1.4846 -0.1241
 7426TIP3   OH243768   4.501   3.413   2.381  0.2622 -0.1156 -0.0768
 7426TIP3    H143769   4.465   3.461   2.455 -0.1279  0.2091 -0.4674
 7426TIP3    H243770   4.440   3.341   2.367 -0.7145  0.8678 -1.2188
 7427TIP3   OH243771   0.150   1.866   0.944  0.0344  0.1575  0.1884
 7427TIP3    H143772   0.104   1.812   1.008  0.4126  0.9478  1.1586
 7427TIP3    H243773   0.124   1.956   0.966  0.7539  0.4929 -0.3009
 7428TIP3   OH243774   3.769   5.469   5.729  0.2755  0.5158 -0.5923
 7428TIP3    H143775   3.676   5.472   5.754  0.0616  0.9178 -1.4073
 7428TIP3    H243776   3.788   5.557   5.696  1.3327  0.8764  0.8746
 7429TIP3   OH243777   4.136   6.760  12.909 -0.3412 -0.3471 -0.1759
 7429TIP3    H143778   4.132   6.781  13.003  0.4512  0.9949 -0.4146
 7429TIP3    H243779   4.225   6.729  12.895 -0.1668  0.3464 -0.6443
 7430TIP3   OH243780   1.303   6.145   3.423  0.2212 -0.3394  0.2677
 7430TIP3    H143781   1.365   6.218   3.430  1.5370 -1.1780 -1.6930
 7430TIP3    H243782   1.283   6.140   3.330 -2.5893 -0.3396  0.7938
 7431TIP3   OH243783   0.333   5.490  14.642 -0.3260  0.3249 -0.4270
 7431TIP3    H143784   0.391   5.502  14.718 -2.2737  3.0146  0.7813
 7431TIP3    H243785   0.378   5.534  14.571  0.4008 -0.1123 -0.2538
 7432TIP3   OH243786   3.670   0.413   5.278 -0.1600 -0.3569 -0.1903
 7432TIP3    H143787   3.658   0.325   5.243  1.1477 -1.2349  1.4035
 7432TIP3    H243788   3.765   0.420   5.291 -0.3266  0.9945  0.4464
 7433TIP3   OH243789   4.772   4.913  15.152  0.5406  0.3857  0.2606
 7433TIP3    H143790   4.695   4.874  15.111  0.8601  0.7405 -0.7115
 7433TIP3    H243791   4.788   4.860  15.229  0.4731 -0.9046 -0.5782
 7434TIP3   OH243792   0.717   2.278   0.813  0.4394  0.2055  0.2280
 7434TIP3    H143793   0.784   2.343   0.835  2.1923 -1.4039 -0.0636
 7434TIP3    H243794   0.667   2.268   0.894  2.0321 -0.1739  1.2310
 7435TIP3   OH243795   2.214   1.099  16.958 -1.2706  0.3256  0.3679
 7435TIP3    H143796   2.176   1.030  16.905 -1.0024 -0.2970  0.9762
 7435TIP3    H243797   2.301   1.067  16.981  0.0470  2.1009 -1.7399
 7436TIP3   OH243798   4.250   1.503   6.060 -0.7701 -0.0585  0.0199
 7436TIP3    H143799   4.239   1.460   6.144 -0.9530  0.6239  0.3560
 7436TIP3    H243800   4.345   1.515   6.051 -0.6094 -1.6976 -0.6875
 7437TIP3   OH243801   0.009   5.572  11.901  0.0955  0.4252  0.5203
 7437TIP3    H143802  -0.083   5.564  11.875 -0.3582  0.9297  1.8790
 7437TIP3    H243803   0.042   5.482  11.902 -0.9547  0.0188  1.9052
 7438TIP3   OH243804   6.754   5.373   0.378 -0.0974  0.2495  0.2074
 7438TIP3    H143805   6.713   5.443   0.429 -0.0126 -0.0039  0.6370
 7438TIP3    H243806   6.838   5.358   0.421 -0.4561 -0.6594  0.6236
 7439TIP3   OH243807   1.854   1.408   5.205  0.0817 -0.1649 -0.5175
 7439TIP3    H143808   1.942   1.441   5.223  0.5722 -1.8046  0.2797
 7439TIP3    H243809   1.813   1.477   5.152  1.4537  1.1190  0.0118
 7440TIP3   OH243810   0.398   4.195  14.730  0.1607  0.4221 -0.4345
 7440TIP3    H143811   0.485   4.156  14.745 -0.2695 -0.3061  0.2288
 7440TIP3    H243812   0.353   4.132  14.674  0.2700  1.1130 -1.3257
 7441TIP3   OH243813   3.750   5.144   5.490 -0.4501 -0.2638  0.6615
 7441TIP3    H143814   3.686   5.157   5.420 -0.3483 -0.3979  0.5445
 7441TIP3    H243815   3.705   5.089   5.554 -0.1825 -1.0263  0.2098
 7442TIP3   OH243816   2.061   0.496  13.256 -0.1369 -0.4861 -0.7195
 7442TIP3    H143817   2.153   0.502  13.228 -0.4722  1.7588 -1.6074
 7442TIP3    H243818   2.039   0.403  13.247  1.4772 -0.7772 -2.4818
 7443TIP3   OH243819   4.818   4.342  16.024  0.5818 -0.6967  0.1192
 7443TIP3    H143820   4.761   4.299  16.088  0.4132  0.6523  0.9374
 7443TIP3    H243821   4.851   4.419  16.071  1.0157 -0.0529 -1.2076
 7444TIP3   OH243822   2.715   4.162   2.070 -0.1841 -0.4200 -0.2959
 7444TIP3    H143823   2.629   4.120   2.074 -0.7650  0.1690 -3.3779
 7444TIP3    H243824   2.698   4.246   2.027  1.9745 -0.4581 -1.3639
 7445TIP3   OH243825   0.094   4.368   1.544  1.1590 -0.3465 -0.8689
 7445TIP3    H143826   0.003   4.350   1.568  1.5597 -0.0640  1.0990
 7445TIP3    H243827   0.089   4.401   1.455 -0.6803 -0.2312 -0.7745
 7446TIP3   OH243828   4.597   5.693  10.654  0.5174  0.4597  0.1785
 7446TIP3    H143829   4.620   5.637  10.580  1.1841  0.1737  0.5928
 7446TIP3    H243830   4.571   5.633  10.724 -0.7857  0.7499 -0.0292
 7447TIP3   OH243831   3.400   3.833   3.833 -0.3980  0.2181  0.2600
 7447TIP3    H143832   3.421   3.889   3.759 -2.7358 -1.2850 -1.6801
 7447TIP3    H243833   3.341   3.886   3.887 -1.0020  0.3361 -0.5020
 7448TIP3   OH243834   2.477   4.428  17.122  0.0282  0.3865 -0.2285
 7448TIP3    H143835   2.489   4.407  17.214  2.9927  0.1110 -0.5608
 7448TIP3    H243836   2.516   4.515  17.112 -0.7163  0.6329 -1.1326
 7449TIP3   OH243837   3.071   1.439  12.868 -0.6228 -0.8607  0.0483
 7449TIP3    H143838   3.113   1.382  12.804 -0.1093 -0.9579  0.4619
 7449TIP3    H243839   3.014   1.496  12.816 -0.6618 -1.3285 -0.4307
 7450TIP3   OH243840   5.111   4.738  12.009 -0.8693  0.2718  0.5409
 7450TIP3    H143841   5.189   4.793  12.003 -0.8281  0.1143 -0.6255
 7450TIP3    H243842   5.120   4.692  12.093  0.3805  0.1123  0.3376
 7451TIP3   OH243843   2.494   0.362  15.980  0.2251 -0.1450 -0.1052
 7451TIP3    H143844   2.497   0.305  15.903 -0.6825  0.9607 -1.0001
 7451TIP3    H243845   2.586   0.384  15.997  0.4483 -0.5089 -0.7942
 7452TIP3   OH243846   4.999   2.058  14.052 -0.0053  0.9193 -0.1245
 7452TIP3    H143847   4.926   2.005  14.083 -0.8763  2.1035 -0.0685
 7452TIP3    H243848   4.959   2.143  14.031  1.1445  1.2077 -1.2617
 7453TIP3   OH243849   5.874   1.801  12.010  0.0663 -0.0354  0.3354
 7453TIP3    H143850   5.795   1.827  11.963  0.4291  0.7498  0.1366
 7453TIP3    H243851   5.929   1.880  12.010  0.4297 -0.2687  1.3436
 7454TIP3   OH243852   0.738   2.526   0.413  0.3759 -0.2499  0.3131
 7454TIP3    H143853   0.789   2.515   0.493 -0.4313 -1.2489  0.7080
 7454TIP3    H243854   0.716   2.437   0.386 -0.2323  0.1227 -0.4551
 7455TIP3   OH243855   4.246   0.767  13.200 -0.7342  0.0298  0.4586
 7455TIP3    H143856   4.231   0.689  13.146  2.1532  0.5359 -1.2979
 7455TIP3    H243857   4.250   0.839  13.137  1.6904  0.8103  1.3732
 7456TIP3   OH243858   2.775   6.549   1.370 -0.1950  0.3084  0.0100
 7456TIP3    H143859   2.853   6.536   1.317 -1.6548  0.0648 -2.2004
 7456TIP3    H243860   2.764   6.644   1.374  0.3142  0.3537  0.5416
 7457TIP3   OH243861   3.259   3.533   5.035 -0.5843  0.8678  0.7092
 7457TIP3    H143862   3.186   3.570   5.085 -0.2890  2.1904  0.2079
 7457TIP3    H243863   3.332   3.534   5.097 -0.5270  1.3449  0.6401
 7458TIP3   OH243864   1.972   1.441  13.236  0.2092  0.3907  0.0696
 7458TIP3    H143865   1.947   1.380  13.305 -1.1847  0.9684  0.0934
 7458TIP3    H243866   2.040   1.394  13.186 -2.3113 -2.1344 -1.2866
 7459TIP3   OH243867   0.883   5.869  11.067 -0.5835  0.1417  0.1291
 7459TIP3    H143868   0.869   5.924  11.144  0.5767 -0.3052  0.6813
 7459TIP3    H243869   0.957   5.909  11.022 -1.1621  0.3151 -0.6900
 7460TIP3   OH243870   4.446   3.911  15.159 -0.0266 -0.0241 -0.6993
 7460TIP3    H143871   4.487   3.963  15.090  0.6382 -1.0111 -1.0767
 7460TIP3    H243872   4.366   3.959  15.181  0.7184  1.3108 -0.8064
 7461TIP3   OH243873   4.922   5.084   5.667 -0.7301 -0.2772  0.8024
 7461TIP3    H143874   4.864   5.079   5.743 -1.9460 -3.0495 -0.1765
 7461TIP3    H243875   4.869   5.125   5.599 -0.0238  1.1597  1.0908
 7462TIP3   OH243876   2.962   6.123  11.517 -0.4762  0.3831  0.4574
 7462TIP3    H143877   3.044   6.108  11.469 -1.0327  0.1998 -0.4545
 7462TIP3    H243878   2.917   6.191  11.467 -1.4172 -0.3572  0.2805
 7463TIP3   OH243879   5.316   5.113   4.592  0.1376 -0.4640 -0.4847
 7463TIP3    H143880   5.374   5.149   4.525 -0.9244  1.6484 -0.3570
 7463TIP3    H243881   5.276   5.036   4.550  2.5787 -1.7121 -0.7300
 7464TIP3   OH243882   0.719   2.571   1.606  0.4274 -0.1175  0.0173
 7464TIP3    H143883   0.680   2.625   1.537  0.0260 -1.0602 -0.5117
 7464TIP3    H243884   0.702   2.481   1.578  1.2674 -0.5221  0.7776
 7465TIP3   OH243885   4.649   4.472   0.086  0.3163  0.0106  0.2777
 7465TIP3    H143886   4.623   4.563   0.071  0.0957 -0.1049 -0.0627
 7465TIP3    H243887   4.680   4.470   0.176 -2.0861 -0.1126  1.1712
 7466TIP3   OH243888   1.219   5.937   0.827 -0.3177  0.3438  0.2719
 7466TIP3    H143889   1.234   6.019   0.875 -0.4913  0.2438  0.4992
 7466TIP3    H243890   1.304   5.893   0.826 -0.0633  0.8226 -0.4127
 7467TIP3   OH243891   4.146   6.041   6.889  0.1389  0.6005 -0.1568
 7467TIP3    H143892   4.216   6.104   6.871  0.8054 -0.1745 -0.3348
 7467TIP3    H243893   4.076   6.094   6.927  0.5892  1.4888 -0.5204
 7468TIP3   OH243894   0.489   6.011  14.397 -0.2545 -0.4800 -0.4804
 7468TIP3    H143895   0.395   6.019  14.383  0.0681 -0.2901 -2.9067
 7468TIP3    H243896   0.518   5.946  14.333  1.0208 -2.0875  1.5818
 7469TIP3   OH243897   4.116   5.502   1.748 -0.3081 -0.4638 -0.2523
 7469TIP3    H143898   4.126   5.585   1.702 -2.6862  0.6623  1.1007
 7469TIP3    H243899   4.166   5.513   1.829  1.1554 -1.2212 -1.0086
 7470TIP3   OH243900   4.540   2.405  16.054  0.2973 -0.2720 -0.2390
 7470TIP3    H143901   4.621   2.356  16.065  0.1874 -0.8796 -1.9245
 7470TIP3    H243902   4.563   2.479  15.999  0.1052  0.6995  0.9365
 7471TIP3   OH243903   1.652   0.269  14.028 -0.4957 -0.5665  0.8434
 7471TIP3    H143904   1.655   0.362  14.050 -0.9036 -0.6567  1.3036
 7471TIP3    H243905   1.581   0.261  13.964 -0.6296 -0.6013  0.9974
 7472TIP3   OH243906   4.631   5.021   5.163  0.2442 -0.1381 -0.0473
 7472TIP3    H143907   4.675   4.958   5.106 -0.2808  0.4368 -1.1301
 7472TIP3    H243908   4.697   5.047   5.226  0.8279 -0.8382 -0.3557
 7473TIP3   OH243909   3.659   3.017  14.226 -0.1488 -0.1267  0.0775
 7473TIP3    H143910   3.713   2.971  14.290  0.3465 -1.1272 -1.0289
 7473TIP3    H243911   3.722   3.060  14.167 -0.5798  2.3123  1.2402
 7474TIP3   OH243912   6.303   6.156  17.062  0.2312 -0.2583 -0.4022
 7474TIP3    H143913   6.365   6.160  16.989  0.4703 -1.2933 -0.2717
 7474TIP3    H243914   6.356   6.125  17.136  0.2804  1.8663  0.5448
 7475TIP3   OH243915   4.934   1.152  14.158 -0.9027 -0.2562  0.4823
 7475TIP3    H143916   4.856   1.141  14.104 -0.4854 -0.3462 -0.1017
 7475TIP3    H243917   5.003   1.104  14.112  0.1667  2.0056 -0.3847
 7476TIP3   OH243918   6.626   2.735   1.371  0.0218  0.0035  0.3312
 7476TIP3    H143919   6.637   2.699   1.283  1.3951 -0.2616  0.5956
 7476TIP3    H243920   6.712   2.772   1.393 -0.0931 -0.5510  1.8337
 7477TIP3   OH243921   4.036   0.729  10.421  0.2113 -0.1177 -0.2574
 7477TIP3    H143922   3.981   0.700  10.349  1.2649 -1.2830 -0.6245
 7477TIP3    H243923   3.975   0.754  10.490 -0.8500  1.8611 -1.8204
 7478TIP3   OH243924   5.882   1.919   2.575 -0.0972  0.4569  0.1130
 7478TIP3    H143925   5.851   1.946   2.488  0.2764  1.6405  0.3284
 7478TIP3    H243926   5.815   1.953   2.635 -1.0082 -1.4290  0.2330
 7479TIP3   OH243927   1.253   4.677  16.468 -0.0742  0.3425  0.0058
 7479TIP3    H143928   1.234   4.689  16.561  1.3706  0.3819  0.3265
 7479TIP3    H243929   1.283   4.586  16.461 -0.2241  0.3235 -0.4418
 7480TIP3   OH243930   1.044   0.006   2.922  0.1867 -0.2062 -0.4802
 7480TIP3    H143931   1.063   0.003   2.828  1.6093  1.4636 -0.2997
 7480TIP3    H243932   1.049  -0.085   2.950  1.7624 -0.5294 -1.6738
 7481TIP3   OH243933   1.917   3.811  15.424 -0.4343  0.0686  0.6439
 7481TIP3    H143934   1.955   3.871  15.488 -0.9667  0.2899  0.7597
 7481TIP3    H243935   1.884   3.868  15.355 -1.8678  0.0077  1.2377
 7482TIP3   OH243936   0.043   0.356   5.781 -0.5755  0.1906  0.2517
 7482TIP3    H143937   0.027   0.294   5.853 -1.9425  0.2390  0.0059
 7482TIP3    H243938   0.117   0.318   5.734 -1.3435 -1.2521  0.1452
 7483TIP3   OH243939   2.376   1.581   5.109  0.4006 -0.4246  0.2268
 7483TIP3    H143940   2.358   1.505   5.164 -2.4992 -1.1516 -1.5098
 7483TIP3    H243941   2.407   1.648   5.170  0.9177 -2.2943  2.1418
 7484TIP3   OH243942   2.973   3.380  14.893 -0.3296  0.2329  0.4960
 7484TIP3    H143943   3.015   3.307  14.938  3.7291  1.2568 -1.1969
 7484TIP3    H243944   2.940   3.436  14.963 -0.8234 -1.6969  1.8811
 7485TIP3   OH243945   1.377   6.015   0.195  0.6059  0.1698 -0.3507
 7485TIP3    H143946   1.436   6.020   0.270 -1.4798 -1.4865  1.5523
 7485TIP3    H243947   1.301   6.067   0.221  0.9340  1.8525 -2.5344
 7486TIP3   OH243948   5.613   5.323   2.955  0.0351 -0.1225 -0.1447
 7486TIP3    H143949   5.620   5.411   2.993 -2.4867  0.7474 -1.4528
 7486TIP3    H243950   5.575   5.337   2.868  1.4458 -2.3903 -1.2150
 7487TIP3   OH243951   3.184   5.910  15.074 -0.4875  0.4041 -0.0524
 7487TIP3    H143952   3.097   5.950  15.067 -0.7083  0.2026  1.3241
 7487TIP3    H243953   3.245   5.984  15.068 -0.8174  0.7349  0.5591
 7488TIP3   OH243954   3.544   4.042   0.810 -0.1160  0.0607 -0.1331
 7488TIP3    H143955   3.556   3.954   0.844  1.9838  0.7647  1.2016
 7488TIP3    H243956   3.523   4.095   0.888 -0.1709  0.9169 -0.7179
 7489TIP3   OH243957   3.933   6.512   1.840  0.0089 -0.5570 -0.0708
 7489TIP3    H143958   3.987   6.582   1.803 -0.4377 -0.7738 -1.1780
 7489TIP3    H243959   3.852   6.555   1.865  0.9257 -0.0862  2.2969
 7490TIP3   OH243960   4.573   3.579   1.382  0.2450 -0.7601  0.1141
 7490TIP3    H143961   4.642   3.606   1.442 -0.7306  3.4976 -0.3443
 7490TIP3    H243962   4.497   3.562   1.439  0.4740 -1.0824  0.3282
 7491TIP3   OH243963   6.264   1.573   4.701 -0.0492 -0.2443 -0.3470
 7491TIP3    H143964   6.190   1.522   4.670 -2.0029  2.0914  0.1881
 7491TIP3    H243965   6.300   1.522   4.773 -0.3744 -1.9531 -1.3415
 7492TIP3   OH243966   6.619   5.498   3.842  0.0284 -0.5657 -0.0041
 7492TIP3    H143967   6.587   5.463   3.758  3.0002 -1.1585 -1.0204
 7492TIP3    H243968   6.618   5.423   3.901 -2.0850 -0.1443  0.5873
 7493TIP3   OH243969   6.511   5.523   1.569  0.4950 -0.1074 -0.3609
 7493TIP3    H143970   6.491   5.472   1.490  1.0085  1.1841 -1.3775
 7493TIP3    H243971   6.605   5.510   1.582  0.9786  1.7870 -1.5912
 7494TIP3   OH243972   4.227   6.052   6.017 -0.3410  0.4325 -0.3238
 7494TIP3    H143973   4.210   6.062   5.923  0.8956  1.9500 -0.4350
 7494TIP3    H243974   4.321   6.034   6.023 -0.1556  1.5784  0.6559
 7495TIP3   OH243975   4.238   5.230  12.024  0.1356  0.1120  0.1522
 7495TIP3    H143976   4.227   5.158  11.962 -0.7267  0.2241  0.1646
 7495TIP3    H243977   4.291   5.192  12.095  2.2668  0.3561 -1.2427
 7496TIP3   OH243978   0.405   6.570   6.458  0.6796 -0.4238  0.1756
 7496TIP3    H143979   0.330   6.511   6.466  0.8110 -0.3558  2.6819
 7496TIP3    H243980   0.382   6.628   6.385 -1.5013 -0.7275  0.5415
 7497TIP3   OH243981   1.522   5.831   0.717  0.3750  0.5878 -0.5978
 7497TIP3    H143982   1.582   5.820   0.790  0.2621 -1.2056 -0.7364
 7497TIP3    H243983   1.465   5.754   0.720 -0.2123  0.9258 -2.0364
 7498TIP3   OH243984   1.528   2.399  12.655  0.0508 -0.8230  0.0817
 7498TIP3    H143985   1.497   2.360  12.573  1.0745 -1.7290  0.1026
 7498TIP3    H243986   1.623   2.400  12.646  0.0745  1.8646  0.0296
 7499TIP3   OH243987   5.937   0.581   5.123  0.3041  0.1638 -0.2089
 7499TIP3    H143988   5.874   0.524   5.081 -0.3300  0.8944 -0.2747
 7499TIP3    H243989   6.010   0.587   5.061 -0.4928  0.9920 -1.0978
 7500TIP3   OH243990   1.878   3.261   0.120  0.4503 -0.3113  0.2033
 7500TIP3    H143991   1.865   3.348   0.082  0.4503 -0.2397  0.3686
 7500TIP3    H243992   1.953   3.226   0.072  2.9923  1.2935  2.7203
 7501TIP3   OH243993   6.510   3.544  16.357  0.3549 -0.0415  0.3989
 7501TIP3    H143994   6.563   3.621  16.335  0.6526  0.2154  1.9159
 7501TIP3    H243995   6.555   3.471  16.313  2.4799  0.0486  2.2348
 7502TIP3   OH243996   6.381   2.789   1.662 -0.1915  0.3424 -0.0110
 7502TIP3    H143997   6.332   2.870   1.649 -1.1318 -0.3699 -1.1691
 7502TIP3    H243998   6.313   2.721   1.665  0.6721 -0.5832 -0.9049
 7503TIP3   OH243999   2.736   3.839  16.375  0.4284 -0.4979  0.1145
 7503TIP3    H144000   2.726   3.810  16.284  1.1348 -0.1919 -0.0657
 7503TIP3    H244001   2.652   3.818  16.416 -0.0803 -0.1692 -0.7396
 7504TIP3   OH244002   4.016   0.171   4.100 -0.0994  0.2010 -0.0248
 7504TIP3    H144003   3.960   0.138   4.171 -3.3103 -1.6282 -3.0715
 7504TIP3    H244004   3.969   0.246   4.065  1.7306  1.4426  0.0415
 7505TIP3   OH244005   0.888   3.155   5.375  0.3767  0.2357  0.0477
 7505TIP3    H144006   0.919   3.204   5.298  2.0450  0.6801  0.9523
 7505TIP3    H244007   0.871   3.223   5.441  1.4959 -0.2795  0.9058
 7506TIP3   OH244008   1.193   6.765  11.863  0.1891 -0.6651  0.1066
 7506TIP3    H144009   1.265   6.710  11.894  0.4003 -0.5681 -0.2042
 7506TIP3    H244010   1.210   6.776  11.769  0.0138 -0.2752  0.1181
 7507TIP3   OH244011   2.260   3.953   5.736 -0.0687  0.3850  0.3127
 7507TIP3    H144012   2.248   3.935   5.643  1.3686 -1.0094  0.3664
 7507TIP3    H244013   2.206   4.031   5.752 -1.7370 -0.3703 -1.2797
 7508TIP3   OH244014   2.390   6.224   3.506  0.2638 -0.4088 -0.0985
 7508TIP3    H144015   2.358   6.162   3.572  2.1522 -0.6709  0.6259
 7508TIP3    H244016   2.404   6.306   3.554 -0.4777  0.0706 -0.6687
 7509TIP3   OH244017   2.898   5.960  16.125  0.8012 -0.3652 -0.6570
 7509TIP3    H144018   2.869   5.966  16.216 -0.6125  1.0375 -1.1721
 7509TIP3    H244019   2.860   5.878  16.093  1.0800 -0.7253 -0.0918
 7510TIP3   OH244020   5.470   4.539  14.253  0.0033 -0.3308 -0.4202
 7510TIP3    H144021   5.412   4.535  14.329 -2.0185  1.6870 -1.7532
 7510TIP3    H244022   5.532   4.609  14.273 -2.2652  2.2042 -1.6119
 7511TIP3   OH244023   2.585   0.717  15.828  0.2452 -0.9343  0.6243
 7511TIP3    H144024   2.649   0.695  15.760  0.6323  0.3393  0.5413
 7511TIP3    H244025   2.511   0.659  15.811  0.4927 -0.9121 -0.6399
 7512TIP3   OH244026   5.815   6.148  11.795  0.1556 -0.0552 -0.1433
 7512TIP3    H144027   5.756   6.222  11.783 -0.4766 -0.2942  1.2566
 7512TIP3    H244028   5.896   6.186  11.829  0.6656  0.2173 -1.5951
 7513TIP3   OH244029   2.536   5.043  16.243  0.3754  0.2296 -0.3260
 7513TIP3    H144030   2.518   4.976  16.310  0.4182  0.0701 -0.4701
 7513TIP3    H244031   2.452   5.058  16.201  0.6816 -1.0163 -1.4637
 7514TIP3   OH244032   0.132   4.136   1.268 -0.1535  0.0642  0.4497
 7514TIP3    H144033   0.201   4.199   1.247  1.1156 -0.9373  1.4019
 7514TIP3    H244034   0.107   4.098   1.184 -0.7575  1.6122 -0.1082
 7515TIP3   OH244035   6.204   1.438  17.279 -0.0063  0.2384 -0.0755
 7515TIP3    H144036   6.198   1.370  17.347 -0.7730 -1.1774 -1.5075
 7515TIP3    H244037   6.129   1.495  17.294 -0.5022 -0.4091 -0.0917
 7516TIP3   OH244038   5.585   0.409  16.364  0.1909 -0.1137  0.0010
 7516TIP3    H144039   5.667   0.365  16.340  0.8711 -0.6189  2.7991
 7516TIP3    H244040   5.608   0.461  16.442 -2.3586 -1.1903  1.6073
 7517TIP3   OH244041   2.744   4.921  13.488  0.2262  0.0965 -0.1479
 7517TIP3    H144042   2.748   4.945  13.581  0.7152  0.0007 -0.1391
 7517TIP3    H244043   2.672   4.859  13.482  0.9008 -0.7552  0.3735
 7518TIP3   OH244044   0.167   0.363   4.148  0.8841 -0.3072 -0.1062
 7518TIP3    H144045   0.107   0.431   4.178  3.3976  2.1982 -0.3620
 7518TIP3    H244046   0.110   0.289   4.126 -1.7166  0.4056  3.4294
 7519TIP3   OH244047   6.369   3.740  12.900 -0.3588 -0.1249  0.2276
 7519TIP3    H144048   6.294   3.775  12.949 -1.0018 -1.8167  0.5377
 7519TIP3    H244049   6.355   3.645  12.901  0.5078 -0.3168 -1.8264
 7520TIP3   OH244050   3.026   6.476   1.242  0.1107  0.0488  0.1014
 7520TIP3    H144051   3.023   6.566   1.209 -0.8898 -0.0780 -0.2024
 7520TIP3    H244052   3.085   6.430   1.181  0.6704  0.4995  0.2918
 7521TIP3   OH244053   5.381   4.282  11.914 -0.3142  0.0595 -0.3972
 7521TIP3    H144054   5.348   4.370  11.899 -0.0812 -0.0289 -1.5955
 7521TIP3    H244055   5.375   4.269  12.008 -0.4120  1.3290 -0.2113
 7522TIP3   OH244056   2.073   1.136  16.535 -0.0928  0.3964  0.2170
 7522TIP3    H144057   2.071   1.182  16.619 -2.0380  0.1832  0.3215
 7522TIP3    H244058   1.982   1.135  16.505  0.2948 -1.0605 -1.0630
 7523TIP3   OH244059   0.561   0.256  10.402  0.2098 -0.7686 -0.1654
 7523TIP3    H144060   0.499   0.312  10.449  0.0690 -0.7302 -0.3953
 7523TIP3    H244061   0.608   0.209  10.471 -0.7605 -1.5345 -0.0082
 7524TIP3   OH244062   5.839   5.607  15.591 -0.3898  0.4204  0.2784
 7524TIP3    H144063   5.816   5.526  15.546 -1.0334  1.0846 -0.6006
 7524TIP3    H244064   5.919   5.637  15.548  0.2344 -0.0740  1.0492
 7525TIP3   OH244065   0.133   2.416  15.296  0.5480 -0.2334 -0.0971
 7525TIP3    H144066   0.071   2.468  15.347  0.0325 -1.1930  0.2617
 7525TIP3    H244067   0.175   2.480  15.238  0.6678  0.7704  1.0414
 7526TIP3   OH244068   2.659   4.921  11.395  0.1414  0.0271  0.4586
 7526TIP3    H144069   2.731   4.860  11.382 -1.6201 -1.8003 -1.7878
 7526TIP3    H244070   2.599   4.875  11.455 -0.2948  0.4255  0.3374
 7527TIP3   OH244071   5.552   1.349  14.963  0.0707  0.4574 -0.8345
 7527TIP3    H144072   5.513   1.378  14.880  0.1643 -0.2509 -1.1331
 7527TIP3    H244073   5.479   1.348  15.025  0.0663  1.3309 -0.8074
 7528TIP3   OH244074   1.635   4.201  13.078  0.4728  0.7270 -0.0881
 7528TIP3    H144075   1.644   4.229  12.987  2.5676  1.4152  0.2768
 7528TIP3    H244076   1.720   4.164  13.100 -0.2883 -0.2648  1.3411
 7529TIP3   OH244077   5.665   5.423  11.060 -0.4918 -0.7685 -0.4609
 7529TIP3    H144078   5.609   5.465  10.995 -0.5575  1.2867  0.8271
 7529TIP3    H244079   5.745   5.475  11.059 -0.0110 -1.4770  0.2251
 7530TIP3   OH244080   3.951   0.685   2.251  0.1978  0.6600  0.8306
 7530TIP3    H144081   3.921   0.662   2.339 -0.2955 -1.6352  0.1467
 7530TIP3    H244082   3.875   0.726   2.209 -0.4467 -0.6370  0.6790
 7531TIP3   OH244083   6.062   1.896  11.758 -0.4799  0.0836  0.0652
 7531TIP3    H144084   6.038   1.825  11.699  1.0480 -0.4828  0.0599
 7531TIP3    H244085   6.155   1.912  11.740 -0.6290  1.6458  0.5306
 7532TIP3   OH244086   1.601   1.388   4.404 -0.2808 -0.3406  0.7811
 7532TIP3    H144087   1.538   1.368   4.335 -0.0031  1.5625 -0.0865
 7532TIP3    H244088   1.616   1.304   4.447 -1.6869 -1.2740 -0.4247
 7533TIP3   OH244089   2.545   4.359  12.840  0.1091  0.5857  0.1220
 7533TIP3    H144090   2.627   4.352  12.888  1.1649  1.3234 -1.4880
 7533TIP3    H244091   2.508   4.442  12.867  1.8242  2.1132 -1.9073
 7534TIP3   OH244092   6.085   1.213  15.921  0.2206 -0.2670 -0.5275
 7534TIP3    H144093   6.060   1.228  15.830 -0.2125 -1.0604 -0.5418
 7534TIP3    H244094   6.167   1.165  15.915  1.2477  1.3890 -0.4786
 7535TIP3   OH244095   4.632   0.832  15.977  0.7844 -0.3076  0.1415
 7535TIP3    H144096   4.672   0.776  15.910  1.3180 -0.3101  0.4542
 7535TIP3    H244097   4.613   0.772  16.049 -1.3395 -0.6342 -0.6233
 7536TIP3   OH244098   6.399   0.004  16.358  0.0209  0.1536  0.5582
 7536TIP3    H144099   6.465  -0.023  16.294 -1.5896 -2.1913 -0.2525
 7536TIP3    H244100   6.439  -0.014  16.443  0.1924 -1.9382  0.0704
 7537TIP3   OH244101   2.211   0.606   3.289  0.3526 -0.4383 -0.1045
 7537TIP3    H144102   2.302   0.578   3.296  1.3289  1.5946 -2.6380
 7537TIP3    H244103   2.188   0.592   3.197 -0.8692  1.7321 -0.2197
 7538TIP3   OH244104   0.633   1.779   0.764 -0.0363 -0.1811 -0.0519
 7538TIP3    H144105   0.634   1.768   0.859  2.2062 -0.0776  0.0027
 7538TIP3    H244106   0.589   1.863   0.751 -0.4463 -0.2334  0.8811
 7539TIP3   OH244107   3.188   0.727  11.628  0.0858 -0.1676 -0.1330
 7539TIP3    H144108   3.253   0.710  11.560  1.2164  2.4011  0.1963
 7539TIP3    H244109   3.111   0.758  11.579  0.3933  0.2851 -0.3408
 7540TIP3   OH244110   1.445   3.508  11.865  0.3268 -0.2712 -0.0060
 7540TIP3    H144111   1.456   3.547  11.952  1.2721 -2.1025  0.7316
 7540TIP3    H244112   1.534   3.492  11.834  0.0777  1.7887 -2.0530
 7541TIP3   OH244113   2.484   1.755   3.037 -0.0606  0.4866  0.3547
 7541TIP3    H144114   2.423   1.829   3.030  0.5283  0.9388 -0.0973
 7541TIP3    H244115   2.486   1.717   2.949 -2.0604 -1.4968  1.0457
 7542TIP3   OH244116   4.187   1.132  13.415  0.1718  0.2230  0.1039
 7542TIP3    H144117   4.257   1.084  13.370 -0.1905 -0.0049 -0.2136
 7542TIP3    H244118   4.108   1.113  13.365 -0.1881  0.1808  0.6790
 7543TIP3   OH244119   2.531   1.973   0.974  0.3800 -1.0837  0.8299
 7543TIP3    H144120   2.468   1.946   0.907 -0.8474 -0.4878  1.6921
 7543TIP3    H244121   2.617   1.957   0.934 -0.2892 -0.3003 -1.0801
 7544TIP3   OH244122   6.033   0.832  12.504  0.2979 -0.4552 -0.0512
 7544TIP3    H144123   6.118   0.790  12.494  0.2595 -0.7949  0.9649
 7544TIP3    H244124   5.975   0.786  12.443  0.7503 -0.4725 -0.4659
 7545TIP3   OH244125   0.533   2.411  16.925  0.6896 -0.4945 -0.7823
 7545TIP3    H144126   0.519   2.491  16.875 -0.2810 -1.7873 -2.6764
 7545TIP3    H244127   0.484   2.425  17.007 -0.1310  0.5253 -1.4271
 7546TIP3   OH244128   6.069   2.403  16.292  0.1769  0.2087 -0.1063
 7546TIP3    H144129   6.014   2.357  16.354  0.8874 -1.0038 -0.3269
 7546TIP3    H244130   6.013   2.470  16.254 -0.4499  0.5346  1.3503
 7547TIP3   OH244131   3.779   4.967  13.331  0.0714  0.4381 -0.2834
 7547TIP3    H144132   3.797   5.039  13.270  1.6774  0.2857 -0.0460
 7547TIP3    H244133   3.865   4.929  13.349 -0.7350 -1.6190 -0.4703
 7548TIP3   OH244134   6.826   0.410   1.926  0.2966 -0.3182  0.1812
 7548TIP3    H144135   6.828   0.347   1.854  1.2998  0.0299 -0.1045
 7548TIP3    H244136   6.798   0.359   2.001  0.5907 -0.9954 -0.1567
 7549TIP3   OH244137   4.116   4.977   4.143  0.4999 -0.3687  0.5548
 7549TIP3    H144138   4.103   4.899   4.197  1.2221 -0.3081  0.8218
 7549TIP3    H244139   4.205   5.005   4.162  0.3458  0.3569  0.2395
 7550TIP3   OH244140   1.908   3.429  13.075  0.3636 -0.6970 -0.8303
 7550TIP3    H144141   1.898   3.380  13.157 -0.4030 -0.5210 -0.8093
 7550TIP3    H244142   1.951   3.510  13.100  0.5606 -0.8484 -0.6780
 7551TIP3   OH244143   2.527   6.416   2.413  0.0345 -0.2562 -0.0656
 7551TIP3    H144144   2.463   6.366   2.363  0.2692 -1.1407  0.5152
 7551TIP3    H244145   2.558   6.357   2.481  0.2175  0.7129  0.7276
 7552TIP3   OH244146   6.500   4.629   5.764 -0.0552  0.2789 -0.6429
 7552TIP3    H144147   6.543   4.668   5.688  1.0083 -0.5456 -0.4873
 7552TIP3    H244148   6.571   4.609   5.824 -0.6683 -0.9360 -0.2876
 7553TIP3   OH244149   2.765   6.329   1.947 -0.2378  0.5539  0.6771
 7553TIP3    H144150   2.849   6.346   1.991 -0.2540  3.7638 -0.2572
 7553TIP3    H244151   2.702   6.383   1.995 -1.6538 -1.2267  0.8927
 7554TIP3   OH244152   4.623   1.745   5.875 -0.0351 -0.2345  0.4999
 7554TIP3    H144153   4.621   1.838   5.851  0.2992 -1.1562 -3.9528
 7554TIP3    H244154   4.713   1.729   5.901  0.1127  0.5212  0.4745
 7555TIP3   OH244155   0.344   4.556   1.905 -0.2566  0.5499 -0.3816
 7555TIP3    H144156   0.423   4.605   1.881  0.4840 -0.8579 -0.8801
 7555TIP3    H244157   0.339   4.564   2.000 -0.0200  1.3781 -0.4270
 7556TIP3   OH244158   5.397   5.741   2.333  0.3267  0.1936 -0.0045
 7556TIP3    H144159   5.480   5.781   2.310  0.2921  0.2794  0.0219
 7556TIP3    H244160   5.332   5.811   2.324  0.1544 -0.0386 -0.6969
 7557TIP3   OH244161   2.150   2.580   0.595  0.2963  0.3071 -0.4164
 7557TIP3    H144162   2.230   2.529   0.585  0.9983  1.4825 -0.9861
 7557TIP3    H244163   2.175   2.653   0.652 -1.0026 -0.5940  1.3943
 7558TIP3   OH244164   1.067   1.866  13.790  0.2941  0.2771  0.4763
 7558TIP3    H144165   1.135   1.932  13.787 -0.3067  0.8643 -1.8485
 7558TIP3    H244166   1.106   1.788  13.750  0.0145  0.2230  0.3017
 7559TIP3   OH244167   3.918   3.482   2.223 -0.4985 -0.8034 -0.1264
 7559TIP3    H144168   3.943   3.426   2.297 -2.5277  0.1296  1.3720
 7559TIP3    H244169   3.920   3.570   2.259 -0.0373 -0.1692 -1.6577
 7560TIP3   OH244170   2.605   4.308  13.873 -0.0668  0.4602  0.1157
 7560TIP3    H144171   2.517   4.333  13.900 -0.0528  1.0242 -0.3528
 7560TIP3    H244172   2.662   4.374  13.912  0.2724 -0.5064  1.3255
 7561TIP3   OH244173   0.128   0.413  16.092 -0.3242  0.1661 -0.2388
 7561TIP3    H144174   0.130   0.334  16.037 -1.1359 -0.5867  0.7703
 7561TIP3    H244175   0.036   0.438  16.095 -0.2412  0.4027  0.4905
 7562TIP3   OH244176   6.443   2.432   3.061 -0.0879 -0.0996 -0.0874
 7562TIP3    H144177   6.500   2.454   3.134  0.4901 -2.6077  0.3349
 7562TIP3    H244178   6.405   2.515   3.034  1.6286  1.2665  1.4107
 7563TIP3   OH244179   5.214   4.496   3.364 -0.0409 -0.2066  0.0315
 7563TIP3    H144180   5.224   4.478   3.270  0.6954  0.0844  0.0474
 7563TIP3    H244181   5.124   4.468   3.384  0.0894 -1.1176 -0.5654
 7564TIP3   OH244182   4.055   4.420   4.150 -0.5071  0.3662 -0.1997
 7564TIP3    H144183   4.122   4.352   4.146 -0.4188  0.4794 -0.9592
 7564TIP3    H244184   3.973   4.373   4.137 -0.6535  0.1447  1.3506
 7565TIP3   OH244185   4.678   1.718   3.320 -0.5205 -0.2227 -0.2500
 7565TIP3    H144186   4.721   1.730   3.235 -0.0139 -0.9248 -0.0997
 7565TIP3    H244187   4.623   1.641   3.308 -2.0863  0.8932 -0.5635
 7566TIP3   OH244188   5.484   0.567  13.552 -0.5761  0.5364 -0.6036
 7566TIP3    H144189   5.513   0.483  13.586 -1.2160  1.4074  2.3598
 7566TIP3    H244190   5.414   0.545  13.491  0.0559 -1.1140 -0.7903
 7567TIP3   OH244191   3.249   2.966  16.545  0.0268  0.2918  0.2405
 7567TIP3    H144192   3.213   3.018  16.617 -0.1573  1.4819 -0.6625
 7567TIP3    H244193   3.214   2.878  16.558 -0.3974  0.6084  1.3254
 7568TIP3   OH244194   4.228   1.828  12.652  0.1520 -0.3898  0.5340
 7568TIP3    H144195   4.254   1.759  12.712  1.5448 -0.1928  0.1918
 7568TIP3    H244196   4.222   1.907  12.706 -0.6239 -0.6025  0.7715
 7569TIP3   OH244197   4.944   5.212   0.941 -0.3511 -0.2193 -0.5612
 7569TIP3    H144198   5.026   5.259   0.953 -0.8548  0.3388  0.9826
 7569TIP3    H244199   4.950   5.174   0.853  0.8780  1.1196 -1.0933
 7570TIP3   OH244200   4.449   3.550   0.281  0.0607 -0.2251 -0.3161
 7570TIP3    H144201   4.407   3.551   0.195 -0.0617 -0.5609 -0.2600
 7570TIP3    H244202   4.398   3.612   0.334 -1.3349 -1.7606  0.2095
 7571TIP3   OH244203   1.874   1.243  12.368 -0.1298  0.7958  0.2620
 7571TIP3    H144204   1.877   1.234  12.272 -1.9830 -1.8924  0.3647
 7571TIP3    H244205   1.826   1.325  12.383  1.6906  2.1976 -1.0168
 7572TIP3   OH244206   0.620   4.097   6.520 -0.2327 -0.8449 -0.1933
 7572TIP3    H144207   0.609   4.008   6.485  1.0684 -0.9307 -0.4265
 7572TIP3    H244208   0.651   4.083   6.610  1.2022 -0.6548 -0.6349
 7573TIP3   OH244209   6.414   0.210  12.347  0.1096 -0.2491  0.3997
 7573TIP3    H144210   6.397   0.127  12.301 -0.9151 -0.0285  0.3608
 7573TIP3    H244211   6.406   0.188  12.440 -2.3374  0.2030  0.3714
 7574TIP3   OH244212   1.121   2.519   6.101 -0.2529 -0.2027 -0.2031
 7574TIP3    H144213   1.059   2.449   6.122  2.2865 -1.9854  2.1456
 7574TIP3    H244214   1.204   2.473   6.086  1.4106  2.2301  0.8425
 7575TIP3   OH244215   6.577   1.087  13.891  0.0556 -0.0076  0.1227
 7575TIP3    H144216   6.671   1.103  13.892  0.3927 -1.8686  0.2886
 7575TIP3    H244217   6.567   1.000  13.853 -1.5803  0.0149  0.4155
 7576TIP3   OH244218   0.339   6.522   3.253 -0.2943  0.3573 -0.2529
 7576TIP3    H144219   0.367   6.607   3.288 -0.7484 -0.2098  1.5739
 7576TIP3    H244220   0.244   6.527   3.252 -0.2982  0.6359 -2.2251
 7577TIP3   OH244221   3.826   2.723  11.802 -0.3064  0.3826  0.1898
 7577TIP3    H144222   3.894   2.715  11.869 -1.4853  0.2492  1.3968
 7577TIP3    H244223   3.815   2.635  11.768 -0.9347  0.0957  1.0899
 7578TIP3   OH244224   4.030   5.841   5.899  0.0366  0.0614 -0.1114
 7578TIP3    H144225   4.081   5.778   5.950 -1.6398 -1.6900 -0.4819
 7578TIP3    H244226   3.939   5.819   5.919 -0.6144  1.8598 -0.9229
 7579TIP3   OH244227   5.729   5.024  16.619 -0.2427 -0.4079  0.2087
 7579TIP3    H144228   5.701   5.114  16.603  0.6325 -0.1608  0.0008
 7579TIP3    H244229   5.745   4.988  16.531  0.7608 -0.3107  0.3387
 7580TIP3   OH244230   1.469   6.624   2.160  0.5135 -0.4075 -0.3667
 7580TIP3    H144231   1.517   6.606   2.079  1.6467 -2.2855  0.6340
 7580TIP3    H244232   1.480   6.718   2.174  3.7271 -0.6644 -0.3748
 7581TIP3   OH244233   6.249   3.518  16.275  0.0705 -0.8943  0.5987
 7581TIP3    H144234   6.231   3.431  16.239  0.0266 -1.5942  2.2391
 7581TIP3    H244235   6.339   3.514  16.307  0.7635  0.3182 -1.0674
 7582TIP3   OH244236   5.405   2.979   3.481  0.2543  0.2650  0.1553
 7582TIP3    H144237   5.310   2.991   3.474  0.1180  0.3152  1.7076
 7582TIP3    H244238   5.421   2.968   3.575  1.5070 -2.1712 -0.2650
 7583TIP3   OH244239   4.647   6.591   0.170 -0.2993  0.3070  0.1966
 7583TIP3    H144240   4.567   6.571   0.120  0.2492  0.3852 -0.7359
 7583TIP3    H244241   4.685   6.506   0.189 -0.0860  0.3025 -0.2354
 7584TIP3   OH244242   4.678   0.806  15.280  0.6975  0.5745 -0.1906
 7584TIP3    H144243   4.662   0.733  15.220  0.2580 -0.6468  1.3161
 7584TIP3    H244244   4.627   0.878  15.244  1.8252  0.4312 -2.1945
 7585TIP3   OH244245   4.326   5.168   2.225  0.6615  0.5876 -0.7142
 7585TIP3    H144246   4.315   5.087   2.274  0.3071  1.5406  0.8447
 7585TIP3    H244247   4.420   5.185   2.225  0.6262  0.7923  0.0012
 7586TIP3   OH244248   6.054   5.388   3.060  0.0444  0.5875 -0.2517
 7586TIP3    H144249   6.150   5.391   3.055  0.0417 -0.0771 -0.8697
 7586TIP3    H244250   6.034   5.306   3.104 -0.2147  1.8265  2.0655
 7587TIP3   OH244251   2.932   4.324   2.705 -0.3845 -0.6103  0.1257
 7587TIP3    H144252   2.954   4.352   2.794  1.6745 -0.4085 -0.3952
 7587TIP3    H244253   2.998   4.258   2.684 -0.6956 -0.4907 -1.3323
 7588TIP3   OH244254   6.792   1.070  10.776 -0.2672 -0.1425  0.4892
 7588TIP3    H144255   6.881   1.074  10.740 -0.4415  0.1145  0.0759
 7588TIP3    H244256   6.770   0.977  10.774 -0.0372 -0.1986  0.5128
 7589TIP3   OH244257   0.337   1.825   1.344  0.3141 -0.1668  0.3889
 7589TIP3    H144258   0.337   1.921   1.338  0.5400 -0.1748  0.2578
 7589TIP3    H244259   0.428   1.800   1.329  0.2685 -0.3982  0.5008
 7590TIP3   OH244260   3.758   4.348  12.173  0.1199  0.3360  0.2015
 7590TIP3    H144261   3.708   4.423  12.141 -0.4693  0.5244  1.5237
 7590TIP3    H244262   3.782   4.300  12.094 -0.9967  0.9736 -0.5453
 7591TIP3   OH244263   1.052   4.442  16.156  0.0986  0.1878 -0.0305
 7591TIP3    H144264   0.963   4.429  16.191 -0.1769  1.0849 -0.3661
 7591TIP3    H244265   1.070   4.535  16.173  0.1114  0.5555 -1.8918
 7592TIP3   OH244266   1.223   2.435   5.386 -0.1511 -0.3403  0.2686
 7592TIP3    H144267   1.210   2.502   5.320 -0.3147 -2.1526 -1.6653
 7592TIP3    H244268   1.314   2.406   5.374 -1.1566 -3.1530 -1.8074
 7593TIP3   OH244269   2.309   2.000   5.045  0.0571  0.0584  0.1802
 7593TIP3    H144270   2.338   1.920   4.999  0.9132  0.7415 -0.5202
 7593TIP3    H244271   2.219   1.981   5.071  0.7196 -1.7288  1.3954
 7594TIP3   OH244272   1.801   3.867   2.320  0.0130 -0.0625  0.0903
 7594TIP3    H144273   1.832   3.890   2.232  1.2058 -0.6082  0.3538
 7594TIP3    H244274   1.716   3.825   2.304  0.5698 -0.8687 -0.8860
 7595TIP3   OH244275   2.047   0.611   5.507  0.2856 -0.4066  0.1206
 7595TIP3    H144276   2.118   0.628   5.568 -0.1412  0.9522  0.2650
 7595TIP3    H244277   1.991   0.689   5.512  0.0626 -0.3939 -1.7442
 7596TIP3   OH244278   1.083   0.166   1.929  0.2343  0.2568 -0.1656
 7596TIP3    H144279   1.145   0.094   1.931  0.3519  0.2215 -2.2470
 7596TIP3    H244280   1.136   0.243   1.908 -0.2672  0.3681 -1.1090
 7597TIP3   OH244281   3.829   6.099  13.956 -0.1578  0.2369  0.2514
 7597TIP3    H144282   3.734   6.108  13.960 -0.1489  1.2377 -1.1314
 7597TIP3    H244283   3.859   6.178  13.910  1.4748  0.6195  1.8442
 7598TIP3   OH244284   3.024   3.209   3.233 -0.3914 -0.3995 -0.1836
 7598TIP3    H144285   3.118   3.190   3.242 -0.3719 -1.2978 -1.9073
 7598TIP3    H244286   3.004   3.262   3.309  1.6317  0.2157 -0.0060
 7599TIP3   OH244287   0.391   0.729  13.262 -0.2603 -0.3690 -0.0989
 7599TIP3    H144288   0.374   0.823  13.255  2.9072  0.2089 -2.0152
 7599TIP3    H244289   0.339   0.690  13.192 -2.0871 -0.2086  1.1053
 7600TIP3   OH244290   1.698   0.678   6.266 -0.0089  0.3519  0.1501
 7600TIP3    H144291   1.775   0.640   6.223 -1.1709 -0.9827 -0.8566
 7600TIP3    H244292   1.684   0.761   6.221  1.1153  0.8537  0.6857
 7601TIP3   OH244293   5.377   2.647   4.093 -0.1887  0.5670  0.0727
 7601TIP3    H144294   5.451   2.631   4.151  0.2495  0.0621 -0.6148
 7601TIP3    H244295   5.302   2.610   4.138 -0.2463  2.0469  1.2937
 7602TIP3   OH244296   1.164   0.036   4.297  0.1795 -0.4784  0.3523
 7602TIP3    H144297   1.183   0.126   4.269 -1.4188 -0.2126 -0.0233
 7602TIP3    H244298   1.094   0.008   4.238  0.8258 -2.0778  0.3103
 7603TIP3   OH244299   5.233   2.917  11.533 -0.3929 -0.7519 -0.4897
 7603TIP3    H144300   5.223   2.831  11.573  1.8073 -0.6593  0.3750
 7603TIP3    H244301   5.197   2.907  11.445  0.5584 -2.8108 -0.6930
 7604TIP3   OH244302   1.718   6.809   3.563 -0.6561  0.3342 -0.2695
 7604TIP3    H144303   1.807   6.792   3.594 -1.0142 -1.6649 -0.2096
 7604TIP3    H244304   1.729   6.838   3.473  0.1143  1.6751  0.2171
 7605TIP3   OH244305   3.836   5.300   1.098  0.3124 -0.2837 -0.1722
 7605TIP3    H144306   3.882   5.365   1.044 -1.9246 -0.4893 -2.5225
 7605TIP3    H244307   3.874   5.216   1.073 -0.4761 -0.3448 -1.1883
 7606TIP3   OH244308   1.659   5.623  15.412  0.1550  0.0690 -0.8126
 7606TIP3    H144309   1.736   5.666  15.449  0.8251 -1.5126 -0.2511
 7606TIP3    H244310   1.648   5.661  15.326  1.6685  0.2262 -0.9560
 7607TIP3   OH244311   0.764   0.661   6.221  0.7287 -0.2580  0.1111
 7607TIP3    H144312   0.723   0.577   6.241 -0.8264  0.6692  1.0252
 7607TIP3    H244313   0.729   0.685   6.135 -2.1144  1.2798  1.5540
 7608TIP3   OH244314   1.485   4.808  11.845  0.1848  0.5210 -0.1887
 7608TIP3    H144315   1.539   4.864  11.789 -0.1263  0.4411 -0.5693
 7608TIP3    H244316   1.531   4.725  11.848  1.4429  1.2158  1.5825
 7609TIP3   OH244317   6.297   1.004   4.795 -0.3985 -0.6786  0.6383
 7609TIP3    H144318   6.266   0.924   4.837  1.5831 -1.8850 -0.0747
 7609TIP3    H244319   6.281   1.073   4.860 -4.8980 -0.9810  0.1936
 7610TIP3   OH244320   4.273   0.144   1.838 -0.5147  1.2166  0.1201
 7610TIP3    H144321   4.225   0.175   1.761  1.3610  1.0644 -1.1882
 7610TIP3    H244322   4.364   0.163   1.818  0.0430  1.0808  2.3042
 7611TIP3   OH244323   3.354   5.707  15.320  0.3873 -0.1628  0.2720
 7611TIP3    H144324   3.356   5.795  15.356 -0.9246  0.6501 -1.4652
 7611TIP3    H244325   3.319   5.652  15.390  0.8770  0.7558  1.2488
 7612TIP3   OH244326   1.589   5.652  16.077  0.3492  0.7896  0.7584
 7612TIP3    H144327   1.511   5.598  16.086  0.0204  1.1983  0.4052
 7612TIP3    H244328   1.622   5.663  16.166  1.7546 -1.9142  0.6634
 7613TIP3   OH244329   1.670   1.467   5.480  0.5272  0.1580  0.1052
 7613TIP3    H144330   1.604   1.519   5.525 -0.4762 -0.9172 -0.0827
 7613TIP3    H244331   1.671   1.500   5.391 -1.1741 -1.0582 -0.4159
 7614TIP3   OH244332   2.386   0.562  16.365 -0.3591 -0.1830  0.5175
 7614TIP3    H144333   2.453   0.494  16.355 -0.5570 -0.2980 -0.0757
 7614TIP3    H244334   2.417   0.616  16.437  0.9516  0.4108 -0.4500
 7615TIP3   OH244335   1.696   3.449  12.879  0.3684  0.1250  0.1296
 7615TIP3    H144336   1.666   3.362  12.850  0.9927  0.2024 -0.7858
 7615TIP3    H244337   1.770   3.430  12.937  1.2373  0.0619 -0.9673
 7616TIP3   OH244338   6.461   2.810   0.968  0.5498  0.1256  0.0618
 7616TIP3    H144339   6.392   2.867   1.002 -0.1820  0.3049 -1.5926
 7616TIP3    H244340   6.466   2.739   1.031  0.4670  1.2779  1.4110
 7617TIP3   OH244341   1.896   2.838  15.326  0.3075 -0.1448  0.0868
 7617TIP3    H144342   1.831   2.769  15.310 -0.5504  0.2147  1.7658
 7617TIP3    H244343   1.843   2.916  15.347  1.2710  0.5321  0.0689
 7618TIP3   OH244344   2.490   0.982   1.096  0.5618  0.6890  0.2032
 7618TIP3    H144345   2.486   0.912   1.030 -0.2372  0.2256  0.7196
 7618TIP3    H244346   2.559   0.955   1.156  0.3482  0.3971  0.3247
 7619TIP3   OH244347   2.023   2.088   1.563 -0.0284 -0.2126  0.3617
 7619TIP3    H144348   1.976   2.153   1.616 -3.0217 -0.7518 -1.3762
 7619TIP3    H244349   2.115   2.112   1.572 -0.7488  2.4019  2.1883
 7620TIP3   OH244350   4.886   0.221   3.389  0.6570  0.3463  0.2993
 7620TIP3    H144351   4.877   0.234   3.484 -0.7982 -1.4032  0.4624
 7620TIP3    H244352   4.972   0.181   3.379  0.8425  0.5867  0.8727
 7621TIP3   OH244353   1.404   3.394  12.708  0.1906 -0.4876  0.1979
 7621TIP3    H144354   1.423   3.405  12.801  1.9683  0.5518 -0.2313
 7621TIP3    H244355   1.447   3.311  12.684  1.0721  0.0066  0.0120
 7622TIP3   OH244356   3.494   1.096   4.188 -0.0922 -0.8130 -0.0163
 7622TIP3    H144357   3.479   1.072   4.279 -1.8554  1.7915  0.5096
 7622TIP3    H244358   3.586   1.121   4.184  0.2858 -2.0312  0.7622
 7623TIP3   OH244359   2.769   3.168   5.726 -0.3212  0.2907 -0.1146
 7623TIP3    H144360   2.738   3.257   5.711 -0.5930  0.7697  2.7369
 7623TIP3    H244361   2.719   3.138   5.802  0.9465 -1.6748  0.0036
 7624TIP3   OH244362   5.713   3.905  16.558  0.1549  0.4164  0.7053
 7624TIP3    H144363   5.711   3.937  16.468 -0.3511 -1.1004  0.1507
 7624TIP3    H244364   5.621   3.900  16.584  0.3187  1.6484  1.6375
 7625TIP3   OH244365   5.728   3.366  17.274  0.0329 -0.4082  0.0643
 7625TIP3    H144366   5.775   3.282  17.280 -0.0273 -0.4369  0.1369
 7625TIP3    H244367   5.794   3.432  17.296 -0.2344 -0.5250  1.2787
 7626TIP3   OH244368   0.714   3.834   5.243  0.5610 -0.5914  0.0532
 7626TIP3    H144369   0.637   3.845   5.299 -0.2939 -0.4221 -1.1083
 7626TIP3    H244370   0.677   3.819   5.156  1.8427 -1.5093 -0.3583
 7627TIP3   OH244371   0.799   6.794   1.703 -0.4498  0.2360  0.2603
 7627TIP3    H144372   0.782   6.764   1.614 -0.9001 -0.9261  0.7113
 7627TIP3    H244373   0.731   6.860   1.719 -1.0898 -0.3765  0.1239
 7628TIP3   OH244374   5.949   4.633   1.581 -0.1178  0.2368  0.1261
 7628TIP3    H144375   6.008   4.592   1.644  0.8682  1.3001 -0.0888
 7628TIP3    H244376   5.906   4.703   1.630 -0.6790 -0.0652  0.0805
 7629TIP3   OH244377   1.012   1.119  13.013  0.3433  0.1312 -0.4814
 7629TIP3    H144378   0.928   1.095  13.053 -0.5372  0.9467 -1.7786
 7629TIP3    H244379   0.999   1.106  12.920  1.0630  1.9246 -0.8823
 7630TIP3   OH244380   5.147   2.002   3.369  0.0642 -0.5651  0.1462
 7630TIP3    H144381   5.062   1.962   3.391 -0.2003  0.2522  0.6996
 7630TIP3    H244382   5.211   1.948   3.415 -0.1949 -0.9532  0.0587
 7631TIP3   OH244383   2.040   2.212   1.284 -0.0747 -0.6150 -0.0006
 7631TIP3    H144384   2.128   2.183   1.258 -0.0204 -1.5674  1.1418
 7631TIP3    H244385   1.981   2.169   1.223  0.2623  0.4614 -1.1222
 7632TIP3   OH244386   6.269   2.433   4.564  0.2657 -0.1347 -0.2323
 7632TIP3    H144387   6.364   2.442   4.576  0.2992 -1.3442  0.5433
 7632TIP3    H244388   6.230   2.496   4.624  0.5723  0.2817 -0.4670
 7633TIP3   OH244389   2.621   1.467   2.144 -0.4056 -0.2623  0.5797
 7633TIP3    H144390   2.694   1.507   2.095 -2.1179  1.8466 -0.4456
 7633TIP3    H244391   2.654   1.382   2.171  2.4712  0.6494  0.2712
 7634TIP3   OH244392   5.322   0.305  12.253 -0.3140 -0.5093 -0.2295
 7634TIP3    H144393   5.356   0.219  12.276  0.1434  0.0774  1.4363
 7634TIP3    H244394   5.240   0.312  12.302  1.5315  1.4655  2.9462
 7635TIP3   OH244395   6.517   1.485  13.485  0.3353  0.0118 -0.2861
 7635TIP3    H144396   6.541   1.491  13.578 -0.5367  1.3915 -0.1173
 7635TIP3    H244397   6.595   1.514  13.438  0.5156  0.0805  0.0509
 7636TIP3   OH244398   6.375   0.779   4.112  0.6087  0.2446 -0.3919
 7636TIP3    H144399   6.363   0.745   4.201 -1.5072 -0.6358 -0.9341
 7636TIP3    H244400   6.462   0.819   4.112  0.5794  0.4551  2.1260
 7637TIP3   OH244401   0.512   0.200  11.053 -0.6939  0.2584 -0.2321
 7637TIP3    H144402   0.591   0.186  11.002 -0.4023  0.3333  0.1935
 7637TIP3    H244403   0.441   0.201  10.989 -0.2707  0.9067 -0.6961
 7638TIP3   OH244404   5.522   3.205  13.853  0.5852 -0.0102 -0.1089
 7638TIP3    H144405   5.483   3.131  13.899 -0.8011  0.3122 -0.7249
 7638TIP3    H244406   5.482   3.204  13.766  1.0010  1.1033 -0.3352
 7639TIP3   OH244407   4.992   4.396  14.311  0.7041 -0.5020 -0.3993
 7639TIP3    H144408   4.910   4.425  14.351  0.1166 -2.3584 -0.1975
 7639TIP3    H244409   4.990   4.301  14.317  2.7799 -0.6051 -0.6012
 7640TIP3   OH244410   1.992   1.082   1.082 -0.4972 -0.1828 -0.6141
 7640TIP3    H144411   2.000   1.024   1.006 -2.3611 -0.0387 -0.9623
 7640TIP3    H244412   1.943   1.158   1.050  0.8689  1.0675  0.1418
 7641TIP3   OH244413   0.507   1.426  11.471 -0.3049  0.2887 -0.3774
 7641TIP3    H144414   0.523   1.332  11.481 -1.5390 -0.1654 -2.0875
 7641TIP3    H244415   0.588   1.460  11.432 -0.7965 -0.6102 -2.2842
 7642TIP3   OH244416   6.637   4.114  14.757 -0.1300 -0.0473 -0.3174
 7642TIP3    H144417   6.587   4.040  14.792 -2.2404  0.6651 -1.6199
 7642TIP3    H244418   6.643   4.176  14.829 -1.1475 -0.1541 -0.1258
 7643TIP3   OH244419   6.177   0.006   3.474 -0.1656  0.1679 -0.1236
 7643TIP3    H144420   6.102   0.000   3.414  0.0697 -0.6325 -0.3516
 7643TIP3    H244421   6.140   0.045   3.554 -1.3537 -2.1238  0.5511
 7644TIP3   OH244422   2.245   0.218  13.013 -0.0693  0.1268  0.3053
 7644TIP3    H144423   2.205   0.241  13.097  0.8890 -0.6073  0.9899
 7644TIP3    H244424   2.282   0.300  12.981 -0.0993  0.3377  0.7932
 7645TIP3   OH244425   6.350   3.747  16.120  0.2243 -0.4272  0.5744
 7645TIP3    H144426   6.279   3.774  16.178 -1.7638 -1.0620 -1.4554
 7645TIP3    H244427   6.343   3.652  16.117  0.5559 -0.4243 -0.4175
 7646TIP3   OH244428   4.603   4.573   1.408  0.2321  0.4149 -0.7632
 7646TIP3    H144429   4.634   4.592   1.497  0.1856 -0.7806 -0.4650
 7646TIP3    H244430   4.517   4.533   1.422 -0.1341  0.9761 -1.4007
 7647TIP3   OH244431   4.251   5.489  16.589  0.0901 -0.1686 -0.4231
 7647TIP3    H144432   4.244   5.542  16.510  0.2220 -0.2329 -0.4777
 7647TIP3    H244433   4.260   5.399  16.557 -0.7732 -0.3009 -0.3223
 7648TIP3   OH244434   1.171   5.273   5.678 -0.1628 -0.4041  0.5094
 7648TIP3    H144435   1.207   5.269   5.767 -0.4193  0.4632  0.6598
 7648TIP3    H244436   1.197   5.359   5.645 -1.3293 -0.1155  0.2956
 7649TIP3   OH244437   4.255   6.602  12.359 -0.6537  0.7604 -0.0438
 7649TIP3    H144438   4.265   6.666  12.429  0.6123 -0.5666  1.0780
 7649TIP3    H244439   4.328   6.541  12.373  1.0238  1.6334 -3.8619
 7650TIP3   OH244440   5.570   5.543   4.107 -0.3432 -0.1447 -0.4239
 7650TIP3    H144441   5.576   5.574   4.017  0.7891 -1.4389 -0.8295
 7650TIP3    H244442   5.590   5.450   4.102  0.0758 -0.1852  1.2052
 7651TIP3   OH244443   5.200   5.323   6.325  0.9753 -0.4103  0.4362
 7651TIP3    H144444   5.169   5.254   6.383 -0.7907 -2.4812 -2.6676
 7651TIP3    H244445   5.131   5.389   6.327  0.7279 -0.6667  0.4228
 7652TIP3   OH244446   5.130   6.153  13.868  0.0877 -0.1110  0.4446
 7652TIP3    H144447   5.089   6.234  13.840 -1.0844 -0.1796  1.8556
 7652TIP3    H244448   5.084   6.129  13.949  1.0951 -1.6350  0.6108
 7653TIP3   OH244449   6.235   0.256   2.073 -0.0902 -0.1226 -1.0429
 7653TIP3    H144450   6.257   0.186   2.012  0.3267 -1.0891  0.1766
 7653TIP3    H244451   6.182   0.214   2.140  0.1412  0.7338 -0.3013
 7654TIP3   OH244452   5.886   3.522   3.453 -0.3503  0.4338 -1.0245
 7654TIP3    H144453   5.804   3.480   3.427  0.5477 -0.6766 -2.1731
 7654TIP3    H244454   5.955   3.466   3.417  0.9376  0.9910  0.4452
 7655TIP3   OH244455   3.976   0.447  15.979  0.9003 -0.3348  0.1707
 7655TIP3    H144456   3.957   0.372  16.036  1.1613 -1.0236 -0.6260
 7655TIP3    H244457   4.070   0.460  15.987  0.9846 -0.6215 -0.3203
 7656TIP3   OH244458   6.163   0.273   5.419 -0.0852 -0.0582  0.0668
 7656TIP3    H144459   6.078   0.277   5.461  0.7171 -1.5406  1.9716
 7656TIP3    H244460   6.194   0.364   5.419 -1.4770  0.4370 -0.3223
 7657TIP3   OH244461   5.250   2.364   0.434 -0.2818 -0.0617 -0.2953
 7657TIP3    H144462   5.321   2.319   0.479  0.0505  1.1863  0.5025
 7657TIP3    H244463   5.180   2.300   0.429  0.1547 -0.6555  0.8399
 7658TIP3   OH244464   4.159   6.821  16.689 -0.1497 -0.1221  0.5624
 7658TIP3    H144465   4.176   6.736  16.648  1.5744  0.7227 -0.5965
 7658TIP3    H244466   4.221   6.825  16.762  0.7830  0.6856 -0.2480
 7659TIP3   OH244467   1.425   2.684   1.813  0.4605 -0.2829  0.3583
 7659TIP3    H144468   1.490   2.708   1.747  1.5696 -2.1516  0.6889
 7659TIP3    H244469   1.430   2.755   1.878  1.8461 -0.1288  0.1225
 7660TIP3   OH244470   2.970   0.294   2.261 -0.0857  0.4314  0.2807
 7660TIP3    H144471   2.957   0.343   2.342 -0.1205 -0.3034  0.7298
 7660TIP3    H244472   3.064   0.301   2.244 -0.1398  0.9098  0.1762
 7661TIP3   OH244473   2.031   1.590  12.822 -0.0793  0.2354 -0.5733
 7661TIP3    H144474   2.100   1.655  12.830  0.7372 -0.7155  0.3971
 7661TIP3    H244475   1.980   1.599  12.903  0.2482 -0.5469 -0.2717
 7662TIP3   OH244476   6.294   5.715  13.057  0.4932  0.3603 -0.2651
 7662TIP3    H144477   6.362   5.776  13.086  0.1412  1.2132 -1.1529
 7662TIP3    H244478   6.230   5.715  13.128  0.3475  1.2862 -0.3792
 7663TIP3   OH244479   6.272   2.937  14.151 -0.2897 -0.1735 -0.0708
 7663TIP3    H144480   6.337   2.995  14.191 -1.0322  1.2030 -0.8028
 7663TIP3    H244481   6.281   2.952  14.057  1.0337 -2.9224 -0.4930
 7664TIP3   OH244482   1.780   6.526   1.684 -0.0901  0.1850 -0.7717
 7664TIP3    H144483   1.698   6.513   1.636 -0.1435  1.6137 -1.0956
 7664TIP3    H244484   1.838   6.457   1.650 -1.3865 -1.4146  0.0895
 7665TIP3   OH244485   1.426   0.971   0.468 -0.4392 -0.0237  0.2633
 7665TIP3    H144486   1.352   0.973   0.407 -0.5614  1.7717  0.4166
 7665TIP3    H244487   1.410   1.044   0.527  2.1139  1.3076 -0.5167
 7666TIP3   OH244488   1.688   1.428   4.711 -0.1588  0.0249 -0.7288
 7666TIP3    H144489   1.773   1.384   4.709 -0.6733 -1.0225 -0.3222
 7666TIP3    H244490   1.661   1.424   4.803 -0.9408 -0.2550 -0.9599
 7667TIP3   OH244491   2.449   0.824  12.085 -0.4730 -0.3491 -0.0194
 7667TIP3    H144492   2.387   0.877  12.035 -0.5831  1.6007  2.0164
 7667TIP3    H244493   2.431   0.734  12.059 -2.8729  0.3097 -0.8558
 7668TIP3   OH244494   3.625   5.700   2.918  0.1473  0.0892  0.4659
 7668TIP3    H144495   3.564   5.734   2.983 -0.6914 -0.5084  0.0122
 7668TIP3    H244496   3.587   5.726   2.834 -0.1631 -1.3456  0.1337
 7669TIP3   OH244497   4.891   0.764  13.124 -0.1950 -0.2336  0.1238
 7669TIP3    H144498   4.880   0.754  13.219 -0.4670 -2.4484 -0.0799
 7669TIP3    H244499   4.964   0.825  13.114  0.7390 -1.0266  1.7789
 7670TIP3   OH244500   6.032   3.369   2.620  0.0280 -0.0871  0.2912
 7670TIP3    H144501   6.084   3.397   2.695  0.5278 -0.4447  0.0833
 7670TIP3    H244502   6.062   3.425   2.548 -0.1936  0.0133  0.2781
 7671TIP3   OH244503   2.508   3.113   5.609 -0.3002 -0.4601 -0.0872
 7671TIP3    H144504   2.477   3.132   5.697  0.4558  0.5268 -0.0112
 7671TIP3    H244505   2.429   3.107   5.556 -0.6802  2.3873  0.0231
 7672TIP3   OH244506   2.390   4.116  17.062 -0.8364  0.0730 -0.5296
 7672TIP3    H144507   2.400   4.171  17.139 -1.2972  0.0775 -0.4705
 7672TIP3    H244508   2.479   4.098  17.033 -0.6754  0.5229 -0.3170
 7673TIP3   OH244509   4.724   4.795   5.723  0.5764  0.1180  0.1448
 7673TIP3    H144510   4.742   4.841   5.805  1.5661 -0.9688  0.5525
 7673TIP3    H244511   4.666   4.724   5.747  0.5970 -0.0047 -0.1613
 7674TIP3   OH244512   1.091   0.760   1.536  0.1890 -0.2237  0.1943
 7674TIP3    H144513   1.094   0.703   1.459 -0.1920 -0.8060  0.6060
 7674TIP3    H244514   1.047   0.708   1.603  0.6250  0.2347  0.8474
 7675TIP3   OH244515   4.565   0.480  15.833  1.0465 -0.1706 -0.4026
 7675TIP3    H144516   4.595   0.505  15.745  0.6215 -2.4308 -1.2501
 7675TIP3    H244517   4.470   0.494  15.830  1.3232  2.7141  0.8079
 7676TIP3   OH244518   5.814   0.659   6.007 -0.5950  0.4030  1.0185
 7676TIP3    H144519   5.815   0.563   6.006 -0.6189  0.4067  0.5980
 7676TIP3    H244520   5.905   0.682   6.025  0.1564  0.3176 -2.0765
 7677TIP3   OH244521   2.597   3.902   0.280  0.5669 -0.0342  0.1689
 7677TIP3    H144522   2.517   3.855   0.258 -0.4201  1.4070  0.5412
 7677TIP3    H244523   2.629   3.860   0.360 -0.3207 -0.0505  0.5237
 7678TIP3   OH244524   3.075   2.764  16.621 -0.6615 -0.0019  0.3674
 7678TIP3    H144525   3.008   2.784  16.557 -0.5981 -0.9466 -0.0118
 7678TIP3    H244526   3.068   2.669  16.635  2.1155 -0.6167 -1.4853
 7679TIP3   OH244527   5.571   1.873   0.457 -0.2311 -0.5308  0.1634
 7679TIP3    H144528   5.604   1.947   0.406  1.6751 -1.6001 -0.2509
 7679TIP3    H244529   5.505   1.833   0.401 -3.4858  2.4255  1.5437
 7680TIP3   OH244530   0.033   4.958   2.671  0.3627  0.2111 -0.2524
 7680TIP3    H144531   0.093   4.943   2.744 -1.3061 -1.2973  0.8869
 7680TIP3    H244532   0.034   5.053   2.660  0.0578  0.6029  2.3284
 7681TIP3   OH244533   2.733   2.262   4.739 -0.1962  0.5028 -0.0543
 7681TIP3    H144534   2.706   2.293   4.826  1.9026  0.2496  0.7471
 7681TIP3    H244535   2.718   2.167   4.743 -2.7685  0.7918 -1.0479
 7682TIP3   OH244536   5.319   2.704   2.964 -0.6381 -0.2380  0.3280
 7682TIP3    H144537   5.314   2.786   2.915  0.9771 -1.2180 -1.6502
 7682TIP3    H244538   5.357   2.728   3.048  0.6746  0.9516 -0.5619
 7683TIP3   OH244539   1.762   0.047   5.183 -0.4184  0.6207  0.0026
 7683TIP3    H144540   1.836  -0.005   5.214 -0.6085  0.0037 -0.5629
 7683TIP3    H244541   1.730   0.092   5.261 -1.0195 -1.0586  0.7720
 7684TIP3   OH244542   5.789   5.873  16.377  0.4684 -0.1978 -0.4690
 7684TIP3    H144543   5.876   5.845  16.348  1.3309  1.6105  0.2182
 7684TIP3    H244544   5.756   5.800  16.428  1.5964 -0.9086 -0.7276
 7685TIP3   OH244545   0.784   3.692   4.532 -0.1103 -0.0145  0.3483
 7685TIP3    H144546   0.747   3.636   4.601 -0.7044  2.0856  1.8450
 7685TIP3    H244547   0.842   3.634   4.483 -0.7223 -1.9446  1.7697
 7686TIP3   OH244548   6.201   1.720   3.147  0.1768  0.1844 -0.0313
 7686TIP3    H144549   6.175   1.666   3.072  1.4710 -0.4380 -0.0493
 7686TIP3    H244550   6.283   1.682   3.177 -0.5214  0.1413  2.0055
 7687TIP3   OH244551   0.070   0.347  16.372  0.4011  0.0856  0.2202
 7687TIP3    H144552  -0.017   0.374  16.344  0.5751 -0.3836 -0.8184
 7687TIP3    H244553   0.126   0.361  16.295  0.9180 -1.1503  0.3527
 7688TIP3   OH244554   1.672   5.379   4.207 -0.0393 -0.1935 -0.6995
 7688TIP3    H144555   1.580   5.403   4.195 -0.8924 -3.2272 -0.8452
 7688TIP3    H244556   1.674   5.335   4.291  2.0423  2.7722  0.9921
 7689TIP3   OH244557   0.321   4.831   1.825  0.6082  0.0421  0.6857
 7689TIP3    H144558   0.263   4.907   1.832  0.9169  0.5685 -1.6667
 7689TIP3    H244559   0.262   4.757   1.809  0.3260 -0.2288  2.7258
 7690TIP3   OH244560   2.748   4.574   0.858  0.2511 -0.5494 -0.2839
 7690TIP3    H144561   2.797   4.619   0.790 -0.2741 -0.8890 -0.8991
 7690TIP3    H244562   2.756   4.481   0.836 -1.7747 -0.5586 -1.1948
 7691TIP3   OH244563   1.751   6.371  13.513  0.3002 -0.7514  0.0347
 7691TIP3    H144564   1.690   6.434  13.551 -0.7222 -1.8849  0.3733
 7691TIP3    H244565   1.699   6.292  13.501  1.2790 -1.2205 -1.3490
 7692TIP3   OH244566   0.943   4.877  16.528  0.8593  0.2730  0.6060
 7692TIP3    H144567   0.854   4.903  16.502  1.0065 -0.4121 -0.6790
 7692TIP3    H244568   1.000   4.941  16.484  1.0273  0.5388  1.1949
 7693TIP3   OH244569   4.630   4.410  15.835  0.9092  0.3748 -0.3512
 7693TIP3    H144570   4.636   4.334  15.778  1.8232  0.8435 -0.9041
 7693TIP3    H244571   4.706   4.403  15.893 -0.2221 -0.3109  1.1176
 7694TIP3   OH244572   5.754   5.011  13.558 -0.1601 -0.1798 -0.0419
 7694TIP3    H144573   5.695   4.936  13.551 -0.2633 -0.2503  1.2345
 7694TIP3    H244574   5.835   4.982  13.516 -0.2053 -1.0199  0.4195
 7695TIP3   OH244575   5.499   1.026  15.596 -0.0814  0.4008  0.2752
 7695TIP3    H144576   5.523   0.959  15.659  0.4483  2.5712  2.5312
 7695TIP3    H244577   5.407   1.046  15.615 -0.3337  0.1227 -0.5958
 7696TIP3   OH244578   3.132   6.018   1.501  0.3064  0.2936  0.3913
 7696TIP3    H144579   3.084   5.942   1.533 -1.0641  1.1655  0.5194
 7696TIP3    H244580   3.139   6.076   1.578 -0.0981  0.9731 -0.0701
 7697TIP3   OH244581   5.864   4.667  15.679 -0.3533 -0.1395 -0.0336
 7697TIP3    H144582   5.851   4.601  15.611 -1.6601  0.2973 -0.2315
 7697TIP3    H244583   5.896   4.744  15.632 -0.0066 -0.2407  0.0327
 7698TIP3   OH244584   1.499   4.014  11.502  0.0069  0.1308 -0.1599
 7698TIP3    H144585   1.487   3.947  11.570 -2.3532  0.4354 -0.2024
 7698TIP3    H244586   1.442   3.986  11.430  1.4648  0.5175 -1.5218
 7699TIP3   OH244587   0.067   5.337  13.884 -0.2266  0.1915 -0.2311
 7699TIP3    H144588   0.096   5.332  13.793 -0.2540  1.1710 -0.3069
 7699TIP3    H244589   0.015   5.259  13.897 -0.8628  0.4194 -1.2937
 7700TIP3   OH244590   4.383   5.528  13.219 -0.1205  0.5039 -0.1059
 7700TIP3    H144591   4.429   5.560  13.141  1.3352  0.4753  0.7216
 7700TIP3    H244592   4.389   5.600  13.282  1.0729 -0.4555  0.9224
 7701TIP3   OH244593   1.516   2.026  11.659  0.1532  0.1853  0.0666
 7701TIP3    H144594   1.534   1.943  11.704  0.5689  0.8921  1.2650
 7701TIP3    H244595   1.584   2.031  11.592 -1.3886 -1.6115 -1.7486
 7702TIP3   OH244596   0.506   5.567   3.148  0.3837  0.4100  0.5102
 7702TIP3    H144597   0.444   5.612   3.090  0.9245  0.3092 -0.1623
 7702TIP3    H244598   0.576   5.630   3.161  1.4665 -0.4317 -0.9675
 7703TIP3   OH244599   4.090   6.063  16.264 -0.3471  0.3711  0.0111
 7703TIP3    H144600   4.096   5.983  16.211 -0.8838 -0.3706  1.0455
 7703TIP3    H244601   4.014   6.049  16.320  0.2829  1.0901  1.0675
 7704TIP3   OH244602   3.277   5.688   2.937 -0.3669  0.6541 -0.2528
 7704TIP3    H144603   3.322   5.758   2.984  0.5955 -0.1057 -0.0111
 7704TIP3    H244604   3.255   5.624   3.005 -0.5452  0.3652 -0.5802
 7705TIP3   OH244605   1.606   0.230  14.421 -0.5233  0.3686 -0.1347
 7705TIP3    H144606   1.565   0.181  14.493  0.2960 -1.0407 -0.5890
 7705TIP3    H244607   1.678   0.278  14.462  1.2638 -2.0418 -0.2446
 7706TIP3   OH244608   6.645   2.510  13.227 -0.1124  0.3770  0.1270
 7706TIP3    H144609   6.705   2.583  13.239 -0.2228  0.5732 -0.5011
 7706TIP3    H244610   6.565   2.549  13.191 -0.0272 -0.0921 -0.5994
 7707TIP3   OH244611   4.073   0.485  14.365  0.1444  0.0895 -0.0073
 7707TIP3    H144612   4.058   0.562  14.419  0.6986  2.3046 -2.7790
 7707TIP3    H244613   3.993   0.476  14.313  0.5261 -0.5468 -0.5014
 7708TIP3   OH244614   2.551   6.617  12.273  0.6442 -0.3026 -0.0606
 7708TIP3    H144615   2.630   6.669  12.271  0.1726  0.5069  1.2701
 7708TIP3    H244616   2.521   6.615  12.182 -0.0800  2.9795 -0.0278
 7709TIP3   OH244617   3.158   4.933   0.856  0.3941  0.0092  0.0289
 7709TIP3    H144618   3.229   4.997   0.854 -0.2191  0.6960 -0.2786
 7709TIP3    H244619   3.100   4.964   0.925  0.4522 -0.6189  0.3633
 7710TIP3   OH244620   1.013   3.895  12.966  0.8143  0.1504  0.0172
 7710TIP3    H144621   1.107   3.903  12.980  0.7012  0.0027  0.9152
 7710TIP3    H244622   0.974   3.950  13.033  0.2585  0.2227 -0.3612
 7711TIP3   OH244623   6.455   1.161  14.616 -0.1511  0.4426  0.2732
 7711TIP3    H144624   6.404   1.137  14.538 -2.3558 -0.7818  1.9773
 7711TIP3    H244625   6.546   1.158  14.587 -0.8873 -0.0575 -2.2197
 7712TIP3   OH244626   3.312   1.949   1.612  0.3774 -0.3930  0.3048
 7712TIP3    H144627   3.321   1.872   1.556 -0.0198 -1.7931  2.0859
 7712TIP3    H244628   3.229   1.936   1.658  1.9236 -0.7341  3.2362
 7713TIP3   OH244629   0.607   6.389   5.576  0.5447 -0.1005  0.2072
 7713TIP3    H144630   0.662   6.465   5.595 -2.2607  2.3576 -0.7271
 7713TIP3    H244631   0.570   6.364   5.660  1.5706 -0.5526  0.5373
 7714TIP3   OH244632   0.153   2.892   6.092  0.0523  0.1211 -0.2372
 7714TIP3    H144633   0.189   2.971   6.132 -2.1055  0.0639  2.0209
 7714TIP3    H244634   0.162   2.824   6.158  0.7029 -1.2684 -1.6735
 7715TIP3   OH244635   5.525   3.187  13.170  0.1599  0.0558 -0.7235
 7715TIP3    H144636   5.463   3.229  13.111 -1.1267 -0.8658 -0.0889
 7715TIP3    H244637   5.527   3.244  13.247 -2.3469 -1.3916  0.5587
 7716TIP3   OH244638   2.027   6.149  11.667 -0.0321  0.1056 -0.5036
 7716TIP3    H144639   2.077   6.220  11.628  1.7175 -0.6459  0.2528
 7716TIP3    H244640   2.049   6.072  11.614 -1.5123  0.0058 -1.0157
 7717TIP3   OH244641   6.223   6.083  12.128 -0.4764  0.0339  0.0218
 7717TIP3    H144642   6.287   6.012  12.114 -0.0655  0.3730  0.1596
 7717TIP3    H244643   6.224   6.132  12.046 -0.7529 -0.1121 -0.0694
 7718TIP3   OH244644   3.143   5.013   1.366 -0.5004  0.1333  0.0081
 7718TIP3    H144645   3.176   4.947   1.306 -1.9597 -1.6881  1.1102
 7718TIP3    H244646   3.221   5.048   1.409  0.4612  0.6895 -2.0810
 7719TIP3   OH244647   1.508   1.366  16.786 -0.2068  0.4697 -0.1300
 7719TIP3    H144648   1.477   1.302  16.722  0.8077  0.5427 -0.7176
 7719TIP3    H244649   1.567   1.316  16.843  1.4761  1.0856 -1.2734
 7720TIP3   OH244650   6.642   5.289  12.587 -0.0104 -0.0926 -0.3823
 7720TIP3    H144651   6.553   5.254  12.588 -0.2277  0.4214  1.1217
 7720TIP3    H244652   6.636   5.372  12.635  1.2817 -0.0492 -0.2449
 7721TIP3   OH244653   4.371   1.948   0.415  0.1053 -0.5111 -0.4740
 7721TIP3    H144654   4.298   1.886   0.422  0.5468 -0.9872  0.0660
 7721TIP3    H244655   4.340   2.027   0.459  0.6996 -1.4721  1.8453
 7722TIP3   OH244656   2.790   1.613   3.059 -0.1140  0.3658 -0.3063
 7722TIP3    H144657   2.793   1.681   3.126 -1.7955  0.5551 -0.3856
 7722TIP3    H244658   2.751   1.656   2.983 -0.2726 -0.4195 -0.6836
 7723TIP3   OH244659   5.019   5.855   0.225 -0.7365  0.2422 -0.3082
 7723TIP3    H144660   5.047   5.857   0.133 -0.6309 -0.3227 -0.2958
 7723TIP3    H244661   4.972   5.937   0.238  0.2390  0.8604 -0.5545
 7724TIP3   OH244662   3.354   4.992   0.528  0.0650 -0.1579  0.0191
 7724TIP3    H144663   3.351   4.904   0.566  2.8657  0.1138  1.0683
 7724TIP3    H244664   3.442   5.000   0.492  0.8376  3.0640  2.2156
 7725TIP3   OH244665   1.780   1.306   1.918  0.6403 -0.1405  1.0638
 7725TIP3    H144666   1.782   1.326   1.824  0.4388  1.0077  1.2862
 7725TIP3    H244667   1.723   1.230   1.925 -0.1412  0.3595  0.3433
 7726TIP3   OH244668   1.133   5.256   0.051 -0.3974 -0.4370  0.0734
 7726TIP3    H144669   1.089   5.223  -0.027 -1.1058  0.2972  0.1465
 7726TIP3    H244670   1.124   5.186   0.116  0.0277 -0.9706 -0.4389
 7727TIP3   OH244671   3.644   2.538   1.684 -0.4991 -0.0689  0.1706
 7727TIP3    H144672   3.730   2.580   1.695  0.4369 -1.7875 -0.2348
 7727TIP3    H244673   3.631   2.532   1.590 -2.8266  3.4568  0.0855
 7728TIP3   OH244674   1.892   2.657   0.621  0.1411  0.1791 -0.7389
 7728TIP3    H144675   1.975   2.611   0.633  0.3965  0.8040  0.0124
 7728TIP3    H244676   1.914   2.731   0.564  0.0149  0.1093 -0.8775
 7729TIP3   OH244677   6.131   3.115  12.861  0.5309 -0.2689  0.1225
 7729TIP3    H144678   6.216   3.072  12.854  0.0668 -1.1466 -0.3062
 7729TIP3    H244679   6.097   3.088  12.946 -0.0267 -1.2952 -0.3997
 7730TIP3   OH244680   1.794   5.001   1.934  0.4564 -0.1800  0.2715
 7730TIP3    H144681   1.734   4.948   1.882 -0.3844  0.9820  0.0262
 7730TIP3    H244682   1.780   4.973   2.024  0.1688 -0.5188  0.1207
 7731TIP3   OH244683   3.444   3.077   0.961 -0.1937  0.3146  0.3368
 7731TIP3    H144684   3.487   3.144   0.908 -1.0308  0.3492 -0.3115
 7731TIP3    H244685   3.513   3.046   1.020  0.9165 -0.0571 -1.0730
 7732TIP3   OH244686   5.360   6.427  14.448 -0.4887 -0.2628 -0.3003
 7732TIP3    H144687   5.423   6.358  14.465 -1.3324 -1.0344 -0.2581
 7732TIP3    H244688   5.393   6.470  14.369  0.3746 -0.2919  0.0241
 7733TIP3   OH244689   5.734   2.750   0.973 -0.6335 -0.3543 -0.1708
 7733TIP3    H144690   5.779   2.741   0.889  1.1155  0.2740  0.6450
 7733TIP3    H244691   5.710   2.843   0.977  0.1976 -0.1439  0.4146
 7734TIP3   OH244692   5.429   1.238   3.490 -0.1536 -0.3387  0.5594
 7734TIP3    H144693   5.517   1.241   3.453  0.0347  0.9719  1.0690
 7734TIP3    H244694   5.391   1.157   3.456  0.6432 -0.0757 -1.0385
 7735TIP3   OH244695   4.665   4.474   5.038 -0.2389 -0.0079  0.5351
 7735TIP3    H144696   4.657   4.401   4.976 -0.1052 -0.3084  0.8702
 7735TIP3    H244697   4.733   4.447   5.099  1.4581  1.3743 -0.6574
 7736TIP3   OH244698   6.478   3.632  16.945  0.4071  0.5410 -0.0483
 7736TIP3    H144699   6.416   3.651  17.016 -0.6725  1.2220 -1.1336
 7736TIP3    H244700   6.494   3.538  16.952 -0.3449  0.4457  0.5810
 7737TIP3   OH244701   0.145   0.898  11.441 -0.1791 -0.2747 -0.2113
 7737TIP3    H144702   0.175   0.808  11.437 -1.0473 -0.6396  0.8910
 7737TIP3    H244703   0.130   0.923  11.349  2.9241 -0.2000 -0.7954
 7738TIP3   OH244704   4.759   5.958   3.898 -0.1372  0.4567  0.5945
 7738TIP3    H144705   4.797   5.885   3.847  1.9520  2.0501 -0.3006
 7738TIP3    H244706   4.803   5.954   3.982 -0.3274  0.4397  0.6932
 7739TIP3   OH244707   3.308   0.947  14.076 -0.0090 -0.3223 -0.0129
 7739TIP3    H144708   3.284   1.025  14.127 -0.8777  0.5844 -1.7077
 7739TIP3    H244709   3.275   0.874  14.128 -2.0899  0.6252  0.1462
 7740TIP3   OH244710   4.374   1.656  16.552  0.0810  0.0520 -0.2498
 7740TIP3    H144711   4.408   1.745  16.561 -0.8623  0.3185  0.9945
 7740TIP3    H244712   4.352   1.630  16.641 -0.2380 -1.2047 -0.6754
 7741TIP3   OH244713   1.035   4.809   3.525 -0.0525  0.2153  0.0360
 7741TIP3    H144714   0.979   4.882   3.551  0.4738  1.0437 -1.0707
 7741TIP3    H244715   1.101   4.804   3.594 -0.5397  0.2698  0.5187
 7742TIP3   OH244716   3.900   6.324   5.559  0.0049 -0.3012  0.7283
 7742TIP3    H144717   3.837   6.372   5.613  0.9594  1.8924  0.0115
 7742TIP3    H244718   3.954   6.277   5.621 -1.8593 -1.6920  1.3969
 7743TIP3   OH244719   4.616   0.760  11.120 -0.0000 -0.0231  0.2247
 7743TIP3    H144720   4.538   0.790  11.166 -0.3787  1.7331 -1.4108
 7743TIP3    H244721   4.582   0.711  11.045  0.2489  2.5848 -1.7466
 7744TIP3   OH244722   3.933   5.389   5.103  0.2391  0.1116  0.2788
 7744TIP3    H144723   3.940   5.296   5.122  0.4183  0.2421  0.8576
 7744TIP3    H244724   3.880   5.425   5.174 -0.5686  0.3107 -0.4030
 7745TIP3   OH244725   5.825   3.587  15.313  0.1156 -0.2146  0.2676
 7745TIP3    H144726   5.811   3.527  15.241 -1.1083  1.2948 -0.8276
 7745TIP3    H244727   5.906   3.633  15.291 -0.3037  0.3073 -0.2141
 7746TIP3   OH244728   0.908   5.108  11.483  0.2612  0.0873 -0.0332
 7746TIP3    H144729   0.926   5.043  11.415 -0.7397 -1.0474  0.7490
 7746TIP3    H244730   0.945   5.071  11.563  1.2403  1.3144  0.1150
 7747TIP3   OH244731   5.868   3.567  11.874  0.0631 -0.3641  0.0719
 7747TIP3    H144732   5.891   3.597  11.963 -2.1202  0.5235  0.4034
 7747TIP3    H244733   5.828   3.644  11.833 -2.4831 -1.7992 -0.3104
 7748TIP3   OH244734   1.201   3.970  17.126  0.1907  0.4899  0.0670
 7748TIP3    H144735   1.175   4.032  17.058 -1.7473 -0.0686  0.2330
 7748TIP3    H244736   1.182   3.884  17.087 -0.4561  0.1508  1.1015
 7749TIP3   OH244737   1.125   5.446  16.392 -0.2611  0.0775  0.9584
 7749TIP3    H144738   1.106   5.424  16.301 -1.3903 -1.4719  1.5211
 7749TIP3    H244739   1.053   5.501  16.420  0.2004  0.7393  0.8711
 7750TIP3   OH244740   3.330   0.830  13.618 -0.0295  0.6519 -0.6849
 7750TIP3    H144741   3.275   0.830  13.696  0.8942  4.0760  0.1272
 7750TIP3    H244742   3.419   0.817  13.651  0.1584 -0.0654 -1.4400
 7751TIP3   OH244743   0.154   4.139   1.979 -0.5218  0.3797 -0.3504
 7751TIP3    H144744   0.076   4.169   1.932  0.6773  1.6458 -1.6167
 7751TIP3    H244745   0.226   4.150   1.916  0.7598 -0.2913  0.9436
 7752TIP3   OH244746   5.987   6.116  14.039 -0.1334 -0.1693  0.4280
 7752TIP3    H144747   5.918   6.176  14.012  0.6338 -0.0228 -1.3949
 7752TIP3    H244748   6.034   6.162  14.108  0.0645  1.1029 -0.5103
 7753TIP3   OH244749   2.653   2.171   3.322 -0.0114  0.0894  0.1242
 7753TIP3    H144750   2.736   2.126   3.306  1.0097  1.0976  2.2195
 7753TIP3    H244751   2.588   2.118   3.276  1.8710 -0.1815 -2.4909
 7754TIP3   OH244752   4.006   2.706  16.650  0.0722 -0.0043 -0.2535
 7754TIP3    H144753   4.000   2.611  16.663 -1.2224 -0.0565 -1.1337
 7754TIP3    H244754   4.043   2.739  16.732 -2.6894 -0.9046  1.4539
 7755TIP3   OH244755   0.016   1.651   1.059  0.3032 -0.1027  0.1155
 7755TIP3    H144756   0.047   1.634   1.149  0.6750 -0.5197 -0.0875
 7755TIP3    H244757  -0.028   1.570   1.034  1.5057 -0.5431 -0.6217
 7756TIP3   OH244758   6.740   5.149   6.288  0.5442  0.1253  0.4977
 7756TIP3    H144759   6.649   5.177   6.301  0.3063 -0.4364  0.0765
 7756TIP3    H244760   6.735   5.054   6.279  1.1233  0.1267  0.0850
 7757TIP3   OH244761   0.562   1.475  15.288 -0.0384 -0.7994 -0.3298
 7757TIP3    H144762   0.607   1.422  15.222  1.6275 -0.8850  0.8248
 7757TIP3    H244763   0.625   1.543  15.311 -1.8153  1.2708 -1.1939
 7758TIP3   OH244764   3.264   5.858   3.993 -0.3269  0.3761 -0.2688
 7758TIP3    H144765   3.190   5.815   3.949 -1.1523  2.9911 -1.6725
 7758TIP3    H244766   3.222   5.919   4.054  0.8062 -1.8693  2.9987
 7759TIP3   OH244767   4.293   4.103   2.499 -0.0699  0.8086 -0.5139
 7759TIP3    H144768   4.301   4.008   2.485  4.0381  0.7857  0.5078
 7759TIP3    H244769   4.257   4.137   2.417  0.2104 -1.4943 -1.6754
 7760TIP3   OH244770   5.281   4.371  15.135  0.1134  0.0268 -0.0622
 7760TIP3    H144771   5.262   4.329  15.051  0.9400  0.0404 -0.2696
 7760TIP3    H244772   5.292   4.464  15.114 -2.8877  0.6149  0.5796
 7761TIP3   OH244773   1.260   1.351  12.664 -0.4024 -0.2967  0.1121
 7761TIP3    H144774   1.245   1.257  12.668 -0.6787 -0.2761 -0.3888
 7761TIP3    H244775   1.188   1.385  12.610 -0.2841  0.1963  0.2543
 7762TIP3   OH244776   1.917   2.843  14.869  0.2644 -0.2576 -0.1369
 7762TIP3    H144777   1.996   2.806  14.910  0.6237  1.6223  0.9914
 7762TIP3    H244778   1.875   2.769  14.826  1.9007 -1.5838  0.4497
 7763TIP3   OH244779   5.889   4.572  14.734 -0.2748  0.1115 -0.0866
 7763TIP3    H144780   5.832   4.538  14.804 -0.2386 -3.2004 -1.4590
 7763TIP3    H244781   5.947   4.633  14.779 -1.6136 -0.2426  2.3519
 7764TIP3   OH244782   5.868   6.464  15.620 -0.1196 -0.3004 -0.8566
 7764TIP3    H144783   5.862   6.421  15.705  0.9142 -0.1136 -0.6633
 7764TIP3    H244784   5.817   6.410  15.561  0.1856 -1.1354 -0.3684
 7765TIP3   OH244785   6.064   2.207   5.732 -0.4408  0.1636 -0.3172
 7765TIP3    H144786   6.011   2.127   5.738  1.2411 -0.9718  0.0885
 7765TIP3    H244787   6.001   2.276   5.713 -1.7544 -1.5106 -2.5444
 7766TIP3   OH244788   5.164   2.451  12.115 -0.0905  0.3121  0.2948
 7766TIP3    H144789   5.118   2.368  12.120 -0.0485  0.2919  0.3487
 7766TIP3    H244790   5.145   2.495  12.198  1.6410 -0.5718  1.2060
 7767TIP3   OH244791   3.003   1.203   3.264 -0.1167 -0.0806  0.2532
 7767TIP3    H144792   3.087   1.167   3.293  0.1159  0.2323 -0.0205
 7767TIP3    H244793   3.027   1.273   3.202 -0.5984 -0.7647 -0.7278
 7768TIP3   OH244794   0.094   0.848   0.446 -0.2910  0.4683  0.3184
 7768TIP3    H144795   0.022   0.872   0.387 -1.2927 -1.1842  0.7878
 7768TIP3    H244796   0.128   0.931   0.478  0.9239  1.5482 -3.2202
 7769TIP3   OH244797   2.862   2.941  13.172 -0.1645  0.2110  0.1930
 7769TIP3    H144798   2.937   2.971  13.224  0.4096  3.0711 -2.0075
 7769TIP3    H244799   2.867   2.845  13.176  2.7766  0.3042  1.2810
 7770TIP3   OH244800   6.734   4.673   0.842 -0.1734 -0.0682  0.6881
 7770TIP3    H144801   6.644   4.657   0.815 -0.0587 -0.5451  0.5796
 7770TIP3    H244802   6.787   4.631   0.775  0.1269 -0.2993  1.0685
 7771TIP3   OH244803   6.799   3.904   2.160  0.4115  0.1153  0.3886
 7771TIP3    H144804   6.822   3.886   2.069 -0.7889 -1.7672  0.4109
 7771TIP3    H244805   6.869   3.862   2.211 -0.8140 -2.0898  0.3657
 7772TIP3   OH244806   1.145   3.520  15.756 -0.3852 -0.3459  0.0474
 7772TIP3    H144807   1.172   3.428  15.750 -1.4432 -0.6216 -0.9662
 7772TIP3    H244808   1.076   3.521  15.822  1.6309  0.2707  2.2630
 7773TIP3   OH244809   2.978   3.112  12.047 -0.2849  0.1499 -0.0749
 7773TIP3    H144810   2.993   3.193  12.095 -0.7377  0.2733 -0.1340
 7773TIP3    H244811   3.044   3.112  11.978 -0.4288  0.5787 -0.2112
 7774TIP3   OH244812   6.602   6.458  12.356 -0.4694  0.1115 -0.2155
 7774TIP3    H144813   6.677   6.413  12.317 -0.0459  1.0182 -0.4591
 7774TIP3    H244814   6.605   6.432  12.448  0.3564  0.4205 -0.1488
 7775TIP3   OH244815   1.947   0.394   5.653  0.4026 -0.1779 -0.5788
 7775TIP3    H144816   2.028   0.370   5.698 -0.6319 -0.3974  1.2492
 7775TIP3    H244817   1.975   0.457   5.586  2.0346 -0.0246  0.2000
 7776TIP3   OH244818   1.028   3.828   5.193 -0.0016  0.1597 -0.3389
 7776TIP3    H144819   1.023   3.888   5.268  0.8450  1.9379 -1.6398
 7776TIP3    H244820   0.942   3.834   5.151 -0.7444 -1.4120  0.8311
 7777TIP3   OH244821   2.835   4.756  14.226  0.1392  0.3031  0.2219
 7777TIP3    H144822   2.909   4.813  14.248  1.3668 -2.0476  2.7807
 7777TIP3    H244823   2.873   4.686  14.173 -0.4809 -0.3490  0.6239
 7778TIP3   OH244824   5.810   6.732   3.573 -0.2952 -0.1300  0.1395
 7778TIP3    H144825   5.757   6.677   3.516  0.4368 -0.0003 -0.6833
 7778TIP3    H244826   5.893   6.743   3.527 -0.2074  1.1748  0.5494
 7779TIP3   OH244827   6.631   4.516   0.111  0.0120  0.2636 -0.0519
 7779TIP3    H144828   6.636   4.529   0.205 -0.1179 -0.9001  0.1233
 7779TIP3    H244829   6.550   4.560   0.085  0.1650  0.7842  0.3360
 7780TIP3   OH244830   6.821   0.013  17.116 -0.0452  0.4848 -0.3349
 7780TIP3    H144831   6.864   0.071  17.179 -1.0802  1.3879 -0.4349
 7780TIP3    H244832   6.836   0.055  17.031  1.3055 -0.7049 -0.7265
 7781TIP3   OH244833   6.714   6.503  13.549  0.5382  0.2396  0.4754
 7781TIP3    H144834   6.748   6.461  13.470  0.3636 -0.4109  0.7485
 7781TIP3    H244835   6.671   6.583  13.516  0.0826 -0.2497 -0.1352
 7782TIP3   OH244836   1.386   6.761   1.667  0.2376 -0.0089 -0.0901
 7782TIP3    H144837   1.382   6.707   1.588  1.9793 -0.7580  0.3103
 7782TIP3    H244838   1.392   6.851   1.634  1.4107 -0.3459 -0.8436
 7783TIP3   OH244839   0.603   1.751  14.767 -0.3821 -0.2559 -0.3899
 7783TIP3    H144840   0.659   1.783  14.696 -0.1258 -0.6253 -0.3562
 7783TIP3    H244841   0.515   1.746  14.728 -0.1957 -0.7128 -0.7654
 7784TIP3   OH244842   5.156   5.904  12.155  0.0146 -0.1542 -0.5164
 7784TIP3    H144843   5.217   5.977  12.144  0.7442 -0.5772  0.5191
 7784TIP3    H244844   5.203   5.842  12.212 -0.6029 -1.4073 -1.3140
 7785TIP3   OH244845   1.494   5.855   1.253  0.5516 -0.1573  0.4064
 7785TIP3    H144846   1.570   5.802   1.230  0.9015  0.1117  0.9176
 7785TIP3    H244847   1.428   5.832   1.189  1.0015 -0.5451  0.0792
 7786TIP3   OH244848   1.568   3.923  14.661  0.3677  0.1661 -0.1940
 7786TIP3    H144849   1.655   3.952  14.634  0.2199 -0.0672 -0.9460
 7786TIP3    H244850   1.523   4.003  14.687  1.2116  0.1539  1.4523
 7787TIP3   OH244851   2.727   6.080  12.530 -1.1646  0.1881 -0.1770
 7787TIP3    H144852   2.746   6.058  12.621  0.5240 -1.7832 -0.9123
 7787TIP3    H244853   2.799   6.137  12.503 -0.4091 -1.0477 -0.8572
 7788TIP3   OH244854   4.125   4.434  14.058  0.2487 -0.1934  0.2802
 7788TIP3    H144855   4.161   4.505  14.111 -3.0572  1.3533  0.7595
 7788TIP3    H244856   4.062   4.391  14.115 -0.6888 -0.9147 -1.2288
 7789TIP3   OH244857   6.339   2.771   3.926  0.1696  0.0148 -0.5392
 7789TIP3    H144858   6.309   2.680   3.923  0.4774 -0.1508  0.9446
 7789TIP3    H244859   6.335   2.800   3.835 -1.1637 -1.0802 -0.8651
 7790TIP3   OH244860   1.573   0.108   4.466 -0.1401 -0.4608 -0.2429
 7790TIP3    H144861   1.593   0.015   4.456 -0.6306 -0.5063 -0.8733
 7790TIP3    H244862   1.481   0.115   4.441 -0.6610 -0.1040  1.5732
 7791TIP3   OH244863   0.824   5.885  11.531 -0.3963 -0.0479  0.1000
 7791TIP3    H144864   0.804   5.920  11.618  1.5948 -0.4620  0.7822
 7791TIP3    H244865   0.913   5.915  11.513 -0.6113 -0.3456 -1.6125
 7792TIP3   OH244866   5.214   4.864   0.164  0.3100 -0.3298  0.4559
 7792TIP3    H144867   5.263   4.807   0.223  1.6123 -0.8956 -1.1018
 7792TIP3    H244868   5.266   4.944   0.158  0.2308 -0.3029  0.0459
 7793TIP3   OH244869   5.123   1.296   4.705 -0.3664  0.2710  0.1154
 7793TIP3    H144870   5.125   1.210   4.747 -1.5883  0.3946  0.4493
 7793TIP3    H244871   5.215   1.322   4.700  0.0009 -0.9272  0.2527
 7794TIP3   OH244872   5.584   3.093   4.459  0.0930  0.0570 -0.8119
 7794TIP3    H144873   5.629   3.036   4.521 -0.5879 -0.3672 -0.7007
 7794TIP3    H244874   5.618   3.181   4.479 -1.5876  0.2666  1.5909
 7795TIP3   OH244875   6.361   3.717   5.488  0.0873 -0.2149 -0.1972
 7795TIP3    H144876   6.269   3.717   5.516  0.5356 -1.7531  1.4533
 7795TIP3    H244877   6.381   3.625   5.471  1.1261  0.1874 -1.2946
 7796TIP3   OH244878   3.334   3.472  14.220 -0.1217 -0.4844  0.3763
 7796TIP3    H144879   3.423   3.470  14.184 -0.4335 -0.2100 -0.4346
 7796TIP3    H244880   3.344   3.442  14.311  0.7096 -1.0304  0.1157
 7797TIP3   OH244881   2.667   0.494  15.276  0.3486  0.3572 -0.3999
 7797TIP3    H144882   2.587   0.470  15.325  0.3221 -1.0652 -1.1012
 7797TIP3    H244883   2.715   0.550  15.337  0.0494 -0.9006  1.0784
 7798TIP3   OH244884   5.668   2.012  12.156 -0.5351  0.3337  0.0078
 7798TIP3    H144885   5.749   2.056  12.183  1.2113 -2.1283 -0.8949
 7798TIP3    H244886   5.623   2.076  12.101 -0.3526  2.5562  2.2506
 7799TIP3   OH244887   2.133   4.044  13.766  0.1650  0.0766  0.2766
 7799TIP3    H144888   2.066   3.975  13.759  1.2486 -1.3375  2.5935
 7799TIP3    H244889   2.199   4.019  13.702 -0.0448 -0.3350  0.2125
 7800TIP3   OH244890   5.996   3.766   3.400  0.3226 -0.0281 -0.3785
 7800TIP3    H144891   5.959   3.680   3.421  2.3993 -0.6980  0.8489
 7800TIP3    H244892   5.991   3.815   3.482  0.7498  0.4109 -0.6119
 7801TIP3   OH244893   0.088   5.399  13.587  0.1094  0.3000  0.3324
 7801TIP3    H144894   0.042   5.316  13.582  0.3673  0.0672  1.4640
 7801TIP3    H244895   0.091   5.431  13.497  0.7248 -1.3034 -0.2466
 7802TIP3   OH244896   6.595   5.621  11.785  0.1687 -0.1084 -0.2204
 7802TIP3    H144897   6.540   5.641  11.860  1.2575 -0.8857  0.8290
 7802TIP3    H244898   6.535   5.613  11.712 -0.8359  1.5399  0.3810
 7803TIP3   OH244899   1.492   2.495   3.497 -0.0654  0.0680 -0.1051
 7803TIP3    H144900   1.448   2.480   3.581 -0.5501 -0.1363 -0.3942
 7803TIP3    H244901   1.484   2.412   3.450  2.3006 -0.6349  0.5698
 7804TIP3   OH244902   2.087   1.530   5.207 -0.0408  0.1570  0.6272
 7804TIP3    H144903   2.126   1.598   5.263  0.3360  0.0180  0.5345
 7804TIP3    H244904   2.088   1.568   5.119  0.9712 -0.2981  0.4279
 7805TIP3   OH244905   2.619   0.108  15.089 -0.5703  0.2459  0.1033
 7805TIP3    H144906   2.664   0.026  15.108 -0.1715  0.6916  1.1508
 7805TIP3    H244907   2.689   0.172  15.079 -0.8967  0.5566 -0.2403
 7806TIP3   OH244908   4.941   3.288   1.506 -0.0583  0.0095 -0.7515
 7806TIP3    H144909   4.978   3.283   1.595  2.3280 -0.2327 -1.6826
 7806TIP3    H244910   4.992   3.356   1.463 -0.5774 -0.4951 -2.2058
 7807TIP3   OH244911   1.368   6.490   4.909  0.2553  0.8637 -0.2396
 7807TIP3    H144912   1.292   6.490   4.851  0.5197  0.0947 -0.5894
 7807TIP3    H244913   1.361   6.573   4.957 -0.3450  1.1841 -0.8641
 7808TIP3   OH244914   4.403   5.629  14.712 -0.1740  0.4588 -0.5170
 7808TIP3    H144915   4.461   5.704  14.725  0.3155  0.1046 -0.6308
 7808TIP3    H244916   4.417   5.603  14.621  1.5300 -1.2888  0.1845
 7809TIP3   OH244917   2.807   6.047  13.464 -0.6201 -0.5091  0.4472
 7809TIP3    H144918   2.872   6.117  13.457 -0.7811 -0.5060 -2.1329
 7809TIP3    H244919   2.845   5.985  13.526  1.9247 -0.5209 -0.9833
 7810TIP3   OH244920   5.152   2.989  16.316 -0.5739  0.3146 -0.8964
 7810TIP3    H144921   5.175   2.916  16.258  0.2311 -1.6821  1.7283
 7810TIP3    H244922   5.057   2.984  16.325 -0.4815 -0.7472 -0.3837
 7811TIP3   OH244923   6.433   4.250   2.332  0.0755 -0.3439 -0.2680
 7811TIP3    H144924   6.502   4.309   2.363 -0.3508  0.6356 -1.1266
 7811TIP3    H244925   6.364   4.308   2.300 -0.4234 -1.3060 -1.0030
 7812TIP3   OH244926   1.844   6.146   2.967 -0.2361  0.0900 -0.0163
 7812TIP3    H144927   1.755   6.134   2.934  0.2800  0.0890 -1.4638
 7812TIP3    H244928   1.893   6.181   2.893  1.2229 -0.9081  0.4290
 7813TIP3   OH244929   0.629   1.895   1.910 -0.2059 -0.1142 -0.3325
 7813TIP3    H144930   0.638   1.911   1.816  1.6289 -1.4703 -0.4361
 7813TIP3    H244931   0.549   1.942   1.934 -0.7526  0.2372 -2.5624
 7814TIP3   OH244932   0.371   6.274  12.400 -0.4429 -0.4772 -0.0644
 7814TIP3    H144933   0.448   6.261  12.345 -0.9429  0.6484 -1.0821
 7814TIP3    H244934   0.336   6.186  12.414  0.9209 -0.9771  0.2671
 7815TIP3   OH244935   6.745   1.407   2.644  0.4006  0.2064  0.1271
 7815TIP3    H144936   6.665   1.417   2.593  1.3568 -1.3312 -1.8443
 7815TIP3    H244937   6.723   1.342   2.710 -0.4497  1.1069  0.7507
 7816TIP3   OH244938   0.474   1.142  16.923  0.1480 -0.7417 -0.2650
 7816TIP3    H144939   0.448   1.123  17.013  0.2575 -1.1682 -0.3226
 7816TIP3    H244940   0.537   1.214  16.931 -0.3586 -0.3180 -0.0585
 7817TIP3   OH244941   1.478   2.436   3.788 -0.0168 -0.7997  0.2235
 7817TIP3    H144942   1.573   2.429   3.801  0.1266 -1.0946 -0.9185
 7817TIP3    H244943   1.450   2.502   3.852  0.6148 -2.2467  2.1000
 7818TIP3   OH244944   5.814   4.648   3.977  0.0824  0.4446  0.6857
 7818TIP3    H144945   5.748   4.714   3.956  0.9835  1.3291  0.5101
 7818TIP3    H244946   5.894   4.698   3.989  0.6721 -0.5771  1.1487
 7819TIP3   OH244947   4.764   2.831   3.372 -1.1262 -0.5016  0.2153
 7819TIP3    H144948   4.792   2.770   3.303 -0.9285  2.4169 -2.5210
 7819TIP3    H244949   4.834   2.828   3.437  1.0842 -0.0438 -1.9992
 7820TIP3   OH244950   0.462   4.672   4.020  0.5613 -0.0039 -0.4156
 7820TIP3    H144951   0.517   4.615   3.966 -0.5714 -1.6126  0.0331
 7820TIP3    H244952   0.497   4.664   4.108  2.9411  3.2842 -0.8868
 7821TIP3   OH244953   4.980   3.418  13.579  0.8173  0.8046  0.2124
 7821TIP3    H144954   4.977   3.416  13.675 -2.0467 -0.8930  0.1819
 7821TIP3    H244955   5.015   3.333  13.555  1.0274  1.0276 -0.2812
 7822TIP3   OH244956   3.823   2.506  13.676  0.1984  0.2343 -0.2419
 7822TIP3    H144957   3.901   2.545  13.635  0.5470 -0.2910 -0.0898
 7822TIP3    H244958   3.765   2.580  13.692  1.3476  0.8729  1.1616
 7823TIP3   OH244959   3.590   0.998  10.824  0.3877  0.4003  0.6360
 7823TIP3    H144960   3.589   1.010  10.919  0.1419  0.5350  0.6175
 7823TIP3    H244961   3.681   1.014  10.799  0.4234  0.5071  0.8321
 7824TIP3   OH244962   1.398   4.986  17.060 -0.5700 -0.4836  0.5594
 7824TIP3    H144963   1.480   4.986  17.012 -0.6813  0.7025  0.3423
 7824TIP3    H244964   1.402   4.907  17.114  0.8282 -0.3138  0.7450
 7825TIP3   OH244965   5.148   2.870   5.404 -0.7185  0.4978  0.0388
 7825TIP3    H144966   5.075   2.843   5.460 -1.1397  2.0755  0.3251
 7825TIP3    H244967   5.144   2.812   5.329 -0.6802 -1.1091  1.2198
 7826TIP3   OH244968   5.889   4.478   1.976 -0.0351 -0.2417 -0.1210
 7826TIP3    H144969   5.923   4.461   1.888  1.9361  2.1645  0.0725
 7826TIP3    H244970   5.921   4.404   2.029  1.4916 -0.1066 -0.8014
 7827TIP3   OH244971   0.308   6.396  13.442  0.2817 -0.1123  0.0135
 7827TIP3    H144972   0.360   6.318  13.461  0.4332  0.1100  0.5444
 7827TIP3    H244973   0.217   6.367  13.449  0.3098  0.1069  1.8718
 7828TIP3   OH244974   1.400   2.097   3.704  0.2710  0.9847 -0.6377
 7828TIP3    H144975   1.365   2.026   3.650  0.6024  0.5824 -0.3224
 7828TIP3    H244976   1.370   2.078   3.792  0.3317  1.2601 -0.5566
 7829TIP3   OH244977   0.330   3.391  15.254 -0.7681  1.1579 -0.3302
 7829TIP3    H144978   0.420   3.370  15.279 -0.6658 -1.1407 -2.2506
 7829TIP3    H244979   0.299   3.452  15.322  1.8699  1.2115  0.9307
 7830TIP3   OH244980   0.538   1.155  11.510 -0.4555 -0.6259 -0.1356
 7830TIP3    H144981   0.604   1.118  11.569  0.1873 -0.8280 -0.9629
 7830TIP3    H244982   0.490   1.079  11.477 -1.7753 -0.4225  1.1976
 7831TIP3   OH244983   5.389   0.665  14.904 -0.3781  0.3273  0.1022
 7831TIP3    H144984   5.374   0.719  14.826 -2.2389  1.1426  0.9536
 7831TIP3    H244985   5.413   0.579  14.870  0.3212  1.0638 -1.3357
 7832TIP3   OH244986   3.386   6.315   4.364  0.0965 -0.2824 -0.6633
 7832TIP3    H144987   3.453   6.347   4.424 -0.1062  1.7412 -1.4264
 7832TIP3    H244988   3.382   6.221   4.379  2.6051 -0.3579 -0.1214
 7833TIP3   OH244989   5.078   2.793  15.859 -0.5934  0.2392  0.1727
 7833TIP3    H144990   5.135   2.822  15.788 -1.1353 -0.1938 -0.4562
 7833TIP3    H244991   4.990   2.817  15.830 -0.6799  1.6150  1.4875
 7834TIP3   OH244992   4.596   4.111   2.625  0.2008  0.2183 -0.5596
 7834TIP3    H144993   4.540   4.066   2.563 -0.5686  0.6750 -0.2163
 7834TIP3    H244994   4.663   4.153   2.572 -0.6966  0.9559 -1.1211
 7835TIP3   OH244995   1.889   2.789  16.954 -0.4068 -0.4122 -0.6758
 7835TIP3    H144996   1.847   2.703  16.957 -0.1777 -0.5707 -1.5608
 7835TIP3    H244997   1.950   2.783  16.880 -2.6412  1.5292 -2.8347
 7836TIP3   OH244998   2.154   1.016   3.112  0.4338 -0.0812 -0.2531
 7836TIP3    H144999   2.141   1.108   3.136 -1.6432 -0.5673  0.7717
 7836TIP3    H245000   2.203   0.980   3.186 -1.1225 -0.3448  0.7063
 7837TIP3   OH245001   0.549   5.813  14.615 -0.0430  0.3514  0.1533
 7837TIP3    H145002   0.522   5.883  14.555  1.8304 -1.3980 -2.9620
 7837TIP3    H245003   0.631   5.844  14.652 -0.4894  0.8285  0.7723
 7838TIP3   OH245004   4.356   6.774   3.038 -0.2719 -0.6478  0.3476
 7838TIP3    H145005   4.263   6.767   3.060 -0.6289 -1.0399 -1.1513
 7838TIP3    H245006   4.374   6.695   2.985  1.4298 -1.6362  2.2725
 7839TIP3   OH245007   2.796   2.794   2.720  0.1699 -0.2435 -0.1226
 7839TIP3    H145008   2.742   2.846   2.660 -1.3671 -0.1170  1.3010
 7839TIP3    H245009   2.833   2.725   2.665 -0.2470  0.5395 -1.4317
 7840TIP3   OH245010   5.994   1.453   5.232 -0.5894 -0.3210  0.2656
 7840TIP3    H145011   5.922   1.405   5.272 -1.3541 -0.6645 -1.4033
 7840TIP3    H245012   5.954   1.533   5.199  0.0014 -0.0394  0.2195
 7841TIP3   OH245013   5.240   4.468  14.458  0.2106 -0.4920 -0.5233
 7841TIP3    H145014   5.153   4.430  14.444  0.1648  0.0253 -1.7128
 7841TIP3    H245015   5.296   4.392  14.477 -0.0151 -1.1449 -2.2413
 7842TIP3   OH245016   0.385   2.200   3.741  0.4373 -0.2492 -0.4822
 7842TIP3    H145017   0.350   2.134   3.681  1.4982 -0.0724 -1.3289
 7842TIP3    H245018   0.460   2.237   3.694  0.5161  0.7928  0.4337
 7843TIP3   OH245019   4.178   6.640  17.225 -0.0291  0.1021  0.3808
 7843TIP3    H145020   4.245   6.624  17.158  0.3687 -1.8943  1.1835
 7843TIP3    H245021   4.114   6.695  17.181  1.4120  0.8858 -0.8711
 7844TIP3   OH245022   2.716   2.449  13.532  0.0658 -0.1454 -0.5417
 7844TIP3    H145023   2.638   2.393  13.531 -0.5928  0.7399 -0.4862
 7844TIP3    H245024   2.730   2.467  13.625 -0.4932  0.7933 -0.6260
 7845TIP3   OH245025   2.921   1.909   5.961  0.8634 -0.5172  0.5153
 7845TIP3    H145026   2.930   1.994   5.916  0.3628 -0.9110 -0.3596
 7845TIP3    H245027   2.874   1.929   6.042  1.0475  0.0908  0.4798
 7846TIP3   OH245028   0.527   3.301   0.457  0.3097  0.4524  0.1403
 7846TIP3    H145029   0.469   3.375   0.476 -0.7846 -0.1290 -0.7573
 7846TIP3    H245030   0.496   3.231   0.514 -1.0187 -0.3666 -1.4763
 7847TIP3   OH245031   1.855   1.654   2.079 -0.2626 -0.7093 -0.0817
 7847TIP3    H145032   1.911   1.693   2.012 -1.0269 -0.5420 -0.6323
 7847TIP3    H245033   1.810   1.729   2.119 -0.1529 -0.8489  0.3124
 7848TIP3   OH245034   6.184   1.831  12.979 -0.1367  0.1715  0.1637
 7848TIP3    H145035   6.103   1.873  12.951 -0.4045 -0.2541  0.2941
 7848TIP3    H245036   6.198   1.863  13.068 -0.0642  0.3807  0.0792
 7849TIP3   OH245037   3.669   0.006  10.975  0.0684 -0.6270  0.3540
 7849TIP3    H145038   3.709  -0.058  10.915 -2.3449 -1.5392 -0.4111
 7849TIP3    H245039   3.669   0.088  10.926 -0.5674 -1.0344 -0.3483
 7850TIP3   OH245040   3.390   1.623  15.914 -0.5526  0.2931 -0.1719
 7850TIP3    H145041   3.342   1.633  15.833 -0.8239  0.6572  0.0332
 7850TIP3    H245042   3.475   1.665  15.897 -0.7223  0.6381 -0.1653
 7851TIP3   OH245043   5.134   1.993  11.024  0.1059 -0.6297 -0.4818
 7851TIP3    H145044   5.228   1.982  11.041 -0.0593 -0.4158  0.6267
 7851TIP3    H245045   5.119   2.087  11.036 -0.6587 -0.9583  1.6585
 7852TIP3   OH245046   1.339   5.588   1.228  0.0408 -0.7453  0.0828
 7852TIP3    H145047   1.259   5.571   1.278 -0.5425 -0.4948 -0.7556
 7852TIP3    H245048   1.311   5.640   1.154  0.8998 -1.1020 -0.5112
 7853TIP3   OH245049   2.404   5.864   3.856 -0.0819 -0.2805 -0.2454
 7853TIP3    H145050   2.463   5.940   3.859  0.0374 -0.3142 -1.2634
 7853TIP3    H245051   2.426   5.813   3.935  2.3757 -1.0876 -1.3325
 7854TIP3   OH245052   4.220   6.261   1.743  0.0435 -0.2828  0.2700
 7854TIP3    H145053   4.129   6.283   1.723  0.7403 -0.2162 -3.3817
 7854TIP3    H245054   4.262   6.346   1.758  0.1309 -0.0030 -1.3677
 7855TIP3   OH245055   0.050   1.861  15.415 -0.3336  0.9058  0.0410
 7855TIP3    H145056   0.104   1.801  15.466 -2.3182 -0.4246  0.6885
 7855TIP3    H245057   0.041   1.938  15.470  0.0001  0.7036  0.3839
 7856TIP3   OH245058   1.119   3.045  12.491 -0.1340 -0.1715  0.3261
 7856TIP3    H145059   1.197   3.101  12.487 -0.4208  0.1953 -0.3953
 7856TIP3    H245060   1.154   2.956  12.493  0.2963 -0.0365 -0.7037
 7857TIP3   OH245061   4.862   5.548  16.432  0.4265 -0.0189 -0.2196
 7857TIP3    H145062   4.940   5.550  16.377  0.3770  0.6309 -0.2789
 7857TIP3    H245063   4.880   5.482  16.498  0.6049 -0.6034 -0.8460
 7858TIP3   OH245064   1.798   6.425  11.453  0.5394 -0.6333  0.3092
 7858TIP3    H145065   1.764   6.337  11.469  0.5295 -0.5966  0.4889
 7858TIP3    H245066   1.792   6.469  11.537  1.3032 -0.7204  0.4183
 7859TIP3   OH245067   1.538   1.388  15.432  0.2131  0.6331  0.1685
 7859TIP3    H145068   1.471   1.443  15.473 -0.0720 -0.1017  0.7134
 7859TIP3    H245069   1.522   1.300  15.468 -0.6276 -0.2486 -2.1987
 7860TIP3   OH245070   6.224   3.706   0.372  0.6671  0.0126  0.6921
 7860TIP3    H145071   6.227   3.633   0.434  1.2462  1.8515  2.9722
 7860TIP3    H245072   6.315   3.721   0.347  0.7039  0.6334  1.1510
 7861TIP3   OH245073   5.831   3.328   2.871 -0.5312 -0.1271 -0.3730
 7861TIP3    H145074   5.799   3.329   2.781 -0.6405 -0.7179 -0.3447
 7861TIP3    H245075   5.926   3.332   2.863 -0.5782  1.2471 -0.4681
 7862TIP3   OH245076   2.529   3.366  13.638 -0.2053  0.3274 -0.6502
 7862TIP3    H145077   2.510   3.285  13.686 -0.2911  0.8790  0.2707
 7862TIP3    H245078   2.595   3.340  13.574 -0.9083 -0.6765 -1.0027
 7863TIP3   OH245079   2.008   5.822   2.804  0.0685  0.4366 -0.5467
 7863TIP3    H145080   1.982   5.829   2.896 -1.5378  0.9970 -1.0018
 7863TIP3    H245081   2.044   5.908   2.783  1.9896 -0.1954 -0.0432
 7864TIP3   OH245082   4.169   4.975  16.070  0.0587  0.3289  0.4791
 7864TIP3    H145083   4.231   4.910  16.103 -0.8423 -0.9954 -0.3329
 7864TIP3    H245084   4.143   5.026  16.147 -0.5325 -1.4207  1.4957
 7865TIP3   OH245085   3.318   4.880   2.966 -0.1846  0.0215 -0.5709
 7865TIP3    H145086   3.348   4.851   3.053 -3.4422 -1.4422  0.2061
 7865TIP3    H245087   3.378   4.837   2.905 -0.4725 -2.6566  0.8468
 7866TIP3   OH245088   3.438   5.825   1.011 -0.2543 -0.5268  0.0346
 7866TIP3    H145089   3.453   5.732   0.997 -0.2070 -0.3772 -1.0289
 7866TIP3    H245090   3.526   5.863   1.019 -0.2516 -0.5078 -0.0726
 7867TIP3   OH245091   0.476   0.623  14.825  0.5475 -0.5077  0.1427
 7867TIP3    H145092   0.437   0.692  14.878  0.4038 -1.1768  0.9315
 7867TIP3    H245093   0.570   0.638  14.831  0.4785  0.5875 -1.0459
 7868TIP3   OH245094   3.047   5.758  14.730  0.3272  0.5287  0.2742
 7868TIP3    H145095   3.031   5.700  14.805  0.0523  1.0005  0.5819
 7868TIP3    H245096   3.059   5.698  14.657 -2.0153  0.1024  0.1623
 7869TIP3   OH245097   0.028   5.709  12.422  0.2417 -0.2820  0.3366
 7869TIP3    H145098  -0.022   5.662  12.356  1.0973 -1.5563  0.5561
 7869TIP3    H245099   0.059   5.641  12.482  1.3954  0.5820  0.7628
 7870TIP3   OH245100   4.322   1.098  14.211 -0.0288 -0.3864  0.1756
 7870TIP3    H145101   4.263   1.032  14.174 -0.6365 -0.6336  1.5227
 7870TIP3    H245102   4.397   1.048  14.244  1.4143 -0.0052 -2.2582
 7871TIP3   OH245103   6.204   5.354   3.507 -0.2451  0.1815 -0.0629
 7871TIP3    H145104   6.118   5.382   3.477 -0.8373 -1.0730  0.4061
 7871TIP3    H245105   6.221   5.408   3.585 -2.0654 -1.7065  1.7778
 7872TIP3   OH245106   1.305   1.075   5.950 -1.2048 -0.2035 -0.8721
 7872TIP3    H145107   1.363   1.111   6.018  0.9870 -0.2746 -2.6176
 7872TIP3    H245108   1.300   0.982   5.970  0.0505 -0.3599 -1.1933
 7873TIP3   OH245109   0.764   0.801  15.059  0.0005 -0.0332  0.1231
 7873TIP3    H145110   0.776   0.735  14.991 -1.6188  1.5713 -1.8581
 7873TIP3    H245111   0.734   0.879  15.012  1.3835  2.0266  2.3915
 7874TIP3   OH245112   1.918   4.593   4.428  0.1149  0.2535  0.2128
 7874TIP3    H145113   1.894   4.606   4.520  0.4311  0.7341  0.2285
 7874TIP3    H245114   2.014   4.596   4.428  0.0917  2.3722 -0.4388
 7875TIP3   OH245115   2.869   3.766   2.152 -0.1577 -0.5193  0.1986
 7875TIP3    H145116   2.926   3.714   2.094 -0.5098 -0.9979  0.2723
 7875TIP3    H245117   2.826   3.829   2.094  1.0943  0.4396  0.2696
 7876TIP3   OH245118   3.274   4.144  11.309 -1.0171 -0.1420  0.1483
 7876TIP3    H145119   3.229   4.226  11.289 -0.9377 -0.2167 -0.3373
 7876TIP3    H245120   3.245   4.084  11.241  1.6861  0.4702 -1.7025
 7877TIP3   OH245121   4.096   0.824   5.909 -0.0797  0.4259 -0.3103
 7877TIP3    H145122   4.041   0.825   5.830 -1.0489  0.4915  0.3402
 7877TIP3    H245123   4.063   0.750   5.960  1.1601 -0.1866 -0.3772
 7878TIP3   OH245124   5.466   6.325   1.271 -0.0136  0.7939  0.0111
 7878TIP3    H145125   5.503   6.400   1.319 -0.5854  0.7566  0.5266
 7878TIP3    H245126   5.458   6.357   1.181  0.9201  0.9214 -0.0402
 7879TIP3   OH245127   1.381   4.418  15.135 -0.5751  0.0507 -0.5743
 7879TIP3    H145128   1.354   4.373  15.055  0.2733 -0.0680 -0.8065
 7879TIP3    H245129   1.444   4.358  15.176  0.6060  1.0341 -0.9144
 7880TIP3   OH245130   3.863   2.577   1.954  0.0771  0.0202 -0.4377
 7880TIP3    H145131   3.873   2.618   2.040  0.2961 -0.4020 -0.2539
 7880TIP3    H245132   3.947   2.531   1.940  0.6158  1.2877 -1.5331
 7881TIP3   OH245133   3.679   2.357   4.527 -0.3329 -0.0324 -0.0046
 7881TIP3    H145134   3.676   2.427   4.462 -0.5442  0.3629  0.4213
 7881TIP3    H245135   3.592   2.357   4.567 -0.8186 -1.5217 -0.9998
 7882TIP3   OH245136   2.483   6.702  16.992 -0.3424  0.1167  0.0121
 7882TIP3    H145137   2.395   6.733  17.015 -0.2336  1.1096 -0.8294
 7882TIP3    H245138   2.477   6.607  16.998 -1.2620  0.2075  0.7120
 7883TIP3   OH245139   5.411   5.967  13.467  0.2013  0.5389  0.3208
 7883TIP3    H145140   5.495   5.949  13.510  0.1820  0.6117  0.3876
 7883TIP3    H245141   5.350   5.981  13.539 -0.4059 -1.8393  0.3612
 7884TIP3   OH245142   2.863   2.919  13.983  0.0647 -0.0612 -0.4835
 7884TIP3    H145143   2.891   2.961  14.065  0.0612  0.9707 -1.0015
 7884TIP3    H245144   2.941   2.921  13.928 -0.6614  1.8136 -1.5231
 7885TIP3   OH245145   1.667   4.220  14.266  0.0931  0.3658 -0.7170
 7885TIP3    H145146   1.739   4.159  14.286 -0.8320 -0.3290  0.6443
 7885TIP3    H245147   1.710   4.296  14.227  1.5217 -0.2263 -0.3631
 7886TIP3   OH245148   2.729   5.088  11.814 -0.9596  0.8513 -0.2035
 7886TIP3    H145149   2.791   5.092  11.741  0.6999  0.5628  1.1314
 7886TIP3    H245150   2.742   5.170  11.862 -2.6012  1.3983 -0.6236
 7887TIP3   OH245151   4.274   5.143  15.684 -0.0060 -0.0242 -0.1978
 7887TIP3    H145152   4.191   5.096  15.668 -0.0019 -0.2976  0.5474
 7887TIP3    H245153   4.297   5.120  15.774  0.6515  0.4156 -0.2518
 7888TIP3   OH245154   2.572   3.800  17.238 -0.3576  0.1137  0.4786
 7888TIP3    H145155   2.539   3.887  17.259  2.0583  1.0460  0.8238
 7888TIP3    H245156   2.610   3.810  17.150 -1.4061 -1.0440 -0.1412
 7889TIP3   OH245157   3.813   1.533  12.509  0.5768  0.0040  0.3278
 7889TIP3    H145158   3.901   1.531  12.473 -0.1044  1.0101 -1.5587
 7889TIP3    H245159   3.822   1.573  12.596  2.0396 -0.5866  0.4711
 7890TIP3   OH245160   6.508   6.217  16.156  0.1226  0.3600 -0.4391
 7890TIP3    H145161   6.427   6.250  16.119  0.3092  0.3524 -0.8596
 7890TIP3    H245162   6.574   6.281  16.130  0.4159 -0.1287 -0.9100
 7891TIP3   OH245163   3.013   2.323   1.591  0.0743  0.3266 -0.2900
 7891TIP3    H145164   2.999   2.233   1.560 -2.2402  0.8410 -0.9459
 7891TIP3    H245165   3.078   2.314   1.661 -0.8679 -2.0271  0.3890
 7892TIP3   OH245166   3.873   1.797  14.853 -0.3516 -0.4364  0.3440
 7892TIP3    H145167   3.848   1.789  14.761  0.5418 -1.5128  0.1780
 7892TIP3    H245168   3.902   1.709  14.879  1.3375  0.2879  1.0652
 7893TIP3   OH245169   1.090   4.647  11.896  0.0748 -0.5856  0.1595
 7893TIP3    H145170   1.176   4.624  11.931  0.1150  1.3817  1.4887
 7893TIP3    H245171   1.076   4.585  11.824  1.9958 -1.8114  0.7685
 7894TIP3   OH245172   6.823   4.606   5.108  0.1542 -0.5447 -0.0427
 7894TIP3    H145173   6.804   4.648   5.024  0.9808 -0.2847 -0.1065
 7894TIP3    H245174   6.776   4.659   5.172 -0.7211 -0.9159 -0.3582
 7895TIP3   OH245175   2.766   5.273  17.187 -0.2162  0.4593  0.3251
 7895TIP3    H145176   2.859   5.284  17.204 -0.3939  0.8519  1.0583
 7895TIP3    H245177   2.722   5.312  17.263 -1.0078  1.7235 -0.7233
 7896TIP3   OH245178   3.567   0.767   1.497 -0.7023 -0.3704  0.1765
 7896TIP3    H145179   3.599   0.830   1.432 -2.7423  0.0661 -0.4852
 7896TIP3    H245180   3.640   0.757   1.558  0.0116  1.9976 -0.1710
 7897TIP3   OH245181   0.278   5.048   5.698 -0.0369 -0.0892  0.2191
 7897TIP3    H145182   0.252   5.039   5.607  0.6825  0.7735 -0.0856
 7897TIP3    H245183   0.196   5.063   5.745 -0.4366 -0.7764 -0.2412
 7898TIP3   OH245184   6.062   1.784  14.882  0.2069 -0.5516 -0.4956
 7898TIP3    H145185   6.040   1.877  14.877  0.1410 -0.6301 -2.2126
 7898TIP3    H245186   5.994   1.746  14.937  0.9016  0.5713  1.2502
 7899TIP3   OH245187   4.609   2.151  15.554 -0.4838  0.5732 -0.1174
 7899TIP3    H145188   4.623   2.122  15.463 -2.3094  0.1237 -0.2941
 7899TIP3    H245189   4.639   2.242  15.555  3.7732 -0.6189  0.0167
 7900TIP3   OH245190   1.169   2.787  15.607  0.4278  0.1303  0.2317
 7900TIP3    H145191   1.102   2.721  15.591  0.5013  0.0719  0.1668
 7900TIP3    H245192   1.225   2.749  15.675 -0.6848  0.9337  1.6731
 7901TIP3   OH245193   6.593   3.918  14.153  0.7737 -0.1981  0.3180
 7901TIP3    H145194   6.524   3.960  14.101  0.2976 -1.8000 -0.4416
 7901TIP3    H245195   6.563   3.926  14.243  1.5495  2.5346  0.4196
 7902TIP3   OH245196   1.142   4.764  16.700  0.0509  0.3560  0.1264
 7902TIP3    H145197   1.063   4.813  16.676 -0.4404 -0.4344  0.0734
 7902TIP3    H245198   1.114   4.672  16.699  0.9754  0.0628  0.1025
 7903TIP3   OH245199   5.649   1.926  15.512  0.2498 -0.6050  0.0492
 7903TIP3    H145200   5.616   2.012  15.485  0.6088 -0.6689 -0.6064
 7903TIP3    H245201   5.583   1.893  15.572  0.6588  0.6308  1.2361
 7904TIP3   OH245202   0.772   0.420   0.567  0.3908  0.3774 -0.2827
 7904TIP3    H145203   0.794   0.482   0.497  0.2014  0.1983 -0.5023
 7904TIP3    H245204   0.702   0.463   0.616 -0.2480  0.0332 -0.8707
 7905TIP3   OH245205   1.109   5.968   3.532  0.6502  0.7818  0.0371
 7905TIP3    H145206   1.037   6.025   3.556  0.3195  1.2750 -1.9488
 7905TIP3    H245207   1.167   6.023   3.480  1.1297 -0.2698 -0.5708
 7906TIP3   OH245208   2.780   1.255   0.629 -0.3531 -0.4129 -0.4172
 7906TIP3    H145209   2.689   1.246   0.601 -0.5252  0.4995 -0.1918
 7906TIP3    H245210   2.784   1.210   0.714 -0.7134 -0.0607 -0.2091
 7907TIP3   OH245211   4.532   2.624   3.593  0.1894  0.1543  0.5920
 7907TIP3    H145212   4.576   2.709   3.589  0.4762  0.0029  0.5390
 7907TIP3    H245213   4.569   2.575   3.520  1.3086 -0.6450  1.6744
 7908TIP3   OH245214   6.547   5.886   3.323  0.4104  0.5136  0.2074
 7908TIP3    H145215   6.513   5.940   3.252 -2.2206  1.3054  1.8911
 7908TIP3    H245216   6.557   5.947   3.397  1.3847 -0.5714  1.0105
 7909TIP3   OH245217   2.620   0.694  14.405  0.8428  0.2058  0.1907
 7909TIP3    H145218   2.590   0.722  14.318 -1.0184 -1.5297  0.1918
 7909TIP3    H245219   2.542   0.700  14.460  1.5751 -0.3418  1.3339
 7910TIP3   OH245220   1.398   2.440  16.483 -0.2926  0.4691 -0.3270
 7910TIP3    H145221   1.323   2.391  16.516  0.4211 -1.3436 -1.2971
 7910TIP3    H245222   1.443   2.471  16.562 -0.3942 -1.0244  0.3554
 7911TIP3   OH245223   3.552   5.060   2.609 -0.2463 -0.4638  0.2672
 7911TIP3    H145224   3.504   5.134   2.646  0.8011  0.9172 -1.0096
 7911TIP3    H245225   3.628   5.099   2.566 -0.0067 -2.2140 -1.0467
 7912TIP3   OH245226   0.493   2.207   4.930 -0.2586 -0.5307  0.1506
 7912TIP3    H145227   0.458   2.295   4.945 -2.4684 -1.5373  1.3825
 7912TIP3    H245228   0.537   2.186   5.013  1.6955 -0.0334 -0.7045
 7913TIP3   OH245229   1.586   3.441  14.042 -0.4039 -0.3937  0.0986
 7913TIP3    H145230   1.615   3.507  13.979  3.0037 -0.9293  0.9091
 7913TIP3    H245231   1.604   3.357  14.000  0.5912 -0.7559  1.1914
 7914TIP3   OH245232   6.573   2.126  13.433  0.6236 -0.1751  0.4264
 7914TIP3    H145233   6.584   2.167  13.347 -3.2432  1.5998  0.5612
 7914TIP3    H245234   6.534   2.040  13.414 -0.9331  0.5157  0.3314
 7915TIP3   OH245235   5.758   1.960  14.358 -0.4942  0.3225 -0.4012
 7915TIP3    H145236   5.676   1.918  14.335 -0.8827  0.7996  0.0679
 7915TIP3    H245237   5.821   1.889  14.367 -0.9016 -0.0605 -0.5890
 7916TIP3   OH245238   4.438   3.839  14.011 -0.0709 -0.1460 -0.1881
 7916TIP3    H145239   4.451   3.828  14.105  0.8494  0.2119 -0.2732
 7916TIP3    H245240   4.377   3.769  13.988  0.5318 -0.9117  0.4799
 7917TIP3   OH245241   0.075   1.004  11.921 -0.0118 -0.0899  0.0540
 7917TIP3    H145242   0.155   0.964  11.888  0.2219 -0.7126  1.3234
 7917TIP3    H245243   0.101   1.093  11.947  0.1646 -0.1378  0.0366
 7918TIP3   OH245244   1.394   6.271   0.020  0.0213  0.5785 -0.1478
 7918TIP3    H145245   1.352   6.187   0.005  0.8754  0.1591 -0.2359
 7918TIP3    H245246   1.352   6.305   0.099 -0.6321  0.2774 -0.3582
 7919TIP3   OH245247   5.679   4.386  15.613 -0.2636  0.2747 -0.1919
 7919TIP3    H145248   5.669   4.291  15.603 -0.5912  0.2104  0.6332
 7919TIP3    H245249   5.761   4.396  15.663 -1.0842  0.3149  1.2188
 7920TIP3   OH245250   0.955   3.155   1.723 -0.4118  0.1476  0.0561
 7920TIP3    H145251   0.942   3.250   1.728  1.9494  0.6604 -1.7479
 7920TIP3    H245252   0.872   3.123   1.687 -0.6690  1.7544 -0.9132
 7921TIP3   OH245253   1.771   4.920  14.080 -0.1491  0.1970 -0.4465
 7921TIP3    H145254   1.699   4.899  14.139  1.0834  0.1085  1.1038
 7921TIP3    H245255   1.775   4.847  14.019  0.5509 -1.3846  1.3992
 7922TIP3   OH245256   3.642   3.089  13.878 -0.1996 -0.7312  0.0225
 7922TIP3    H145257   3.695   3.075  13.800 -1.1794  1.8935 -1.2362
 7922TIP3    H245258   3.553   3.064  13.852 -0.4660 -0.2008  0.3885
 7923TIP3   OH245259   3.477   6.555   5.607 -0.6474  0.2039 -0.2421
 7923TIP3    H145260   3.570   6.547   5.585 -1.0682 -0.8302 -1.7267
 7923TIP3    H245261   3.477   6.569   5.702  1.0553  1.2048 -0.3460
 7924TIP3   OH245262   6.789   4.184   5.903  0.6822  0.6158 -0.1300
 7924TIP3    H145263   6.733   4.112   5.932  0.3535 -0.0938 -2.3595
 7924TIP3    H245264   6.876   4.159   5.935  0.3559 -0.1078  0.2376
 7925TIP3   OH245265   4.135   1.174   3.719 -0.1386 -0.1069  0.2474
 7925TIP3    H145266   4.173   1.254   3.683  2.3294 -1.1295  0.3467
 7925TIP3    H245267   4.192   1.104   3.685 -0.8826 -1.5891  1.9184
 7926TIP3   OH245268   4.735   2.259  17.115  0.0864 -0.2357 -0.6521
 7926TIP3    H145269   4.756   2.350  17.095 -0.1529 -0.3927 -1.6756
 7926TIP3    H245270   4.641   2.259  17.133 -0.0992 -0.4304 -1.6012
 7927TIP3   OH245271   1.075   6.434   0.434 -0.0356 -0.0368  0.0479
 7927TIP3    H145272   1.003   6.495   0.451 -0.8698 -0.9476 -0.1387
 7927TIP3    H245273   1.143   6.459   0.497 -1.0044  0.0373  1.0878
 7928TIP3   OH245274   0.689   2.888  15.226 -0.5754 -0.8417 -0.2447
 7928TIP3    H145275   0.684   2.895  15.322 -1.7821 -0.8525 -0.3026
 7928TIP3    H245276   0.762   2.947  15.202 -1.0685  0.1385  0.5698
 7929TIP3   OH245277   4.243   5.967   2.247  0.7756 -0.5645 -0.2676
 7929TIP3    H145278   4.282   6.019   2.177  0.7173 -0.8588 -0.5238
 7929TIP3    H245279   4.151   5.960   2.224  1.1000 -2.3025 -1.2320
 7930TIP3   OH245280   5.117   3.403   5.310  0.0957 -0.2534 -0.2890
 7930TIP3    H145281   5.125   3.307   5.310  0.6766 -0.2109 -0.0265
 7930TIP3    H245282   5.073   3.423   5.228 -0.3823 -0.7758 -0.1661
 7931TIP3   OH245283   1.594   2.265  16.365  0.7835  0.4331 -0.1724
 7931TIP3    H145284   1.508   2.300  16.390  0.1262  0.0805 -1.8133
 7931TIP3    H245285   1.639   2.251  16.449 -0.1308  2.1416  0.6683
 7932TIP3   OH245286   5.768   3.826  14.776 -0.4235  0.4869 -0.0503
 7932TIP3    H145287   5.835   3.758  14.772 -1.4690 -0.5446 -1.2459
 7932TIP3    H245288   5.816   3.907  14.792  0.9973 -0.3465  0.0657
 7933TIP3   OH245289   6.176   2.058  15.742 -0.1019  0.1925  0.3325
 7933TIP3    H145290   6.201   1.972  15.709  0.5919  0.5959 -0.2385
 7933TIP3    H245291   6.176   2.114  15.664 -2.7777  0.2627  0.2629
 7934TIP3   OH245292   4.377   2.069   1.615 -0.3169  0.1220 -0.1965
 7934TIP3    H145293   4.462   2.041   1.581  0.2997  1.7015 -0.0185
 7934TIP3    H245294   4.323   1.990   1.612  1.1535 -0.9097 -0.2969
 7935TIP3   OH245295   6.202   4.305  16.827 -0.1901 -0.1081  0.0208
 7935TIP3    H145296   6.130   4.265  16.779 -0.8679  0.6551  0.3707
 7935TIP3    H245297   6.267   4.235  16.836 -0.6859 -0.6762 -0.7028
 7936TIP3   OH245298   3.553   2.678   6.024  0.5886  0.2244 -0.1487
 7936TIP3    H145299   3.528   2.730   5.948  0.2442  0.1978 -0.0538
 7936TIP3    H245300   3.567   2.742   6.094  0.2532  0.1981 -0.0561
 7937TIP3   OH245301   6.259   5.912   5.924 -0.0098 -0.1534  0.2303
 7937TIP3    H145302   6.287   5.882   6.011 -0.1313 -1.0270 -0.0283
 7937TIP3    H245303   6.168   5.937   5.935 -0.0732 -0.4231  0.3148
 7938TIP3   OH245304   1.535   1.132  12.337  0.6302  0.7833  0.5620
 7938TIP3    H145305   1.537   1.193  12.264  0.4465 -0.8666 -0.8843
 7938TIP3    H245306   1.454   1.152  12.384 -1.9977 -1.2899 -2.6231
 7939TIP3   OH245307   5.043   2.559  13.490  0.4281  0.4203  0.1855
 7939TIP3    H145308   5.007   2.559  13.579  1.8898 -2.0403  0.8532
 7939TIP3    H245309   5.000   2.485  13.447  1.0611  0.5008 -0.6045
 7940TIP3   OH245310   3.866   6.390   0.724  0.4426 -0.0300  0.8087
 7940TIP3    H145311   3.820   6.415   0.804  0.0630 -2.0274  1.2664
 7940TIP3    H245312   3.950   6.356   0.754 -0.4158 -2.5098  0.5809
 7941TIP3   OH245313   6.057   4.250  12.616 -0.1774  0.0771 -0.0705
 7941TIP3    H145314   6.075   4.156  12.620  0.6394  0.1530 -1.5295
 7941TIP3    H245315   5.962   4.257  12.628 -0.2353 -0.9199  0.0940
 7942TIP3   OH245316   6.566   5.872  12.497  0.3160  0.4114  0.3713
 7942TIP3    H145317   6.651   5.915  12.496  0.9117 -0.6584 -2.3301
 7942TIP3    H245318   6.507   5.933  12.453  0.9714 -0.9928 -2.6757
 7943TIP3   OH245319   4.428   3.127  15.183 -0.2482 -0.1437  0.1597
 7943TIP3    H145320   4.393   3.153  15.268 -0.5771  0.7462 -0.2333
 7943TIP3    H245321   4.475   3.045  15.200 -0.4946 -0.0909  1.1495
 7944TIP3   OH245322   4.158   2.561   4.563  0.6298 -0.1061 -0.2648
 7944TIP3    H145323   4.131   2.615   4.489  0.6023 -0.7680 -0.7525
 7944TIP3    H245324   4.079   2.514   4.589  0.4873  0.5805  0.5987
 7945TIP3   OH245325   0.149   1.664  17.251  0.6321 -0.5795  0.2210
 7945TIP3    H145326   0.096   1.589  17.225  0.1492 -0.0427 -0.3922
 7945TIP3    H245327   0.092   1.715  17.309  0.2266  0.3223 -0.9345
 7946TIP3   OH245328   2.685   6.709  14.785 -0.2082  0.1011  0.3218
 7946TIP3    H145329   2.734   6.791  14.779 -0.7207  0.4852  1.2020
 7946TIP3    H245330   2.738   6.646  14.736 -0.1996  1.1297 -1.0710
 7947TIP3   OH245331   4.906   0.840  14.498 -0.5065  0.1892  0.4423
 7947TIP3    H145332   4.982   0.873  14.545 -2.0823  2.8187  1.3902
 7947TIP3    H245333   4.942   0.799  14.419  1.9264 -0.1782  1.6467
 7948TIP3   OH245334   5.644   3.871   2.711  0.8804 -0.0498 -0.4196
 7948TIP3    H145335   5.588   3.938   2.751  1.1963  0.3411 -0.6232
 7948TIP3    H245336   5.604   3.856   2.625  0.2478 -0.8315  0.0016
 7949TIP3   OH245337   6.424   0.647   1.097 -0.2012  0.1106  0.2689
 7949TIP3    H145338   6.517   0.656   1.076 -0.4071  0.6173 -0.4870
 7949TIP3    H245339   6.380   0.698   1.029 -1.2067 -2.4020 -1.0897
 7950TIP3   OH245340   3.079   4.623   0.122 -0.1607 -0.7826  0.8295
 7950TIP3    H145341   3.167   4.644   0.155  0.5327  1.6444 -2.1322
 7950TIP3    H245342   3.093   4.546   0.066 -0.1753 -1.0500  1.1824
 7951TIP3   OH245343   3.143   3.467  12.811  0.3576 -0.1405  0.2522
 7951TIP3    H145344   3.180   3.552  12.835  0.3723 -0.6551  2.2073
 7951TIP3    H245345   3.217   3.417  12.779  0.9358 -0.3258  1.7838
 7952TIP3   OH245346   5.097   4.734  13.249  0.2925 -0.0802  0.5283
 7952TIP3    H145347   5.050   4.759  13.329 -0.1896  0.8131 -0.0173
 7952TIP3    H245348   5.065   4.794  13.182  1.5198 -0.0791 -0.0903
 7953TIP3   OH245349   0.760   1.188  10.697  0.2072  0.7429  0.3046
 7953TIP3    H145350   0.803   1.207  10.614 -0.0450 -2.9598 -0.8333
 7953TIP3    H245351   0.666   1.196  10.679  0.1658  0.4254  0.3701
 7954TIP3   OH245352   2.698   5.998   6.040  0.1351 -0.4232  0.0113
 7954TIP3    H145353   2.757   6.061   6.000  1.5091 -1.7464 -0.1416
 7954TIP3    H245354   2.726   5.993   6.131 -1.2841  0.6368  0.5531
 7955TIP3   OH245355   0.005   1.518  12.600 -0.0826 -0.7311 -0.0771
 7955TIP3    H145356  -0.027   1.441  12.553  1.8273 -0.3137 -2.2734
 7955TIP3    H245357  -0.052   1.526  12.676 -2.0097 -2.7484 -1.2032
 7956TIP3   OH245358   3.219   3.399  15.541  0.4505  0.3586 -0.4880
 7956TIP3    H145359   3.253   3.411  15.452 -1.3092  0.7280 -1.1637
 7956TIP3    H245360   3.124   3.396  15.529  0.1881  0.3577  1.3948
 7957TIP3   OH245361   5.310   4.706  14.646 -0.3303 -0.0881 -0.0226
 7957TIP3    H145362   5.252   4.756  14.703  1.0613  0.5502  0.8901
 7957TIP3    H245363   5.260   4.694  14.565 -2.8928 -2.1620  1.7202
 7958TIP3   OH245364   5.134   5.832  12.961 -0.5712 -0.0052 -0.5286
 7958TIP3    H145365   5.073   5.821  12.888 -0.1581 -0.2565 -0.8400
 7958TIP3    H245366   5.130   5.926  12.982 -1.0459 -0.0150 -0.5556
 7959TIP3   OH245367   3.251   4.093   0.705  0.1914  0.5165 -0.0007
 7959TIP3    H145368   3.320   4.070   0.643  1.1221 -0.3267  1.2907
 7959TIP3    H245369   3.264   4.186   0.724  0.0417  0.7217 -0.8535
 7960TIP3   OH245370   5.052   2.067   4.912  0.1363  0.1493  0.3355
 7960TIP3    H145371   5.093   2.125   4.848  0.8570 -0.2688  0.4090
 7960TIP3    H245372   5.092   1.981   4.896  1.4360  0.3307  2.3204
 7961TIP3   OH245373   6.680   0.378   3.329 -0.2744 -0.4223 -0.2885
 7961TIP3    H145374   6.769   0.346   3.339 -0.3366 -0.1510  1.3490
 7961TIP3    H245375   6.669   0.389   3.234  1.4616 -0.3187 -0.5001
 7962TIP3   OH245376   2.887   3.134  15.064 -0.4082  0.1851  0.4409
 7962TIP3    H145377   2.794   3.126  15.084 -0.0383 -1.1839  1.7518
 7962TIP3    H245378   2.923   3.184  15.137 -0.3226  2.1030 -0.8335
 7963TIP3   OH245379   4.044   5.591  13.839  0.3442  0.3617 -0.3657
 7963TIP3    H145380   3.989   5.660  13.876  0.3416 -0.7661  1.8911
 7963TIP3    H245381   4.121   5.637  13.806 -0.8894  1.7068 -1.5022
 7964TIP3   OH245382   3.524   4.939  15.969 -0.2588 -0.2738  0.4451
 7964TIP3    H145383   3.521   5.017  16.026  3.0044  0.4947 -0.2197
 7964TIP3    H245384   3.591   4.884  16.008  2.1678  0.3086 -2.5347
 7965TIP3   OH245385   6.011   4.229  13.356 -0.8144  0.2604 -0.3183
 7965TIP3    H145386   5.928   4.277  13.363 -0.2237  1.2113  0.3188
 7965TIP3    H245387   6.024   4.191  13.442  0.1765  1.4413  0.0907
 7966TIP3   OH245388   3.332   4.687   0.166  0.7081 -0.0560  0.6022
 7966TIP3    H145389   3.409   4.651   0.122  0.8890  0.7979  0.1994
 7966TIP3    H245390   3.345   4.781   0.164  0.1172  0.0580  1.4023
 7967TIP3   OH245391   6.693   1.535   0.480  0.3819 -0.2806  0.4376
 7967TIP3    H145392   6.606   1.564   0.508  1.1291  0.2266  2.3779
 7967TIP3    H245393   6.696   1.555   0.386 -1.5666 -0.2914  0.3382
 7968TIP3   OH245394   5.369   0.820  12.068 -0.2783 -0.0206  0.5570
 7968TIP3    H145395   5.457   0.854  12.055  0.0752 -0.4346  1.7584
 7968TIP3    H245396   5.328   0.826  11.981  0.2478  2.0688  0.3866
 7969TIP3   OH245397   6.617   3.944   5.886  0.2133 -0.6289 -0.5614
 7969TIP3    H145398   6.570   3.972   5.806  0.4794  2.5572  0.2633
 7969TIP3    H245399   6.704   3.921   5.855 -0.7294 -3.1356 -1.6251
 7970TIP3   OH245400   3.429   2.832   6.550  0.0936  0.1141  0.1711
 7970TIP3    H145401   3.488   2.907   6.549  1.4248 -0.8410  1.5094
 7970TIP3    H245402   3.447   2.786   6.468  0.3500  0.4693  0.0240
 7971TIP3   OH245403   6.661   2.269  12.608  0.9470  0.0292  0.2649
 7971TIP3    H145404   6.619   2.333  12.551  1.3782  1.4720  1.5230
 7971TIP3    H245405   6.635   2.294  12.696  1.1110 -1.5618  0.8083
 7972TIP3   OH245406   0.773   2.927  17.063 -0.1771 -0.0004 -0.3704
 7972TIP3    H145407   0.790   3.020  17.081 -0.8422 -0.0949  0.8202
 7972TIP3    H245408   0.828   2.908  16.987 -0.2690  1.4442 -0.8351
 7973TIP3   OH245409   3.397   4.779  17.037  0.3392  0.1066  0.5513
 7973TIP3    H145410   3.407   4.813  16.949 -3.1213  0.7143  0.2765
 7973TIP3    H245411   3.414   4.855  17.094  1.0091  0.1081  0.3562
 7974TIP3   OH245412   2.156   5.342   5.719 -0.0262  0.1723 -0.2433
 7974TIP3    H145413   2.108   5.283   5.776  0.4103  0.3003  0.2645
 7974TIP3    H245414   2.230   5.291   5.686 -0.9620 -0.2907 -1.7084
 7975TIP3   OH245415   0.816   5.443   4.070 -0.5353  0.1066 -0.5091
 7975TIP3    H145416   0.851   5.400   4.148  3.2990 -1.8095 -3.0012
 7975TIP3    H245417   0.878   5.514   4.052 -1.9341  1.1759 -1.3251
 7976TIP3   OH245418   6.223   3.337   4.462 -0.0350  0.7147 -0.4734
 7976TIP3    H145419   6.203   3.260   4.409  1.3404  0.7422 -1.0615
 7976TIP3    H245420   6.213   3.411   4.402  3.6090  0.6125 -1.4269
 7977TIP3   OH245421   2.990   3.010   5.731 -0.6345  0.6058 -0.5680
 7977TIP3    H145422   2.921   3.073   5.707 -1.2909 -0.1215 -0.6198
 7977TIP3    H245423   2.942   2.932   5.759  0.1632  0.4593  0.4238
 7978TIP3   OH245424   0.488   0.514  16.298 -0.3834 -0.1726  0.0479
 7978TIP3    H145425   0.505   0.549  16.210 -0.5408  0.9822  0.4662
 7978TIP3    H245426   0.574   0.511  16.339 -0.3908 -0.1463  0.0658
 7979TIP3   OH245427   5.870   2.511  15.009  0.0801 -0.0545 -0.2115
 7979TIP3    H145428   5.815   2.548  14.939 -1.5630  0.6827  1.3941
 7979TIP3    H245429   5.939   2.465  14.962 -1.8722 -1.0340 -2.3623
 7980TIP3   OH245430   4.425   5.132  12.471 -0.4763 -0.2698 -0.3186
 7980TIP3    H145431   4.412   5.128  12.566 -0.0035 -1.0332 -0.2757
 7980TIP3    H245432   4.511   5.091  12.458  0.8513  2.4510 -0.7819
 7981TIP3   OH245433   1.572   4.246  16.778 -0.2670 -0.0150 -0.2390
 7981TIP3    H145434   1.668   4.252  16.774 -0.1614 -1.1303  0.1856
 7981TIP3    H245435   1.551   4.264  16.869 -0.5479  1.1152 -0.5182
 7982TIP3   OH245436   0.223   6.111   3.734  0.2179  0.2786 -0.2190
 7982TIP3    H145437   0.287   6.122   3.663 -0.7269  3.2077 -0.7562
 7982TIP3    H245438   0.252   6.171   3.802 -0.5081 -0.3355  0.6519
 7983TIP3   OH245439   5.425   1.236  13.831  0.4260  0.3445 -0.3430
 7983TIP3    H145440   5.341   1.210  13.870  0.3986  1.5128  0.4280
 7983TIP3    H245441   5.454   1.158  13.783 -0.3723 -0.5786  0.6078
 7984TIP3   OH245442   0.219   3.969  10.799 -0.0301  0.3386  0.3439
 7984TIP3    H145443   0.303   3.965  10.754 -0.5250  1.2919 -0.7611
 7984TIP3    H245444   0.162   3.912  10.747 -0.1653  0.0019  0.8583
 7985TIP3   OH245445   1.170   6.129  12.660 -0.4781 -0.0288 -0.0181
 7985TIP3    H145446   1.243   6.100  12.715  1.2912  0.2619 -2.0411
 7985TIP3    H245447   1.146   6.214  12.694 -2.3625 -1.5673  2.8865
 7986TIP3   OH245448   3.692   1.327  16.467 -0.2387  0.4500  0.1890
 7986TIP3    H145449   3.732   1.395  16.522  1.7700 -0.7924  0.3571
 7986TIP3    H245450   3.632   1.282  16.526 -0.0980  0.8231  0.6298
 7987TIP3   OH245451   6.151   2.532  14.343 -0.1631 -0.1319  0.6648
 7987TIP3    H145452   6.159   2.565  14.254 -2.5833  0.6254  0.6606
 7987TIP3    H245453   6.190   2.445  14.341 -0.6701 -0.3507 -1.2798
 7988TIP3   OH245454   2.531   6.496  13.712 -0.4601 -0.2928  0.1958
 7988TIP3    H145455   2.562   6.416  13.669 -0.9963 -0.0034 -0.7563
 7988TIP3    H245456   2.459   6.467  13.768 -0.3426 -0.5455  0.2167
 7989TIP3   OH245457   3.450   3.675   3.460  0.1971 -0.5539  0.2729
 7989TIP3    H145458   3.533   3.681   3.413 -0.0245  1.8655  0.0426
 7989TIP3    H245459   3.390   3.730   3.409 -0.1166  2.0641  3.1844
 7990TIP3   OH245460   1.149   4.173  12.453  0.6268  0.1714  0.6049
 7990TIP3    H145461   1.120   4.258  12.484 -1.6038 -0.1461 -0.4227
 7990TIP3    H245462   1.129   4.113  12.524  1.3087  0.3439  0.9498
 7991TIP3   OH245463   6.792   3.706   2.588  0.3893 -0.0417 -0.6523
 7991TIP3    H145464   6.773   3.632   2.530 -1.0809 -0.2082 -0.0015
 7991TIP3    H245465   6.866   3.677   2.641 -0.7423 -1.4146  0.2137
 7992TIP3   OH245466   5.703   5.092   1.764 -0.4127 -0.2875 -0.1537
 7992TIP3    H145467   5.766   5.096   1.692 -0.7301  1.2806 -0.3749
 7992TIP3    H245468   5.755   5.110   1.842 -0.0199 -2.2367  0.0969
 7993TIP3   OH245469   3.449   5.797  10.827 -0.0973  0.3353 -0.1563
 7993TIP3    H145470   3.423   5.878  10.870  0.1650  0.5220 -0.3411
 7993TIP3    H245471   3.367   5.758  10.798 -0.1762  1.0051 -0.8854
 7994TIP3   OH245472   2.859   4.983  15.769  0.3049  0.1580 -0.1556
 7994TIP3    H145473   2.811   5.063  15.785 -1.4247 -0.3145 -2.4733
 7994TIP3    H245474   2.853   4.969  15.674  0.2719 -2.8509  0.1796
 7995TIP3   OH245475   4.557   1.015  15.556  0.2138  0.7023  0.2336
 7995TIP3    H145476   4.544   1.092  15.612  0.0737  2.3377 -1.8916
 7995TIP3    H245477   4.649   0.992  15.568  0.0769  0.7241  1.4467
 7996TIP3   OH245478   0.544   5.581   2.720  0.1417  0.0437  0.7005
 7996TIP3    H145479   0.545   5.655   2.660 -0.9550  0.3001  0.9787
 7996TIP3    H245480   0.601   5.608   2.792  0.7126  0.1093  0.2385
 7997TIP3   OH245481   0.867   6.307   1.997 -0.2699 -0.3936  0.1878
 7997TIP3    H145482   0.800   6.270   2.055 -0.4098 -2.0589 -0.9664
 7997TIP3    H245483   0.856   6.402   2.005 -2.3015 -0.6115  0.5409
 7998TIP3   OH245484   2.601   5.117   3.279  0.5203  0.1740  0.2331
 7998TIP3    H145485   2.647   5.200   3.264 -0.7857  0.9361  0.3075
 7998TIP3    H245486   2.666   5.050   3.261  1.1976  1.1911 -1.2711
 7999TIP3   OH245487   6.732   1.079  16.942  0.4067  0.6529  0.7569
 7999TIP3    H145488   6.712   1.150  17.003  0.4336 -0.4851  2.1407
 7999TIP3    H245489   6.668   1.010  16.964 -0.2948  0.5957 -1.2396
 8000TIP3   OH245490   5.872   2.576   1.140  0.4519 -0.5761  0.1823
 8000TIP3    H145491   5.809   2.644   1.118  0.4492 -0.7233 -0.2746
 8000TIP3    H245492   5.822   2.512   1.190  0.9754  0.9100  2.7873
 8001TIP3   OH245493   2.859   5.832  12.436  0.2868  0.0301  0.6100
 8001TIP3    H145494   2.831   5.922  12.447  0.5501  0.2183 -0.1768
 8001TIP3    H245495   2.849   5.814  12.343 -0.1746 -0.8969  0.8207
 8002TIP3   OH245496   6.637   3.323  11.941  1.0190  0.1718 -0.5264
 8002TIP3    H145497   6.586   3.397  11.975 -0.4380 -1.1360  0.3011
 8002TIP3    H245498   6.632   3.333  11.846  0.2005  0.7362 -0.4425
 8003TIP3   OH245499   3.226   1.581   3.630 -0.1662  0.5546 -0.3943
 8003TIP3    H145500   3.273   1.592   3.548 -0.0475 -1.6591 -0.6793
 8003TIP3    H245501   3.152   1.525   3.609 -1.4572  1.8063  0.5877
 8004TIP3   OH245502   6.713   1.000  11.036 -0.2481  0.4269 -0.1123
 8004TIP3    H145503   6.736   1.035  10.950  1.0107  0.1131  0.0806
 8004TIP3    H245504   6.795   1.001  11.085 -0.8378  0.0855  0.9131
 8005TIP3   OH245505   4.201   4.034  15.151  0.1611  0.5322 -0.2559
 8005TIP3    H145506   4.110   4.032  15.122 -0.3163  1.6046  1.0658
 8005TIP3    H245507   4.197   4.066  15.242  1.7045 -1.1593  0.4784
 8006TIP3   OH245508   5.248   0.160   1.235 -0.7751  0.0423 -0.0225
 8006TIP3    H145509   5.215   0.103   1.305 -0.9620  0.2211  0.0402
 8006TIP3    H245510   5.321   0.113   1.197 -0.6021 -0.0097  0.3692
 8007TIP3   OH245511   1.235   2.058   2.464  0.0695 -0.1464 -0.2791
 8007TIP3    H145512   1.283   1.983   2.498  1.4643  1.9755  2.8180
 8007TIP3    H245513   1.152   2.058   2.513  0.2021  0.4891 -0.0446
 8008TIP3   OH245514   2.178   1.113  15.537 -0.4578  0.3452 -0.5286
 8008TIP3    H145515   2.202   1.206  15.545  0.5188  0.0375  0.3033
 8008TIP3    H245516   2.258   1.070  15.506 -0.1520 -0.5655  1.3719
 8009TIP3   OH245517   6.191   2.317   3.579 -0.1920  0.3244  0.5869
 8009TIP3    H145518   6.241   2.318   3.497  0.6961 -1.6490  1.0589
 8009TIP3    H245519   6.121   2.381   3.564 -0.3855 -0.3387 -1.9474
 8010TIP3   OH245520   1.343   1.527  12.022  0.0861  0.4559 -0.0966
 8010TIP3    H145521   1.382   1.448  12.059  1.5995  1.2348  0.0617
 8010TIP3    H245522   1.393   1.542  11.942  1.8032  2.7680  1.2852
 8011TIP3   OH245523   5.412   3.789   1.895  0.2036 -0.2427  0.5298
 8011TIP3    H145524   5.433   3.855   1.961 -0.2640 -0.8855  1.3502
 8011TIP3    H245525   5.487   3.729   1.896 -0.5130 -1.1673  1.6891
 8012TIP3   OH245526   3.797   4.494   1.784  0.2105  0.2967  0.1137
 8012TIP3    H145527   3.723   4.553   1.770 -2.4550 -2.3749  1.5970
 8012TIP3    H245528   3.833   4.519   1.869  1.4146  1.9163 -0.8298
 8013TIP3   OH245529   0.853   0.575   4.588 -0.2215 -0.0378 -0.2636
 8013TIP3    H145530   0.784   0.571   4.654 -1.0003 -0.9593 -1.0928
 8013TIP3    H245531   0.832   0.504   4.527 -1.0343  2.3270 -2.9661
 8014TIP3   OH245532   3.932   6.423  14.303  0.2312  0.3226  0.0499
 8014TIP3    H145533   3.971   6.336  14.291  0.0292  0.3714 -1.0183
 8014TIP3    H245534   3.850   6.406  14.350 -0.4431 -0.2325 -1.2532
 8015TIP3   OH245535   0.998   1.048   4.121  0.7223  0.0091  0.5257
 8015TIP3    H145536   1.077   1.015   4.163  1.5597 -0.4611 -1.3028
 8015TIP3    H245537   0.963   0.973   4.072  0.2425  0.7024 -0.2309
 8016TIP3   OH245538   2.957   4.914   1.131  0.0733 -0.4049  0.2316
 8016TIP3    H145539   2.928   4.825   1.114 -1.1241  0.0230 -0.0794
 8016TIP3    H245540   3.040   4.904   1.178  0.7054 -1.6622 -1.0772
 8017TIP3   OH245541   4.152   5.453   4.889  0.1602 -0.1246  0.2833
 8017TIP3    H145542   4.088   5.411   4.945 -0.3077  0.2184  0.0169
 8017TIP3    H245543   4.108   5.533   4.858  0.3772 -0.3431 -0.6220
 8018TIP3   OH245544   4.830   3.581  12.682  0.0059 -0.3300 -0.5563
 8018TIP3    H145545   4.911   3.545  12.646  0.2249  0.5377 -0.9495
 8018TIP3    H245546   4.773   3.592  12.606  0.1853  0.7668 -0.5519
 8019TIP3   OH245547   2.637   0.042   1.410 -0.1422 -0.0492 -0.4212
 8019TIP3    H145548   2.556   0.006   1.446 -0.9500  2.0571  0.0454
 8019TIP3    H245549   2.608   0.109   1.349  1.2030 -2.5761 -4.2094
 8020TIP3   OH245550   5.000   0.859  10.895 -0.0928 -0.0559  0.4927
 8020TIP3    H145551   4.938   0.868  10.822 -1.1921 -1.6486  1.1739
 8020TIP3    H245552   5.080   0.825  10.855 -0.0126  0.9433 -0.2389
 8021TIP3   OH245553   5.761   1.627  13.751 -0.4713 -0.3148 -0.2886
 8021TIP3    H145554   5.682   1.575  13.767  1.2124 -2.4674  1.8802
 8021TIP3    H245555   5.767   1.633  13.656 -1.5103 -2.9965 -0.6117
 8022TIP3   OH245556   3.027   1.144   0.587  0.0177 -0.1992  0.0191
 8022TIP3    H145557   2.933   1.159   0.600 -0.0638 -0.9172  0.2651
 8022TIP3    H245558   3.035   1.050   0.573  0.3432  0.1737 -3.0490
 8023TIP3   OH245559   5.412   1.406   3.896  0.2580 -0.3714 -0.9609
 8023TIP3    H145560   5.498   1.411   3.853  0.0971  1.9597 -1.1218
 8023TIP3    H245561   5.357   1.466   3.846 -0.0504  2.2096  2.2012
 8024TIP3   OH245562   5.074   0.267  12.468  0.5673  0.2049  0.1509
 8024TIP3    H145563   4.991   0.278  12.421  1.4722  0.2404 -1.5370
 8024TIP3    H245564   5.099   0.356  12.494 -0.2263  0.1208  1.2539
 8025TIP3   OH245565   5.044   4.350   4.633 -0.6395  0.1306  0.2771
 8025TIP3    H145566   4.951   4.370   4.635 -0.1683  2.6594  1.4750
 8025TIP3    H245567   5.071   4.352   4.725  0.8385  1.0761 -0.1313
 8026TIP3   OH245568   2.027   1.218   5.840 -0.1620  0.0328  0.1872
 8026TIP3    H145569   1.933   1.221   5.825 -0.0039  0.6017 -0.8182
 8026TIP3    H245570   2.042   1.282   5.910 -0.1631  2.6087 -2.0101
 8027TIP3   OH245571   6.090   5.459   6.045  0.0068  0.5128 -0.9237
 8027TIP3    H145572   6.171   5.483   6.091 -0.0378  0.0707 -0.6069
 8027TIP3    H245573   6.021   5.500   6.096 -0.0315  0.1497 -0.6808
 8028TIP3   OH245574   6.215   5.493   5.539  0.3394  0.3315 -0.8096
 8028TIP3    H145575   6.135   5.472   5.586  1.1087  0.6468  0.7056
 8028TIP3    H245576   6.286   5.462   5.596  1.3311  1.3384 -1.4358
 8029TIP3   OH245577   5.514   1.169  14.418 -0.0873  0.5282  0.5946
 8029TIP3    H145578   5.528   1.173  14.323  3.5871  0.8522  0.9780
 8029TIP3    H245579   5.480   1.081  14.433 -1.0221  0.5692 -1.0286
 8030TIP3   OH245580   4.122   4.590   4.393 -0.0960 -0.3044 -0.1095
 8030TIP3    H145581   4.116   4.503   4.354 -0.5875 -0.6337  0.6770
 8030TIP3    H245582   4.204   4.590   4.442  1.4166  0.6852 -2.4364
 8031TIP3   OH245583   5.322   0.489  13.307  0.4611 -0.1944  0.2614
 8031TIP3    H145584   5.351   0.545  13.234 -0.5368 -1.2670 -1.0148
 8031TIP3    H245585   5.240   0.529  13.337  0.2273 -0.4498 -0.0348
 8032TIP3   OH245586   0.585   6.635  15.234  0.6766 -0.4355 -0.2698
 8032TIP3    H145587   0.581   6.555  15.285  0.4910  0.5854  1.3947
 8032TIP3    H245588   0.672   6.671  15.252  0.9462 -0.4964 -1.3931
 8033TIP3   OH245589   0.366   5.884  16.907 -0.1340 -0.7368  0.3534
 8033TIP3    H145590   0.338   5.895  16.998 -1.4701  2.7977 -0.3187
 8033TIP3    H245591   0.284   5.888  16.857  0.7956  0.5833 -1.1338
 8034TIP3   OH245592   2.739   6.034  11.941 -0.3719 -0.4004  0.1464
 8034TIP3    H145593   2.819   6.053  11.893 -0.7129 -1.0151 -0.6988
 8034TIP3    H245594   2.699   6.120  11.958 -0.0700 -0.1568 -0.3688
 8035TIP3   OH245595   4.616   3.796  14.695 -0.6278 -0.5639  0.1096
 8035TIP3    H145596   4.608   3.891  14.695 -0.8613 -0.5641 -1.4134
 8035TIP3    H245597   4.525   3.764  14.693 -0.5817 -0.8520  1.6185
 8036TIP3   OH245598   5.900   6.365  12.879 -0.2840 -0.6641  0.2609
 8036TIP3    H145599   5.918   6.439  12.937  0.0067 -0.6682  0.1803
 8036TIP3    H245600   5.942   6.291  12.922  1.6076 -0.3240 -0.8791
 8037TIP3   OH245601   1.584   1.300   4.000  0.0888  0.1256  0.0131
 8037TIP3    H145602   1.642   1.242   3.950 -0.1775 -0.1603  0.0342
 8037TIP3    H245603   1.601   1.388   3.965 -0.5102 -0.1409 -0.9755
 8038TIP3   OH245604   6.014   1.550  13.854  0.8694 -0.0062 -0.4467
 8038TIP3    H145605   5.920   1.534  13.855  0.8981 -0.6093  2.7479
 8038TIP3    H245606   6.040   1.535  13.763 -1.8985 -1.1187 -1.1554
 8039TIP3   OH245607   1.509   2.906  12.330  0.7185 -0.4702  0.0909
 8039TIP3    H145608   1.464   2.978  12.286  0.1782  0.5155  2.1393
 8039TIP3    H245609   1.447   2.834  12.327 -1.0399  0.7838  2.6334
 8040TIP3   OH245610   6.579   1.610   4.879 -0.3224  0.5344 -0.4665
 8040TIP3    H145611   6.523   1.535   4.900  0.3316 -0.0667 -0.7958
 8040TIP3    H245612   6.578   1.664   4.957  0.0831 -0.3853  0.1867
 8041TIP3   OH245613   1.252   5.711   5.403 -0.1368 -0.2391 -0.2396
 8041TIP3    H145614   1.282   5.799   5.424  0.3383 -0.1789 -1.1605
 8041TIP3    H245615   1.295   5.689   5.321  0.5221 -1.7106  0.4615
 8042TIP3   OH245616   4.940   4.099  14.147 -0.0524  0.0039  0.2764
 8042TIP3    H145617   4.848   4.117  14.129 -0.0966 -0.8564 -0.4259
 8042TIP3    H245618   4.945   4.004  14.153  0.9624 -0.0340 -0.7364
 8043TIP3   OH245619   4.443   6.459  17.274  0.0875 -0.7274  0.1303
 8043TIP3    H145620   4.371   6.522  17.275  0.3566 -0.4173  0.4600
 8043TIP3    H245621   4.408   6.382  17.229 -1.6537 -1.9976  3.3544
 8044TIP3   OH245622   6.600   3.699  15.467  0.3582 -0.6305 -0.2138
 8044TIP3    H145623   6.659   3.745  15.407  0.3982 -0.8366 -0.3336
 8044TIP3    H245624   6.544   3.647  15.410  1.4281 -2.0706 -0.0173
 8045TIP3   OH245625   6.596   6.702  14.288 -0.2759  0.2856 -0.3121
 8045TIP3    H145626   6.630   6.643  14.355 -2.6130  0.0514  0.7842
 8045TIP3    H245627   6.583   6.646  14.211 -1.7502 -0.5272  0.4773
 8046TIP3   OH245628   1.297   6.240   3.982 -0.1738 -0.0703  0.9257
 8046TIP3    H145629   1.302   6.323   4.029  2.5632 -0.2773  1.1512
 8046TIP3    H245630   1.385   6.226   3.947 -1.2947 -1.4319 -1.7033
 8047TIP3   OH245631   4.700   6.499  11.556 -0.3825  0.4866  0.1887
 8047TIP3    H145632   4.673   6.423  11.504 -0.2506  0.3303  0.3484
 8047TIP3    H245633   4.668   6.574  11.506 -1.9406  0.2901  0.8626
 8048TIP3   OH245634   5.725   0.166   5.409  0.0172 -0.3470 -0.3138
 8048TIP3    H145635   5.721   0.084   5.459 -0.9643 -1.0225 -1.4608
 8048TIP3    H245636   5.636   0.178   5.375  0.5476  0.3192 -1.5304
 8049TIP3   OH245637   0.270   5.222   2.347  0.4630 -0.0221 -0.4813
 8049TIP3    H145638   0.244   5.177   2.267  0.6699 -1.3117  0.1546
 8049TIP3    H245639   0.249   5.314   2.331  0.5388 -0.2562 -2.0153
 8050TIP3   OH245640   1.754   2.698  13.395  0.1866 -0.3275 -0.1201
 8050TIP3    H145641   1.661   2.721  13.399  0.7148  1.8050  1.2388
 8050TIP3    H245642   1.796   2.773  13.354  1.4504 -0.8047  0.2411
 8051TIP3   OH245643   0.489   6.340   1.866  0.6599  0.4796  0.3779
 8051TIP3    H145644   0.582   6.352   1.848  0.7451 -1.9507 -1.3868
 8051TIP3    H245645   0.481   6.247   1.889 -1.2340  0.8243  1.2973
 8052TIP3   OH245646   4.229   0.280   3.257  0.3586  0.7061 -0.2488
 8052TIP3    H145647   4.152   0.316   3.214  1.7916  1.8192 -2.0095
 8052TIP3    H245648   4.220   0.308   3.349 -0.3926  2.4353 -0.8122
 8053TIP3   OH245649   4.602   2.413   3.411  0.2596 -0.9260  0.4125
 8053TIP3    H145650   4.647   2.366   3.341 -0.4921 -0.8865 -0.1173
 8053TIP3    H245651   4.511   2.418   3.381  0.2254  0.4211  0.6789
 8054TIP3   OH245652   1.233   3.050  15.571  0.0082  0.1083  0.2222
 8054TIP3    H145653   1.216   2.956  15.584 -1.0246  0.5954  3.0101
 8054TIP3    H245654   1.155   3.082  15.526  0.4835 -0.3872 -0.9856
 8055TIP3   OH245655   2.150   2.373  10.944  0.0220  0.5469 -0.3778
 8055TIP3    H145656   2.082   2.350  10.882 -0.4571  2.8240 -0.7852
 8055TIP3    H245657   2.155   2.469  10.940  0.1924  0.7778  2.8462
 8056TIP3   OH245658   5.294   0.093  16.786 -0.1990  0.5027  0.2195
 8056TIP3    H145659   5.307   0.141  16.705 -1.4429  0.2716 -0.1425
 8056TIP3    H245660   5.382   0.085  16.824  0.6258 -0.5670 -1.7531
 8057TIP3   OH245661   0.072   1.549  12.223 -0.2984  0.2832  0.1521
 8057TIP3    H145662   0.155   1.562  12.178 -0.6123 -1.0460 -0.8833
 8057TIP3    H245663   0.007   1.546  12.153 -1.1628  0.7423  0.9043
 8058TIP3   OH245664   3.638   5.050  12.124  0.3322  0.3284  0.3572
 8058TIP3    H145665   3.589   5.001  12.057  0.3375  2.6138 -1.4716
 8058TIP3    H245666   3.586   5.130  12.137  1.5840  1.0245  1.2989
 8059TIP3   OH245667   1.480   3.838   1.868 -0.3067  0.0500  0.7438
 8059TIP3    H145668   1.540   3.767   1.846  1.0178  1.0751  0.9720
 8059TIP3    H245669   1.499   3.859   1.959 -0.7829  0.6113  0.7217
 8060TIP3   OH245670   1.648   5.658   4.971 -0.6239  0.0108 -0.2589
 8060TIP3    H145671   1.689   5.737   4.937  0.2178 -0.4675 -0.3970
 8060TIP3    H245672   1.677   5.589   4.911 -1.6449 -0.3464 -0.3557
 8061TIP3   OH245673   0.608   0.973   2.969  0.2500  0.9358 -0.0197
 8061TIP3    H145674   0.547   1.018   2.910 -0.8199 -0.4427 -0.0071
 8061TIP3    H245675   0.585   1.005   3.057 -0.5521  0.3482 -0.0045
 8062TIP3   OH245676   1.615   0.450   5.946 -0.3097 -0.6655 -0.1550
 8062TIP3    H145677   1.618   0.546   5.944 -0.5991 -0.6550 -1.2174
 8062TIP3    H245678   1.609   0.427   6.038 -0.4337  0.3510  0.0984
 8063TIP3   OH245679   0.225   4.691   5.878 -0.8373  0.1825  0.1131
 8063TIP3    H145680   0.175   4.728   5.951 -1.3570 -0.9622  0.3646
 8063TIP3    H245681   0.284   4.628   5.919 -0.2867  0.4027 -0.3401
 8064TIP3   OH245682   4.911   3.077  14.595 -0.2932  0.4069 -0.2991
 8064TIP3    H145683   4.824   3.054  14.561 -0.8968 -0.1610  1.5292
 8064TIP3    H245684   4.895   3.147  14.657  0.1106 -1.5672  2.1989
 8065TIP3   OH245685   5.807   0.160   1.829  0.0849  0.0544  0.5731
 8065TIP3    H145686   5.804   0.068   1.854 -1.6499 -0.5260 -1.4733
 8065TIP3    H245687   5.780   0.207   1.907 -1.3974 -1.3785  0.9738
 8066TIP3   OH245688   0.553   6.293  15.336  0.1451  0.1370 -0.1289
 8066TIP3    H145689   0.627   6.239  15.364 -0.7661 -0.8374  0.4581
 8066TIP3    H245690   0.543   6.358  15.406  1.1941  1.0644 -0.8010
 8067TIP3   OH245691   0.694   4.673   4.498 -0.4757  0.1224 -0.9374
 8067TIP3    H145692   0.752   4.746   4.517 -0.1845 -0.4363  0.4384
 8067TIP3    H245693   0.649   4.655   4.581  0.8347 -2.4318 -0.6810
 8068TIP3   OH245694   5.798   2.412   4.052 -0.0637 -0.3117  0.6335
 8068TIP3    H145695   5.798   2.487   3.993  2.7172  0.0702  0.9838
 8068TIP3    H245696   5.760   2.341   4.000  0.1909  0.5689 -0.8207
 8069TIP3   OH245697   3.545   4.711  14.765 -0.0409  0.2192  0.5017
 8069TIP3    H145698   3.597   4.670  14.833 -1.3237 -2.0780  0.1829
 8069TIP3    H245699   3.471   4.751  14.812 -1.4055 -2.1177  0.5048
 8070TIP3   OH245700   3.040   5.559  16.237  0.0636  0.1201 -0.1267
 8070TIP3    H145701   2.953   5.572  16.276  0.6496  1.9099  0.7061
 8070TIP3    H245702   3.071   5.477  16.275 -0.2882  0.7017  1.4959
 8071TIP3   OH245703   6.462   3.182   2.852 -0.2395  0.3364 -0.3271
 8071TIP3    H145704   6.517   3.259   2.862 -1.3284  1.0783  0.1019
 8071TIP3    H245705   6.521   3.114   2.819  0.9277  1.0932  0.1532
 8072TIP3   OH245706   4.742   3.968  15.871  0.0888 -0.0444  0.0335
 8072TIP3    H145707   4.713   3.889  15.826  1.4281 -0.2417 -0.5238
 8072TIP3    H245708   4.811   3.939  15.930  0.9603  0.7819 -0.5548
 8073TIP3   OH245709   6.816   5.173  14.254  0.3967 -0.4280  0.1871
 8073TIP3    H145710   6.794   5.126  14.174  2.2119 -0.9167 -0.0664
 8073TIP3    H245711   6.743   5.154  14.314  0.7658 -3.1208 -0.1051
 8074TIP3   OH245712   2.403   2.583  15.866 -0.0196  0.0267  0.6228
 8074TIP3    H145713   2.360   2.631  15.794 -0.6726 -2.7067 -0.9445
 8074TIP3    H245714   2.338   2.583  15.936 -1.3796 -1.2773 -0.5601
 8075TIP3   OH245715   4.328   1.092   5.312 -0.2992 -0.0553 -0.0008
 8075TIP3    H145716   4.401   1.071   5.253 -0.5350  0.8298 -0.6269
 8075TIP3    H245717   4.253   1.103   5.253 -0.9978 -1.1462  0.6499
 8076TIP3   OH245718   2.933   5.625   4.231  0.1424  0.7493 -0.5430
 8076TIP3    H145719   3.024   5.598   4.242  0.1809  0.6136 -1.1511
 8076TIP3    H245720   2.899   5.567   4.162  0.0244  1.7745 -1.3793
 8077TIP3   OH245721   1.457   2.964   0.856 -0.3953  0.0030 -0.1242
 8077TIP3    H145722   1.444   2.991   0.947 -0.2216  0.4492 -0.2332
 8077TIP3    H245723   1.544   2.924   0.855 -0.1617  0.5028 -0.2076
 8078TIP3   OH245724   1.229   3.038   2.093  0.3217 -0.0433 -0.2046
 8078TIP3    H145725   1.213   3.007   2.003 -0.1724 -0.3872 -0.0050
 8078TIP3    H245726   1.295   2.977   2.127 -0.0241 -0.3675 -0.0983
 8079TIP3   OH245727   2.964   0.154  11.135 -0.3815  0.2330 -0.2305
 8079TIP3    H145728   3.038   0.094  11.149 -1.1459 -1.0239 -1.3781
 8079TIP3    H245729   2.925   0.165  11.222 -0.6375 -1.4882 -0.1073
 8080TIP3   OH245730   1.528   5.386   5.264  0.7081 -0.1644 -0.0116
 8080TIP3    H145731   1.592   5.316   5.279  0.2015 -0.5812  0.2086
 8080TIP3    H245732   1.490   5.366   5.178  0.9098  0.1162 -0.1691
 8081TIP3   OH245733   1.571   6.025  14.606 -0.1984  0.3912  0.3381
 8081TIP3    H145734   1.645   6.086  14.609  0.3351 -0.2116 -0.2381
 8081TIP3    H245735   1.533   6.037  14.519  0.1209 -0.3308  0.0910
 8082TIP3   OH245736   5.406   1.445   5.300  0.4313  0.0477  0.4747
 8082TIP3    H145737   5.325   1.424   5.346 -0.8480 -0.3974 -1.8400
 8082TIP3    H245738   5.412   1.380   5.231  1.4459  1.5540 -0.9380
 8083TIP3   OH245739   0.599   5.764  15.380 -0.3289 -0.3074  0.6472
 8083TIP3    H145740   0.618   5.803  15.295 -1.9644 -1.1940 -0.1894
 8083TIP3    H245741   0.625   5.830  15.444  2.9640 -0.4474 -0.3687
 8084TIP3   OH245742   3.486   4.205  12.609  0.6658  0.2442  0.1791
 8084TIP3    H145743   3.521   4.122  12.578  0.7630  0.2986  0.1447
 8084TIP3    H245744   3.394   4.204  12.584 -0.0295 -1.0233  2.4652
 8085TIP3   OH245745   5.340   2.949   0.247 -0.2795  0.9063 -0.0863
 8085TIP3    H145746   5.265   2.918   0.196  1.1086  0.3232 -1.8788
 8085TIP3    H245747   5.383   2.870   0.279  0.4375  1.1559 -0.4048
 8086TIP3   OH245748   6.574   5.528  15.866 -0.0618  0.7135  0.5103
 8086TIP3    H145749   6.649   5.527  15.807  0.1239  0.1739  0.7444
 8086TIP3    H245750   6.564   5.619  15.891  1.8842  0.5282  2.1817
 8087TIP3   OH245751   1.022   6.210   0.121  0.3264  0.0940 -0.4005
 8087TIP3    H145752   1.020   6.305   0.109 -1.9646  0.3573  1.2991
 8087TIP3    H245753   1.078   6.196   0.198 -0.1987  0.1767 -0.0010
 8088TIP3   OH245754   1.268   6.492  11.056  0.8614 -0.2341  0.2958
 8088TIP3    H145755   1.312   6.500  10.971  0.3424  1.0860  0.1200
 8088TIP3    H245756   1.338   6.471  11.117  1.0421 -2.6820 -0.6444
 8089TIP3   OH245757   1.582   5.144  13.730 -0.0900  0.5212 -0.1504
 8089TIP3    H145758   1.650   5.210  13.723  0.1425  0.5595  1.8349
 8089TIP3    H245759   1.629   5.061  13.732 -0.2849  0.3736 -1.1903
 8090TIP3   OH245760   3.510   0.797   0.944  0.2783  0.4212 -0.0731
 8090TIP3    H145761   3.436   0.788   0.884 -0.2327  0.9058  0.4678
 8090TIP3    H245762   3.584   0.759   0.897 -0.7242 -2.0982  0.1821
 8091TIP3   OH245763   0.905   0.253  11.878 -0.1879  0.9406  0.6865
 8091TIP3    H145764   0.830   0.297  11.839 -1.0915 -0.2262  1.0510
 8091TIP3    H245765   0.906   0.283  11.969 -0.7827  0.2708  0.9257
 8092TIP3   OH245766   1.652   0.924  12.516 -0.2457  0.4022  0.3739
 8092TIP3    H145767   1.600   0.988  12.469 -0.1605  0.0514 -0.2020
 8092TIP3    H245768   1.590   0.856  12.540 -0.6165  1.3073  2.1607
 8093TIP3   OH245769   4.977   2.899  11.006 -0.4890  0.0654 -0.2148
 8093TIP3    H145770   4.923   2.967  11.047 -1.7816  0.3459 -2.2520
 8093TIP3    H245771   4.948   2.896  10.915  3.5030  0.7869 -1.7213
 8094TIP3   OH245772   3.354   4.449   4.368  0.1679 -0.0116 -0.2747
 8094TIP3    H145773   3.318   4.421   4.284  0.3904 -1.3718  0.0446
 8094TIP3    H245774   3.447   4.426   4.363  0.0169 -0.9403  0.6353
 8095TIP3   OH245775   1.614   0.452   0.775 -0.0292 -0.0354  0.1111
 8095TIP3    H145776   1.564   0.508   0.834 -1.5047 -1.0014 -0.1739
 8095TIP3    H245777   1.629   0.505   0.698 -0.5463  0.2952  0.2358
 8096TIP3   OH245778   5.302   0.194  16.530  0.3442 -0.5750  0.1043
 8096TIP3    H145779   5.268   0.105  16.524  2.1903 -1.3983  1.0787
 8096TIP3    H245780   5.348   0.208  16.447  1.8457 -1.3586  0.7713
 8097TIP3   OH245781   3.750   5.307   6.146 -0.0099  0.3140  0.6096
 8097TIP3    H145782   3.737   5.248   6.220 -0.2271  0.3007  0.5634
 8097TIP3    H245783   3.697   5.384   6.166  0.7529  0.7602  0.9539
 8098TIP3   OH245784   4.661   4.263  17.181 -0.5271 -0.5624  0.3552
 8098TIP3    H145785   4.656   4.327  17.252  0.3869  1.6507 -1.4522
 8098TIP3    H245786   4.578   4.272  17.134  0.0300  0.1079 -0.5285
 8099TIP3   OH245787   2.981   5.504   3.666 -0.3847  0.3014 -0.6043
 8099TIP3    H145788   2.927   5.582   3.675 -1.2388 -0.2574 -0.7948
 8099TIP3    H245789   2.925   5.440   3.622  0.7798  0.0491 -1.7768
 8100TIP3   OH245790   4.503   2.580  11.316 -0.0684 -0.0405  0.3249
 8100TIP3    H145791   4.467   2.568  11.228  2.6671 -2.3128 -0.6510
 8100TIP3    H245792   4.559   2.657  11.309  0.6245 -0.5677 -0.1724
 8101TIP3   OH245793   0.654   3.851  16.020 -0.2791  0.3416  0.1039
 8101TIP3    H145794   0.631   3.880  16.108  0.1799 -0.6573  0.5705
 8101TIP3    H245795   0.748   3.865  16.014 -0.2750  0.2081 -0.1513
 8102TIP3   OH245796   4.392   3.984  10.550 -0.4781  0.0127  0.9841
 8102TIP3    H145797   4.437   3.913  10.505 -1.6316 -0.5274  0.6481
 8102TIP3    H245798   4.437   3.991  10.635 -0.6503 -1.4590  1.2300
 8103TIP3   OH245799   5.518   1.067  12.016 -0.2341 -0.0898 -0.1673
 8103TIP3    H145800   5.483   1.113  12.093  0.1603  1.6673 -0.9732
 8103TIP3    H245801   5.464   1.098  11.943  0.5594 -0.2806 -0.8569
 8104TIP3   OH245802   3.940   4.557  14.318  0.1406  0.0602  0.1458
 8104TIP3    H145803   3.988   4.637  14.339 -0.4908  0.7577 -0.9506
 8104TIP3    H245804   3.948   4.503  14.396  2.4500  0.2560  0.1125
 8105TIP3   OH245805   4.692   4.856  16.225  0.1640 -0.6729 -0.4162
 8105TIP3    H145806   4.787   4.863  16.233  0.0469 -0.0853  0.6479
 8105TIP3    H245807   4.671   4.771  16.265  0.1505 -0.3046  0.3938
 8106TIP3   OH245808   1.679   0.109  14.951 -0.2250  0.4669  0.2800
 8106TIP3    H145809   1.607   0.077  15.006 -0.3941  0.0219 -0.1872
 8106TIP3    H245810   1.660   0.201  14.936 -1.7398 -0.0459 -1.3832
 8107TIP3   OH245811   1.438   4.518   0.891  0.2860 -0.0157  0.8042
 8107TIP3    H145812   1.469   4.454   0.827 -0.9191 -0.7747  0.9641
 8107TIP3    H245813   1.447   4.602   0.846  0.4660 -0.4362  0.0332
 8108TIP3   OH245814   1.112   3.027   0.289  0.7954  0.2267 -0.4125
 8108TIP3    H145815   1.197   2.996   0.320 -0.0634 -2.3436 -0.3954
 8108TIP3    H245816   1.115   3.015   0.194  0.0217 -1.2211 -0.2882
 8109TIP3   OH245817   1.410   2.071   1.943  0.5112  0.4449  0.1670
 8109TIP3    H145818   1.375   1.994   1.897  0.1261  1.2939 -1.0129
 8109TIP3    H245819   1.500   2.078   1.912  1.0067 -0.3036  1.3357
 8110TIP3   OH245820   3.400   2.063   3.101  0.3122  0.2804  0.0763
 8110TIP3    H145821   3.471   2.127   3.108 -1.0990  1.7858  1.9139
 8110TIP3    H245822   3.399   2.018   3.185 -0.6410  0.0155 -0.0599
 8111TIP3   OH245823   0.865   2.883  14.586 -0.2171  0.1814  0.5219
 8111TIP3    H145824   0.862   2.820  14.514  1.1986  1.7752 -1.0278
 8111TIP3    H245825   0.945   2.862  14.633  1.0293  1.6262 -0.8557
 8112TIP3   OH245826   4.116   0.264   2.888 -0.3777 -0.1082 -0.0564
 8112TIP3    H145827   4.052   0.241   2.822  1.3691 -2.4969 -1.0684
 8112TIP3    H245828   4.117   0.190   2.948  1.3566 -0.1269 -0.0490
 8113TIP3   OH245829   5.338   6.720   4.388 -0.0574  0.3288  0.3319
 8113TIP3    H145830   5.392   6.656   4.342  0.0271  0.2193  0.5841
 8113TIP3    H245831   5.342   6.798   4.333 -0.3461  0.0476 -0.0922
 8114TIP3   OH245832   1.371   3.535  14.220  0.1567 -0.1603 -0.5572
 8114TIP3    H145833   1.407   3.617  14.254 -1.7017  0.0803  1.0370
 8114TIP3    H245834   1.336   3.559  14.134  2.9868 -0.2537 -1.8471
 8115TIP3   OH245835   5.167   3.356   4.563 -0.3497  0.0863  0.2948
 8115TIP3    H145836   5.142   3.447   4.545 -1.0929  0.1806  1.6482
 8115TIP3    H245837   5.226   3.362   4.638 -0.8096 -0.5771  0.7213
 8116TIP3   OH245838   3.033   1.662  16.894 -0.2831  0.0633 -0.4367
 8116TIP3    H145839   2.962   1.615  16.937 -0.4449  0.2471 -0.5028
 8116TIP3    H245840   3.065   1.601  16.828 -1.8733  0.7913 -1.9675
 8117TIP3   OH245841   3.539   4.119  15.816 -0.4255  0.0697 -0.0089
 8117TIP3    H145842   3.487   4.100  15.737 -2.6199 -0.8471  1.5481
 8117TIP3    H245843   3.527   4.213  15.830 -0.0644  0.2301 -0.7139
 8118TIP3   OH245844   4.294   4.900  14.285  0.1540 -0.2523 -0.2724
 8118TIP3    H145845   4.257   4.929  14.201 -1.1837 -0.3671  0.2547
 8118TIP3    H245846   4.337   4.978  14.320 -1.0481  0.3725 -0.1352
 8119TIP3   OH245847   4.766   1.712  12.834  0.1349  0.1883 -0.1546
 8119TIP3    H145848   4.750   1.795  12.789 -1.1983  0.1094  0.1501
 8119TIP3    H245849   4.787   1.737  12.924 -0.9384  0.1839  0.1100
 8120TIP3   OH245850   3.400   3.934  12.136 -0.4477 -0.1131 -0.0240
 8120TIP3    H145851   3.427   3.918  12.046  0.7200  2.0396 -0.1227
 8120TIP3    H245852   3.469   3.893  12.189  0.2803  0.8437 -0.1959
 8121TIP3   OH245853   3.246   1.975   5.078  0.3620  0.0360  0.2398
 8121TIP3    H145854   3.296   1.980   4.997 -0.5536  1.3119 -0.2835
 8121TIP3    H245855   3.219   1.884   5.084 -1.3261  0.2840 -2.0462
 8122TIP3   OH245856   5.208   3.118  17.142  0.2874  0.5208  0.1525
 8122TIP3    H145857   5.116   3.115  17.116  0.3034  1.5590 -0.0431
 8122TIP3    H245858   5.227   3.028  17.170 -0.5367  0.0825 -0.6212
 8123TIP3   OH245859   0.965   4.067   6.484 -0.4200 -0.4326  0.3415
 8123TIP3    H145860   0.963   4.144   6.540 -0.6085 -0.0795 -0.1461
 8123TIP3    H245861   0.929   4.096   6.401 -0.5395 -1.0604  0.1646
 8124TIP3   OH245862   5.554   0.104   2.875  0.0344  0.3035 -0.2943
 8124TIP3    H145863   5.498   0.031   2.848 -0.1475  0.4322 -0.2685
 8124TIP3    H245864   5.633   0.063   2.909 -0.3373  0.1000  0.3332
 8125TIP3   OH245865   3.607   0.720  14.614  0.1480  0.4851  0.3104
 8125TIP3    H145866   3.515   0.744  14.608  0.5723  2.1696 -0.0475
 8125TIP3    H245867   3.644   0.744  14.529  0.6944 -1.3401 -0.0158
 8126TIP3   OH245868   0.746   2.076   5.931 -0.7264 -0.2917  0.5774
 8126TIP3    H145869   0.825   2.121   5.898 -0.4384 -1.1606  0.0523
 8126TIP3    H245870   0.769   1.983   5.929 -1.6608 -0.5342  0.7190
 8127TIP3   OH245871   4.608   4.189  16.127 -0.2556  0.8408 -0.9811
 8127TIP3    H145872   4.618   4.095  16.137 -0.3874  0.8224 -1.0222
 8127TIP3    H245873   4.592   4.221  16.216  0.3061  0.8885 -0.8937
 8128TIP3   OH245874   5.523   3.570   0.088 -0.4629 -0.3850 -0.1267
 8128TIP3    H145875   5.465   3.545   0.160 -1.4996  0.4377 -0.6345
 8128TIP3    H245876   5.569   3.490   0.065 -1.1231 -0.9765  0.5539
 8129TIP3   OH245877   6.579   5.943  16.127 -0.5609  0.4987  0.4140
 8129TIP3    H145878   6.611   6.022  16.171 -0.9953  1.2674 -0.5982
 8129TIP3    H245879   6.512   5.975  16.066 -2.8152 -0.9583  1.9607
 8130TIP3   OH245880   4.852   2.243  16.714  0.5983 -0.1161  0.5466
 8130TIP3    H145881   4.880   2.195  16.636 -0.2563 -0.0440  0.1889
 8130TIP3    H245882   4.924   2.230  16.776  1.6548  0.4809 -0.5063
 8131TIP3   OH245883   6.099   5.513   1.027 -0.0546  0.4273  0.1700
 8131TIP3    H145884   6.188   5.479   1.028  0.1466  0.9450  0.9999
 8131TIP3    H245885   6.052   5.456   0.967  1.4210  1.6779 -2.3498
 8132TIP3   OH245886   0.014   6.442  16.948  0.9513  0.0111  0.4452
 8132TIP3    H145887  -0.054   6.442  17.015  1.0821 -0.6825  0.5919
 8132TIP3    H245888  -0.028   6.402  16.872  0.8829  0.5483  0.2025
 8133TIP3   OH245889   3.240   4.202  16.220 -0.1364  0.0965 -0.2261
 8133TIP3    H145890   3.322   4.248  16.240  0.3610 -1.4950  1.7224
 8133TIP3    H245891   3.230   4.212  16.125  2.7822 -0.3449 -0.6941
 8134TIP3   OH245892   6.503   0.383  15.974  0.1623  0.2355  0.0756
 8134TIP3    H145893   6.416   0.343  15.977  0.9469 -1.6348 -0.1668
 8134TIP3    H245894   6.563   0.308  15.970  1.7467  1.4749 -0.5387
 8135TIP3   OH245895   1.124   0.101  16.762 -0.0804 -0.4730  0.0133
 8135TIP3    H145896   1.068   0.046  16.707 -0.0423 -0.4706 -0.0284
 8135TIP3    H245897   1.177   0.151  16.700 -0.4504 -0.0358  0.0419
 8136TIP3   OH245898   6.171   4.704  11.752  0.1454  0.1919  0.1837
 8136TIP3    H145899   6.099   4.711  11.815  1.1670 -0.5956  1.5018
 8136TIP3    H245900   6.249   4.729  11.802  0.8272  0.9005 -1.1723
 8137TIP3   OH245901   5.264   6.298  10.700  0.3395  0.3631  0.2418
 8137TIP3    H145902   5.344   6.251  10.723 -1.1180 -1.6402  1.5874
 8137TIP3    H245903   5.223   6.244  10.633 -0.4866  0.7138  0.4532
 8138TIP3   OH245904   1.727   0.330  16.240  0.1646 -0.1605 -0.3060
 8138TIP3    H145905   1.662   0.277  16.286 -0.1262 -0.5382 -1.1261
 8138TIP3    H245906   1.686   0.416  16.230  0.8002  0.3807  1.3971
 8139TIP3   OH245907   3.827   0.695   3.137  0.1991 -0.2109 -0.4283
 8139TIP3    H145908   3.753   0.728   3.187  0.5905 -0.5083  0.3639
 8139TIP3    H245909   3.810   0.602   3.126  0.7615 -0.4129  0.3255
 8140TIP3   OH245910   3.176   4.582  13.051  0.5236  0.2451  0.0445
 8140TIP3    H145911   3.241   4.540  13.108  1.5969  2.2406  0.3717
 8140TIP3    H245912   3.225   4.607  12.973  0.1684  1.7437  0.2734
 8141TIP3   OH245913   4.586   5.480  17.113  0.4379 -0.2962  0.1532
 8141TIP3    H145914   4.643   5.421  17.162  0.3700 -1.3472 -0.9953
 8141TIP3    H245915   4.497   5.457  17.141  0.2691 -2.1511 -1.7184
 8142TIP3   OH245916   6.154   1.527  16.552  0.1008 -0.4108 -0.2970
 8142TIP3    H145917   6.092   1.583  16.504  0.3500 -0.0840 -0.2345
 8142TIP3    H245918   6.127   1.535  16.643 -1.0901 -1.9159 -0.4741
 8143TIP3   OH245919   1.354   0.019   5.739  0.2154  0.2673 -0.1039
 8143TIP3    H145920   1.424   0.007   5.804 -0.9188  3.8031  2.0428
 8143TIP3    H245921   1.282  -0.035   5.771  1.1401 -1.6414 -1.0978
 8144TIP3   OH245922   3.711   6.442   3.977 -0.6558 -0.0850  0.2723
 8144TIP3    H145923   3.641   6.463   4.039 -0.7254 -0.9619  0.5103
 8144TIP3    H245924   3.786   6.492   4.007 -0.6340 -0.6551  1.2045
 8145TIP3   OH245925   4.623   4.436   3.685  0.1721  0.2319 -0.2223
 8145TIP3    H145926   4.702   4.460   3.734 -0.2590  1.5550 -0.1423
 8145TIP3    H245927   4.643   4.457   3.594 -0.3222  1.2558 -0.1089
 8146TIP3   OH245928   5.743   5.469  11.775 -1.1507  0.1852  0.3679
 8146TIP3    H145929   5.706   5.475  11.863  0.0063 -0.3178  0.8974
 8146TIP3    H245930   5.735   5.558  11.740 -2.5204  0.1704  0.5871
 8147TIP3   OH245931   6.783   1.332   4.282 -0.3287 -0.2447 -0.1413
 8147TIP3    H145932   6.765   1.387   4.206  0.5676 -1.0617 -0.9670
 8147TIP3    H245933   6.725   1.256   4.271  1.3436 -1.4399 -1.2332
 8148TIP3   OH245934   6.456   5.725  16.025 -0.1184 -0.1397 -0.1429
 8148TIP3    H145935   6.508   5.792  16.069 -0.7225 -0.3450  0.9257
 8148TIP3    H245936   6.405   5.773  15.959  1.2890  0.0749 -1.1165
 8149TIP3   OH245937   0.856   2.173  11.382 -0.6772 -0.2662  0.0448
 8149TIP3    H145938   0.930   2.121  11.412  0.0110  0.7824  0.2019
 8149TIP3    H245939   0.890   2.225  11.309 -1.2083  0.3354  0.2131
 8150TIP3   OH245940   1.069   3.494   5.712  0.6441  0.6504 -0.0300
 8150TIP3    H145941   1.014   3.492   5.790 -1.5028  0.8267 -1.4517
 8150TIP3    H245942   1.068   3.586   5.685 -0.1132  0.3267 -1.1981
 8151TIP3   OH245943   1.959   6.204   5.535  0.4808 -0.1431  0.0533
 8151TIP3    H145944   1.975   6.116   5.503  2.6204  0.2838 -0.2267
 8151TIP3    H245945   2.038   6.226   5.584  0.9663  2.3384 -1.6339
 8152TIP3   OH245946   5.262   2.490   6.144 -0.0213  0.4706  0.1587
 8152TIP3    H145947   5.267   2.568   6.089  0.6881  0.3062 -0.0227
 8152TIP3    H245948   5.322   2.428   6.103 -0.9684 -0.3621  0.0112
 8153TIP3   OH245949   5.072   3.113   3.923  0.7682 -0.3453 -0.2137
 8153TIP3    H145950   5.145   3.091   3.980  1.3273  0.6326 -0.5355
 8153TIP3    H245951   5.018   3.173   3.975 -0.0143 -1.3349  0.1546
 8154TIP3   OH245952   3.196   3.648   3.651  0.3262 -0.4717 -0.3316
 8154TIP3    H145953   3.165   3.735   3.627  1.4106  0.0884  0.2143
 8154TIP3    H245954   3.287   3.645   3.620 -0.2091 -2.0794 -1.9549
 8155TIP3   OH245955   2.081   3.224  13.472  0.6259  0.4726 -0.5824
 8155TIP3    H145956   2.101   3.155  13.536 -0.3251 -0.0217 -0.7965
 8155TIP3    H245957   2.140   3.206  13.399  0.7137  0.1731 -0.4424
 8156TIP3   OH245958   0.125   3.641   5.917 -0.4106  0.2281  0.1324
 8156TIP3    H145959   0.046   3.613   5.963  0.4427  1.5154  2.5925
 8156TIP3    H245960   0.192   3.579   5.945 -0.0334  0.5609 -0.0260
 8157TIP3   OH245961   1.198   5.409  16.712  0.6247  0.1831  0.2938
 8157TIP3    H145962   1.248   5.416  16.794  2.4648  1.9629 -0.8964
 8157TIP3    H245963   1.259   5.438  16.644 -0.9165 -1.0456 -1.7207
 8158TIP3   OH245964   3.735   1.046   0.923 -0.0473  0.6894 -0.6049
 8158TIP3    H145965   3.741   1.024   0.830 -1.7965 -1.8422 -0.2202
 8158TIP3    H245966   3.724   0.962   0.967 -1.1984  1.9477  1.7058
 8159TIP3   OH245967   1.814   1.787  16.300  0.3775  0.0426  0.3749
 8159TIP3    H145968   1.822   1.775  16.206  1.0868 -0.3219  0.4747
 8159TIP3    H245969   1.719   1.784  16.317  0.3009 -1.2687 -0.1502
 8160TIP3   OH245970   3.464   3.856  10.645 -0.4486  0.0032  0.1538
 8160TIP3    H145971   3.530   3.869  10.713 -1.1452  0.2599  0.7951
 8160TIP3    H245972   3.390   3.815  10.690 -1.1867  0.7889 -0.2959
 8161TIP3   OH245973   4.156   2.208   3.887  0.2367 -0.3819  0.1528
 8161TIP3    H145974   4.068   2.178   3.912 -0.0374 -0.8488 -1.2948
 8161TIP3    H245975   4.141   2.268   3.814  1.1364 -0.6930 -0.2964
 8162TIP3   OH245976   2.428   2.091  11.717 -0.1041 -0.0226 -0.2829
 8162TIP3    H145977   2.392   2.017  11.669 -1.8471 -0.0112  0.9160
 8162TIP3    H245978   2.521   2.070  11.728 -0.2623 -1.3173 -1.2256
 8163TIP3   OH245979   6.491   0.130   0.702  0.4723 -0.2476  0.0862
 8163TIP3    H145980   6.417   0.132   0.641  1.9337  3.5717 -1.9164
 8163TIP3    H245981   6.451   0.129   0.789 -2.0033  1.7301 -0.9123
 8164TIP3   OH245982   3.274   3.917  10.869 -0.1382 -0.1464 -0.2509
 8164TIP3    H145983   3.327   3.839  10.881  0.5156  0.4586  1.0565
 8164TIP3    H245984   3.226   3.902  10.788  3.4124  0.0731 -2.6195
 8165TIP3   OH245985   3.844   6.066  15.934 -0.0234 -0.2190  0.1764
 8165TIP3    H145986   3.756   6.062  15.897 -0.0535 -2.0515  0.3697
 8165TIP3    H245987   3.885   5.984  15.908  0.5999 -0.7681  2.5926
 8166TIP3   OH245988   6.027   5.652   5.816  0.7733  0.6734  0.2633
 8166TIP3    H145989   5.989   5.611   5.894  0.5458 -1.0018 -0.6946
 8166TIP3    H245990   5.952   5.691   5.771 -0.4448 -3.9861 -2.4709
 8167TIP3   OH245991   4.121   1.379   6.643  1.1149 -0.3442 -0.4517
 8167TIP3    H145992   4.183   1.397   6.715 -0.2350 -1.3732  1.0292
 8167TIP3    H245993   4.052   1.444   6.655  1.0657 -0.2777 -1.0827
 8168TIP3   OH245994   1.474   5.725   3.375 -0.0496 -0.0185 -0.4600
 8168TIP3    H145995   1.425   5.651   3.409  1.0938  0.0762  1.5649
 8168TIP3    H245996   1.415   5.800   3.385 -0.0193 -0.1290  0.6918
 8169TIP3   OH245997   5.510   5.658  13.394 -0.1258 -0.6481  0.5192
 8169TIP3    H145998   5.478   5.592  13.333  2.2095 -0.1642 -1.3926
 8169TIP3    H245999   5.563   5.609  13.458 -0.5475 -0.8970  0.6782
 8170TIP3   OH246000   3.551   4.844   2.785 -0.1440 -0.0923 -0.3392
 8170TIP3    H146001   3.550   4.927   2.738  0.0780 -0.9439 -1.9325
 8170TIP3    H246002   3.521   4.780   2.720  0.5318 -1.3848  0.5893
 8171TIP3   OH246003   1.254   1.559  13.377  0.3382  0.2758 -0.1504
 8171TIP3    H146004   1.238   1.482  13.431  2.4372  1.7395  2.8420
 8171TIP3    H246005   1.170   1.605  13.375  0.0998 -0.0099  1.6662
 8172TIP3   OH246006   4.292   0.486   0.918  0.1822  0.6727  0.6195
 8172TIP3    H146007   4.275   0.426   0.991  0.2048 -2.0023 -1.4566
 8172TIP3    H246008   4.375   0.528   0.941  1.0671 -1.3823  1.3910
 8173TIP3   OH246009   1.194   0.999  11.820 -0.6006 -0.2965 -0.1339
 8173TIP3    H146010   1.205   1.049  11.739  0.2735 -0.5366 -0.1737
 8173TIP3    H246011   1.129   1.048  11.870 -1.2081 -0.1819 -1.0074
 8174TIP3   OH246012   2.442   1.673  17.063  0.0306 -0.1416  0.7760
 8174TIP3    H146013   2.512   1.696  17.124  0.1045  0.0500  0.6208
 8174TIP3    H246014   2.414   1.585  17.090  1.8680 -1.1997 -0.5776
 8175TIP3   OH246015   0.773   4.619  15.520 -0.2530  0.4107 -0.0666
 8175TIP3    H146016   0.783   4.699  15.469 -0.1618  0.2729 -0.2636
 8175TIP3    H246017   0.679   4.613  15.536 -0.2731  0.4950 -0.1512
 8176TIP3   OH246018   5.520   4.897   1.921  0.2464 -0.6750  0.1101
 8176TIP3    H146019   5.549   4.895   2.012  0.1205  1.2322  0.2325
 8176TIP3    H246020   5.566   4.972   1.883 -0.4104 -0.8912 -1.1561
 8177TIP3   OH246021   2.345   5.619   1.390  0.0571  0.0514  0.2098
 8177TIP3    H146022   2.359   5.559   1.463 -3.1642 -1.3992 -0.2106
 8177TIP3    H246023   2.400   5.585   1.320  0.2409 -0.8406  0.7744
 8178TIP3   OH246024   3.321   1.587   5.986 -0.5526  0.2605  0.2489
 8178TIP3    H146025   3.255   1.656   5.994 -0.3295  0.4986  0.0787
 8178TIP3    H246026   3.402   1.629   6.013 -0.2603  0.3185 -0.6852
 8179TIP3   OH246027   4.197   6.745  13.203 -0.2894  0.0938  0.2749
 8179TIP3    H146028   4.137   6.678  13.237 -1.2497  0.9521  0.3340
 8179TIP3    H246029   4.261   6.759  13.272 -0.8983  0.2055  0.8275
 8180TIP3   OH246030   6.083   5.208  16.640 -0.3187  0.2247  0.2991
 8180TIP3    H146031   6.146   5.262  16.687  1.0679 -1.8872  1.0366
 8180TIP3    H246032   6.033   5.163  16.708 -1.4281  0.5269 -0.2862
 8181TIP3   OH246033   2.421   0.966  12.894 -0.2583 -0.2623 -0.5128
 8181TIP3    H146034   2.342   0.912  12.883 -1.1506  0.7823  0.5605
 8181TIP3    H246035   2.429   1.014  12.811 -1.4302  0.4789 -0.2165
 8182TIP3   OH246036   1.182   3.884   1.139 -1.0486 -0.3976 -0.8175
 8182TIP3    H146037   1.271   3.908   1.110 -0.7035  0.3875  0.7470
 8182TIP3    H246038   1.134   3.867   1.058  0.1126  0.6938 -1.7858
 8183TIP3   OH246039   4.054   0.120   1.398 -0.2245 -0.1046 -0.6908
 8183TIP3    H146040   4.110   0.176   1.452  0.4904 -1.7107  0.2908
 8183TIP3    H246041   4.028   0.176   1.325  1.5795  1.1084 -0.4719
 8184TIP3   OH246042   0.163   0.238  12.373  0.6033 -0.2765 -0.7989
 8184TIP3    H146043   0.089   0.182  12.396  0.8783  0.0066  0.8980
 8184TIP3    H246044   0.228   0.179  12.334  0.2458 -0.8427 -0.5465
 8185TIP3   OH246045   0.149   1.391   0.988  0.0402 -0.2485  0.2732
 8185TIP3    H146046   0.140   1.413   1.080 -2.7603  1.6036 -0.3300
 8185TIP3    H246047   0.237   1.420   0.965  0.1862  0.7974  1.9807
 8186TIP3   OH246048   3.210   1.674  11.412 -0.6758 -0.2274 -0.5044
 8186TIP3    H146049   3.262   1.594  11.419 -0.7498 -0.2529 -0.2528
 8186TIP3    H246050   3.207   1.692  11.318  1.7110  1.0118 -0.4261
 8187TIP3   OH246051   0.790   6.667   0.731 -0.1433 -0.3319 -0.4635
 8187TIP3    H146052   0.869   6.688   0.781  0.4851 -0.0389 -1.5411
 8187TIP3    H246053   0.820   6.661   0.641 -1.3259 -0.4283 -0.8685
 8188TIP3   OH246054   4.636   1.209  14.735  1.0165  0.1973 -0.2575
 8188TIP3    H146055   4.707   1.240  14.679  1.6937 -0.6407  0.1278
 8188TIP3    H246056   4.667   1.222  14.824  0.0865  1.1826 -0.0480
 8189TIP3   OH246057   4.872   3.345  13.836 -0.2251 -0.0082  0.0297
 8189TIP3    H146058   4.796   3.400  13.856 -1.4074 -1.8485  0.8052
 8189TIP3    H246059   4.926   3.349  13.915  0.6052  1.4198 -0.5762
 8190TIP3   OH246060   0.975   1.947  16.604 -0.1327  0.1359  0.2243
 8190TIP3    H146061   0.895   1.926  16.556 -1.4036 -0.0417  2.3203
 8190TIP3    H246062   1.027   1.998  16.542 -1.3495 -0.6971 -1.5675
 8191TIP3   OH246063   3.357   5.790  15.599 -0.1840  0.0307  0.1238
 8191TIP3    H146064   3.451   5.786  15.617 -0.2763 -2.1418  0.3386
 8191TIP3    H246065   3.317   5.813  15.683  0.1375  0.9601  0.0316
 8192TIP3   OH246066   1.508   5.757   1.718 -0.2524  0.7973 -0.1484
 8192TIP3    H146067   1.569   5.711   1.777 -0.6059  1.1329  0.4910
 8192TIP3    H246068   1.423   5.749   1.761 -0.5754  0.7486 -0.7966
 8193TIP3   OH246069   6.667   3.113   5.944  0.2173  0.7623 -0.7923
 8193TIP3    H146070   6.731   3.154   6.002 -0.7157  0.6120  0.3739
 8193TIP3    H246071   6.689   3.020   5.946 -1.7097  0.2749  1.8844
 8194TIP3   OH246072   6.212   1.964  16.168  0.6192 -0.1322  0.5471
 8194TIP3    H146073   6.275   1.976  16.097 -0.3309  0.2173 -0.2517
 8194TIP3    H246074   6.202   2.051  16.207  1.5893 -0.4318  1.5318
 8195TIP3   OH246075   2.919   5.889   4.222 -0.5461  0.0302 -0.2876
 8195TIP3    H146076   2.948   5.799   4.235 -0.8745 -0.2651 -1.4447
 8195TIP3    H246077   2.991   5.943   4.256  0.2067 -0.6794 -0.7210
 8196TIP3   OH246078   2.306   3.848   4.800 -0.4072  0.7547  0.6228
 8196TIP3    H146079   2.401   3.852   4.815 -0.5038  0.8079  1.2345
 8196TIP3    H246080   2.296   3.782   4.731 -0.0362 -0.3770  1.6146
 8197TIP3   OH246081   3.691   2.014   3.655 -0.3945 -0.5884 -0.0500
 8197TIP3    H146082   3.751   2.080   3.619 -0.9936 -1.0131 -1.9699
 8197TIP3    H246083   3.742   1.933   3.655 -0.4027 -0.5935  0.0317
 8198TIP3   OH246084   1.757   3.046  15.349  0.0503  0.2931 -0.2115
 8198TIP3    H146085   1.689   3.059  15.282  0.6398  1.4677 -0.6098
 8198TIP3    H246086   1.745   3.119  15.409  0.8878  0.4611 -0.2365
 8199TIP3   OH246087   2.012   1.250  14.213 -0.5967  0.1483 -0.7571
 8199TIP3    H146088   1.930   1.273  14.169 -1.4719  0.5680  0.9944
 8199TIP3    H246089   2.001   1.284  14.302  1.3677 -0.0730 -0.3963
 8200TIP3   OH246090   1.970   1.237  13.477 -0.3310  0.1622 -0.2137
 8200TIP3    H146091   1.959   1.285  13.559  0.0417  1.2982 -0.8003
 8200TIP3    H246092   1.906   1.167  13.482  0.0231 -0.0944  1.2593
 8201TIP3   OH246093   2.653   3.343  12.126  0.3037 -0.5091  0.2788
 8201TIP3    H146094   2.643   3.259  12.171 -0.3369 -1.2583 -1.2142
 8201TIP3    H246095   2.684   3.320  12.038  0.2558  0.8285 -0.1036
 8202TIP3   OH246096   0.927   5.891  14.911 -0.0251 -0.0440 -0.2492
 8202TIP3    H146097   0.920   5.918  15.002  1.4186 -1.2800  0.2750
 8202TIP3    H246098   0.983   5.813  14.913  0.0665 -0.0868 -2.1916
 8203TIP3   OH246099   5.519   5.785  12.426  0.0027 -0.1882  0.1074
 8203TIP3    H146100   5.544   5.846  12.356  0.2551 -0.6837 -0.2367
 8203TIP3    H246101   5.466   5.838  12.486 -1.2837 -0.0613 -1.0980
 8204TIP3   OH246102   1.320   4.940  16.427 -0.4334  0.4325  0.6098
 8204TIP3    H146103   1.409   4.935  16.461 -0.4415  1.8443  0.9072
 8204TIP3    H246104   1.286   4.851  16.435  1.5293 -0.5625 -1.1901
 8205TIP3   OH246105   1.439   6.643  12.381 -0.2875  0.0019 -0.4483
 8205TIP3    H146106   1.511   6.676  12.434 -0.9077  2.3247 -0.9574
 8205TIP3    H246107   1.391   6.584  12.440  0.8995 -0.0577  0.4909
 8206TIP3   OH246108   1.895   5.545  15.191 -0.0336  0.3152  0.4982
 8206TIP3    H146109   1.810   5.588  15.183 -0.3374 -0.4185 -0.3756
 8206TIP3    H246110   1.878   5.470  15.249 -0.5136 -1.0528 -1.2962
 8207TIP3   OH246111   1.758   4.342  11.556  0.0261  0.6653  0.2036
 8207TIP3    H146112   1.721   4.291  11.627  1.5446  0.6716  1.0469
 8207TIP3    H246113   1.703   4.322  11.480  0.4310 -2.0648  0.5325
 8208TIP3   OH246114   4.770   1.896   2.296 -0.0383  0.1144 -0.1160
 8208TIP3    H146115   4.814   1.975   2.264 -0.7852 -0.3202 -2.4137
 8208TIP3    H246116   4.747   1.848   2.217 -0.5652 -1.9019  1.1943
 8209TIP3   OH246117   1.458   1.334   2.192  0.4374  0.2819  0.2260
 8209TIP3    H146118   1.450   1.263   2.128 -0.5065  0.2820  0.3284
 8209TIP3    H246119   1.525   1.392   2.155 -0.5223  0.5912 -1.0704
 8210TIP3   OH246120   1.573   4.081   2.168  0.1330 -0.1204  0.0017
 8210TIP3    H146121   1.565   4.124   2.083 -0.0996 -0.9791 -0.4254
 8210TIP3    H246122   1.566   3.988   2.148 -0.6912 -0.2999  1.0497
 8211TIP3   OH246123   6.190   3.835  14.724 -0.1254 -0.3081 -0.1164
 8211TIP3    H146124   6.257   3.793  14.670  0.5951  0.5705  0.0537
 8211TIP3    H246125   6.143   3.892  14.664  0.5716  0.5476  0.1300
 8212TIP3   OH246126   2.026   4.823   2.053 -0.1515 -0.1196  0.2109
 8212TIP3    H146127   1.974   4.849   1.977 -0.9416 -0.2937  0.6771
 8212TIP3    H246128   2.023   4.899   2.111 -0.6375 -0.4363  0.6202
 8213TIP3   OH246129   0.649   5.467   5.130 -0.8145 -0.1938 -0.1782
 8213TIP3    H146130   0.666   5.511   5.048 -2.8548  0.1699 -0.4589
 8213TIP3    H246131   0.730   5.476   5.180 -0.2037  1.2745 -1.3759
 8214TIP3   OH246132   3.596   1.379   2.934 -0.3770  0.3597  0.9393
 8214TIP3    H146133   3.685   1.346   2.927 -0.5532  0.2001 -0.9092
 8214TIP3    H246134   3.605   1.458   2.988  0.6432 -0.3900  1.9339
 8215TIP3   OH246135   3.995   5.860  14.017 -0.1026 -0.2096 -0.3281
 8215TIP3    H146136   4.037   5.856  13.931 -2.2942  1.2877 -1.5449
 8215TIP3    H246137   3.940   5.938  14.014  1.1662  1.0048  3.1467
 8216TIP3   OH246138   1.873   2.179  17.142 -0.2440 -0.0550  0.0568
 8216TIP3    H146139   1.804   2.196  17.207  0.3000 -0.9657  0.9113
 8216TIP3    H246140   1.865   2.085  17.124  1.4343 -0.4227  1.0019
 8217TIP3   OH246141   5.461   5.038   4.173 -0.1454  0.0719 -0.5076
 8217TIP3    H146142   5.467   4.953   4.217 -1.9763 -0.1614 -0.6484
 8217TIP3    H246143   5.540   5.044   4.120 -0.8667 -2.4311 -2.0196
 8218TIP3   OH246144   5.258   2.100   1.869  0.2278 -0.3779 -0.6803
 8218TIP3    H146145   5.269   2.192   1.845  0.6987  0.3783  2.0891
 8218TIP3    H246146   5.183   2.099   1.928  1.6048 -1.3451  1.1647
 8219TIP3   OH246147   2.614   6.477   2.141  0.1470  0.2105 -0.3774
 8219TIP3    H146148   2.640   6.568   2.152 -1.3631  0.5912  0.2162
 8219TIP3    H246149   2.559   6.458   2.217 -1.5104 -0.4607 -1.6720
 8220TIP3   OH246150   3.365   4.909  13.349 -0.1376  0.0954  0.0222
 8220TIP3    H146151   3.270   4.910  13.344 -0.2416  1.7687  1.2877
 8220TIP3    H246152   3.385   4.956  13.430  1.8269  2.1716 -1.5290
 8221TIP3   OH246153   1.391   6.025  13.160 -0.0949 -0.4661 -0.0953
 8221TIP3    H146154   1.387   5.979  13.076  0.3663  1.0595 -1.0020
 8221TIP3    H246155   1.459   5.979  13.209 -0.9226 -1.8737 -0.2127
 8222TIP3   OH246156   6.630   5.868  11.476  0.3214  0.0351  0.1203
 8222TIP3    H146157   6.615   5.853  11.383  0.7537  0.4652 -0.0275
 8222TIP3    H246158   6.573   5.942  11.498  1.5810  1.1599 -0.2589
 8223TIP3   OH246159   6.425   5.619   0.802  0.4897  0.3395  0.2904
 8223TIP3    H146160   6.483   5.695   0.801 -2.5352  2.8194  0.9223
 8223TIP3    H246161   6.359   5.637   0.736 -0.9693 -1.1706  1.2507
 8224TIP3   OH246162   2.031   0.834   1.597 -0.5795 -0.5323 -0.0748
 8224TIP3    H146163   2.100   0.768   1.602  0.9488  1.0296  0.9287
 8224TIP3    H246164   2.013   0.844   1.504  0.9652 -0.6075 -0.4045
 8225TIP3   OH246165   4.146   3.881  13.018 -0.1806 -0.1258  0.4604
 8225TIP3    H146166   4.058   3.912  12.994  0.1994  1.2419  0.7202
 8225TIP3    H246167   4.132   3.827  13.096 -0.6874  1.0220  1.1893
 8226TIP3   OH246168   4.333   4.033  16.742 -0.0619  0.0578  0.4004
 8226TIP3    H146169   4.255   3.991  16.708 -0.3975  0.0972  1.1136
 8226TIP3    H246170   4.316   4.127  16.733  0.6640  0.0772 -1.1427
 8227TIP3   OH246171   2.235   4.800   4.319 -0.5762  0.0927  0.1353
 8227TIP3    H146172   2.260   4.780   4.228 -1.0785 -1.3074  0.2858
 8227TIP3    H246173   2.207   4.716   4.355 -0.3276  0.6297  1.6188
 8228TIP3   OH246174   5.285   4.455   5.413 -0.2937  0.6451 -0.3016
 8228TIP3    H146175   5.273   4.391   5.343 -1.8194  0.8013 -0.2185
 8228TIP3    H246176   5.362   4.505   5.387  0.6716 -0.9308 -0.5791
 8229TIP3   OH246177   3.248   2.242  12.935 -0.0507  0.2740 -0.0206
 8229TIP3    H146178   3.333   2.254  12.892 -0.1285 -0.7263 -0.4804
 8229TIP3    H246179   3.186   2.231  12.864 -0.9153  2.8246  0.2605
 8230TIP3   OH246180   1.700   6.453   0.773  0.3472  0.3964 -0.0587
 8230TIP3    H146181   1.641   6.480   0.703  1.2902 -0.1733 -1.1068
 8230TIP3    H246182   1.686   6.518   0.842 -0.8446  0.7792 -0.6323
 8231TIP3   OH246183   5.963   0.230  12.383  0.0108 -0.1093  0.5096
 8231TIP3    H146184   6.012   0.281  12.319  2.1050 -2.7765 -0.1955
 8231TIP3    H246185   6.002   0.252  12.467  1.1059 -0.7308  0.1770
 8232TIP3   OH246186   2.338   1.519   3.993  0.0110  0.6202 -1.0333
 8232TIP3    H146187   2.405   1.510   3.926 -0.8335  0.0955 -1.8348
 8232TIP3    H246188   2.322   1.613   4.000 -0.5443  0.6341 -2.2517
 8233TIP3   OH246189   5.337   3.154  16.473 -0.4308  0.1880  0.2015
 8233TIP3    H146190   5.428   3.165  16.446  0.0274 -0.0485  1.5594
 8233TIP3    H246191   5.294   3.113  16.398  0.4972  0.6173 -0.5844
 8234TIP3   OH246192   0.620   3.264   6.009 -0.3714 -0.4988 -0.4021
 8234TIP3    H146193   0.709   3.234   5.997 -0.4806 -0.5694 -1.0521
 8234TIP3    H246194   0.627   3.335   6.073  0.3995  0.7243 -1.7795
 8235TIP3   OH246195   5.374   2.819  13.611 -0.2890  0.1716  0.0592
 8235TIP3    H146196   5.339   2.744  13.660  0.3346 -0.0903  0.1031
 8235TIP3    H246197   5.438   2.859  13.669  0.9912 -0.5706 -0.8126
 8236TIP3   OH246198   2.621   2.631  16.787 -0.2587 -0.5275  0.1747
 8236TIP3    H146199   2.689   2.698  16.774 -1.0516  0.2670 -0.0296
 8236TIP3    H246200   2.590   2.612  16.698 -0.3097 -0.8713  0.2677
 8237TIP3   OH246201   3.447   0.114   1.894 -0.3547 -0.0332  0.8587
 8237TIP3    H146202   3.498   0.040   1.929  1.5729  0.2095 -1.2319
 8237TIP3    H246203   3.404   0.078   1.816  0.4893  0.9797 -0.0982
 8238TIP3   OH246204   1.336   4.756  11.552  0.3089 -0.0310  0.2763
 8238TIP3    H146205   1.387   4.699  11.610 -0.0715  0.3505  0.9938
 8238TIP3    H246206   1.389   4.836  11.544  1.4520 -0.9115 -1.7320
 8239TIP3   OH246207   6.559   0.884   2.828 -0.6099 -0.0046 -0.4626
 8239TIP3    H146208   6.624   0.813   2.826 -0.0735  0.4258  0.9174
 8239TIP3    H246209   6.536   0.896   2.736  3.1864  1.5507 -1.4305
 8240TIP3   OH246210   5.363   4.277   5.986 -0.1817 -0.1765 -0.3655
 8240TIP3    H146211   5.337   4.221   6.059  0.4292  0.0388  0.0283
 8240TIP3    H246212   5.283   4.288   5.935 -1.0344  0.9564  1.1282
 8241TIP3   OH246213   1.363   2.737   0.335 -0.3055 -0.1843 -0.1641
 8241TIP3    H146214   1.431   2.710   0.272  0.2569 -0.9880  0.7649
 8241TIP3    H246215   1.299   2.666   0.333 -0.5351  0.0244 -0.1944
 8242TIP3   OH246216   2.080   6.584  16.588 -0.5345 -0.2919  0.0875
 8242TIP3    H146217   2.160   6.571  16.538  0.2049  0.7906  0.9228
 8242TIP3    H246218   2.009   6.563  16.527  0.2866  1.6236 -1.6500
 8243TIP3   OH246219   3.040   0.706   0.119 -0.1690  0.4876 -0.2220
 8243TIP3    H146220   2.997   0.751   0.192  0.3286  0.0010  0.3852
 8243TIP3    H246221   3.057   0.618   0.153 -1.7381 -0.4049 -1.6020
 8244TIP3   OH246222   2.470   4.959  11.007  0.7265  0.0157  0.7524
 8244TIP3    H146223   2.473   5.044  10.963 -0.7837  0.1952  0.9336
 8244TIP3    H246224   2.416   4.975  11.085 -0.5007 -1.3262  0.2305
 8245TIP3   OH246225   5.120   0.568   4.869 -0.0956  0.5025 -0.0570
 8245TIP3    H146226   5.080   0.631   4.809 -0.3690  1.2050  0.8346
 8245TIP3    H246227   5.213   0.592   4.871 -0.0120  0.2297 -0.4851
 8246TIP3   OH246228   0.896   6.267   3.914 -0.3041  0.0118  0.2907
 8246TIP3    H146229   0.940   6.269   3.829  0.7288  0.4994  0.8143
 8246TIP3    H246230   0.933   6.190   3.959  0.6978  0.9055  1.0612
 8247TIP3   OH246231   1.310   0.593  12.899  0.0561  0.3665 -0.2045
 8247TIP3    H146232   1.302   0.565  12.990 -0.5669  1.1454 -0.0082
 8247TIP3    H246233   1.401   0.621  12.890  0.0751  0.4436  0.2269
 8248TIP3   OH246234   3.813   3.564  16.349  0.3666 -0.1282  0.2161
 8248TIP3    H146235   3.781   3.528  16.432  0.6869 -2.1910 -0.5195
 8248TIP3    H246236   3.783   3.655  16.350  1.3261  0.2889  3.1083
 8249TIP3   OH246237   4.103   1.147   5.190 -0.0148  0.2592  0.1990
 8249TIP3    H146238   4.050   1.124   5.114 -0.3280  1.9804 -0.1495
 8249TIP3    H246239   4.040   1.155   5.262 -0.1669  1.5408 -0.0454
 8250TIP3   OH246240   0.457   0.753   5.286  0.1738 -0.2533 -0.2765
 8250TIP3    H146241   0.381   0.771   5.231  1.1236 -0.1668 -1.6006
 8250TIP3    H246242   0.420   0.714   5.366 -1.4944  2.4237  0.3842
 8251TIP3   OH246243   5.069   4.772   2.639 -0.3616 -0.2161 -1.0044
 8251TIP3    H146244   4.991   4.752   2.689 -0.4755  0.4181 -0.9270
 8251TIP3    H246245   5.139   4.780   2.704  0.1122 -2.2820 -1.1726
 8252TIP3   OH246246   1.938   4.391   3.053 -0.3980 -0.0812 -0.5885
 8252TIP3    H146247   1.991   4.373   2.975  0.3984  3.0632 -0.8786
 8252TIP3    H246248   1.981   4.341   3.123  0.1892 -1.1941 -1.7028
 8253TIP3   OH246249   5.657   6.672   5.637 -0.2411  0.2753  0.1309
 8253TIP3    H146250   5.736   6.618   5.638 -0.0150  0.5054 -1.8266
 8253TIP3    H246251   5.585   6.610   5.630 -0.0080  0.1669 -1.6324
 8254TIP3   OH246252   2.227   6.056   2.121 -0.4606  0.3492 -0.2764
 8254TIP3    H146253   2.154   6.098   2.167 -1.0726 -1.8315  0.8990
 8254TIP3    H246254   2.227   5.966   2.154  3.0551  0.3700  0.1308
 8255TIP3   OH246255   2.988   1.494  13.867  0.1335  0.0090 -0.1707
 8255TIP3    H146256   2.934   1.527  13.939 -0.1721  2.7595 -1.5375
 8255TIP3    H246257   2.925   1.451  13.808 -0.0359  0.1644 -0.1056
 8256TIP3   OH246258   3.463   6.081   1.320 -0.0604 -0.3701 -0.4108
 8256TIP3    H146259   3.526   6.085   1.248  0.9934  0.9843  0.5412
 8256TIP3    H246260   3.399   6.149   1.300 -0.5795 -0.9628 -0.7864
 8257TIP3   OH246261   0.963   4.580  13.025 -0.1194 -0.8143  0.1808
 8257TIP3    H146262   0.953   4.547  12.935 -0.9513 -0.0299 -0.0249
 8257TIP3    H246263   1.058   4.578  13.041  0.0719 -0.5773 -0.8622
 8258TIP3   OH246264   2.817   1.421   0.415  0.0594 -0.4673 -0.3633
 8258TIP3    H146265   2.812   1.368   0.494  2.7484  0.6929  0.7037
 8258TIP3    H246266   2.726   1.440   0.393 -0.7771 -0.7137  2.5243
 8259TIP3   OH246267   0.955   6.360   0.897 -0.7594 -0.4928  0.1516
 8259TIP3    H146268   0.862   6.345   0.908 -1.0424 -0.6007 -2.0042
 8259TIP3    H246269   0.974   6.332   0.807  1.2128  0.1004  0.3316
 8260TIP3   OH246270   4.682   5.047   0.977 -0.3750 -0.0802 -0.2819
 8260TIP3    H146271   4.739   5.091   1.040  0.4580 -1.0202 -0.3600
 8260TIP3    H246272   4.683   5.103   0.900  0.6779 -0.2231 -0.3823
 8261TIP3   OH246273   0.106   0.259  14.332 -0.2988  0.6975  0.4223
 8261TIP3    H146274   0.156   0.286  14.255 -0.4976 -0.8976 -0.3085
 8261TIP3    H246275   0.017   0.288  14.314 -0.3240  0.4208  0.0841
 8262TIP3   OH246276   3.336   2.057  14.979 -0.5964  0.1547 -0.2177
 8262TIP3    H146277   3.411   2.096  14.933  1.9523  3.5784  5.7007
 8262TIP3    H246278   3.270   2.127  14.979 -0.6335  0.1345  0.9683
 8263TIP3   OH246279   1.284   5.978  16.857  0.0851  0.4162 -0.0690
 8263TIP3    H146280   1.265   5.911  16.791  0.7708  0.4488 -0.3135
 8263TIP3    H246281   1.235   6.055  16.829 -2.0503 -0.4459  1.1170
 8264TIP3   OH246282   5.981   1.118   5.218 -0.1096  0.4947  0.0046
 8264TIP3    H146283   5.893   1.091   5.245  0.4414 -0.3722  1.0346
 8264TIP3    H246284   6.039   1.076   5.281  1.0802  0.7345 -0.8922
 8265TIP3   OH246285   5.946   1.813  14.080  0.1932  0.3322 -0.0089
 8265TIP3    H146286   5.912   1.879  14.021  0.1536 -0.8299 -1.3369
 8265TIP3    H246287   5.907   1.731  14.050  1.9499 -0.6251  0.1866
 8266TIP3   OH246288   6.693   1.615   3.210  0.1498  0.2590 -0.1099
 8266TIP3    H146289   6.756   1.543   3.209 -0.2587 -0.1006 -0.2097
 8266TIP3    H246290   6.615   1.580   3.167 -0.7110  0.1487  1.4554
 8267TIP3   OH246291   1.177   5.646  10.440 -0.3097  0.4421 -0.5987
 8267TIP3    H146292   1.271   5.646  10.455 -0.4317  1.5391  0.2693
 8267TIP3    H246293   1.167   5.626  10.347  0.7486 -0.1682 -0.5933
 8268TIP3   OH246294   0.131   6.592   0.700 -0.0528  0.2743 -0.6987
 8268TIP3    H146295   0.137   6.504   0.736 -0.4247  0.1324 -0.9722
 8268TIP3    H246296   0.094   6.645   0.771  1.1874  0.4510 -0.1560
 8269TIP3   OH246297   2.640   3.760   0.510  0.0989  0.5540 -0.3853
 8269TIP3    H146298   2.705   3.795   0.571 -0.0595 -0.5278  0.4314
 8269TIP3    H246299   2.564   3.739   0.565  0.5566 -2.0199 -0.6402
 8270TIP3   OH246300   5.602   5.769  15.612  0.5103  0.0911  0.3284
 8270TIP3    H146301   5.672   5.705  15.604  1.8650  1.7394 -3.1597
 8270TIP3    H246302   5.537   5.743  15.547  0.6355  1.6425 -0.4731
 8271TIP3   OH246303   2.895   0.950   4.170  0.0006  0.5302  0.1249
 8271TIP3    H146304   2.838   0.966   4.095  0.6605  1.5813 -0.1753
 8271TIP3    H246305   2.939   1.034   4.185  0.9686 -0.0734  0.7673
 8272TIP3   OH246306   4.470   6.064   4.482  0.1395  0.0291  0.0680
 8272TIP3    H146307   4.499   5.975   4.503  1.2587  0.4304  0.2840
 8272TIP3    H246308   4.457   6.064   4.387 -2.8724 -1.1968  0.3700
 8273TIP3   OH246309   4.600   0.650   1.867 -0.1477 -0.3868  0.3749
 8273TIP3    H146310   4.629   0.647   1.958 -0.0338  0.8157  0.3931
 8273TIP3    H246311   4.610   0.742   1.842 -0.7009 -0.6038 -0.6812
 8274TIP3   OH246312   6.090   6.000  11.548 -0.1670 -0.0438 -0.1330
 8274TIP3    H146313   6.119   5.935  11.485 -0.7569 -0.7245  0.2842
 8274TIP3    H246314   6.037   6.061  11.496  0.1748 -0.0321 -0.4741
 8275TIP3   OH246315   2.899   2.261  16.415 -0.2288  0.4031 -0.1084
 8275TIP3    H146316   2.870   2.281  16.504  0.3963  2.6765 -0.3533
 8275TIP3    H246317   2.994   2.253  16.421 -0.2886 -0.6677 -0.3862
 8276TIP3   OH246318   2.763   5.508  15.105 -0.3837 -0.8169 -0.0072
 8276TIP3    H146319   2.756   5.586  15.159  0.0271  1.1500 -2.6305
 8276TIP3    H246320   2.795   5.440  15.165  1.5905  1.6056  1.8636
 8277TIP3   OH246321   6.690   6.206  15.025  0.0048 -0.4806 -0.0564
 8277TIP3    H146322   6.706   6.240  14.937  0.0238 -0.9156 -0.2261
 8277TIP3    H246323   6.634   6.272  15.067 -0.1521 -0.3574 -0.4539
 8278TIP3   OH246324   6.079   5.981   1.098  0.4208 -0.1974 -0.0432
 8278TIP3    H146325   6.123   5.912   1.049  0.9598  0.7435 -0.9205
 8278TIP3    H246326   6.132   5.991   1.178 -0.1066 -1.3082  0.4599
 8279TIP3   OH246327   0.299   4.889  16.545  0.0347  0.9417  0.3800
 8279TIP3    H146328   0.205   4.898  16.561  0.0475 -0.1936  1.2008
 8279TIP3    H246329   0.341   4.947  16.609 -0.0872  0.5571  0.8172
 8280TIP3   OH246330   2.531   0.307  16.352 -0.7148 -0.0752  0.2404
 8280TIP3    H146331   2.454   0.307  16.296 -0.5623  2.3666 -0.0532
 8280TIP3    H246332   2.605   0.290  16.293 -0.8019 -0.2047  0.1691
 8281TIP3   OH246333   1.854   2.425   2.981  0.0215  0.6082  0.6366
 8281TIP3    H146334   1.818   2.497   2.930  0.5920 -0.1404 -0.8855
 8281TIP3    H246335   1.841   2.348   2.926  2.9587  0.1412  0.4452
 8282TIP3   OH246336   4.800   5.724  16.159  0.1071 -0.9606  0.0542
 8282TIP3    H146337   4.768   5.810  16.187  5.2036  0.4776  2.8156
 8282TIP3    H246338   4.810   5.733  16.064 -0.8585  0.9176  0.0655
 8283TIP3   OH246339   2.723   3.498   1.174 -1.1882  0.5798  0.1556
 8283TIP3    H146340   2.748   3.407   1.189  1.3654  1.2811  0.5283
 8283TIP3    H246341   2.760   3.520   1.089 -0.1171  1.7654  0.8863
 8284TIP3   OH246342   3.719   6.232   2.691 -0.1053 -0.3036 -0.3559
 8284TIP3    H146343   3.727   6.180   2.611 -2.3571  1.1563 -1.6422
 8284TIP3    H246344   3.669   6.177   2.751 -0.7815 -0.3635 -0.9726
 8285TIP3   OH246345   5.924   4.066  14.809  0.0674  0.2868 -0.3042
 8285TIP3    H146346   5.989   4.055  14.877  0.0597 -0.0947 -0.3552
 8285TIP3    H246347   5.968   4.117  14.741  0.0646  0.6943 -0.0057
 8286TIP3   OH246348   3.798   3.706  12.438  0.1832  0.5120 -0.1281
 8286TIP3    H146349   3.712   3.681  12.471  0.9950 -1.1065  0.8711
 8286TIP3    H246350   3.833   3.766  12.504  0.3492  0.1161  0.1478
 8287TIP3   OH246351   5.275   1.150  16.540 -0.3469  0.4895  0.2481
 8287TIP3    H146352   5.271   1.242  16.565  0.1157  0.6667 -0.3043
 8287TIP3    H246353   5.185   1.127  16.519 -0.2250  1.3102 -1.3148
 8288TIP3   OH246354   5.769   2.451  11.990 -0.1264 -0.0082  0.1239
 8288TIP3    H146355   5.765   2.521  12.056  0.1605 -1.3330  1.5980
 8288TIP3    H246356   5.847   2.401  12.013 -1.3394 -1.9228  0.2781
 8289TIP3   OH246357   6.164   0.553  12.664  0.0962  0.2178 -0.4192
 8289TIP3    H146358   6.212   0.635  12.650 -0.1981  1.0074  2.5087
 8289TIP3    H246359   6.075   0.581  12.686  0.1251 -0.8101  1.1790
 8290TIP3   OH246360   4.784   1.288  11.210 -0.0585 -0.3633 -0.5879
 8290TIP3    H146361   4.873   1.252  11.208  0.4267  0.8134 -1.6091
 8290TIP3    H246362   4.778   1.332  11.295  0.1732 -0.8183 -0.3329
 8291TIP3   OH246363   0.691   5.441  13.262  0.2060 -0.3459 -0.1463
 8291TIP3    H146364   0.755   5.369  13.259  0.1458 -0.3661 -1.1216
 8291TIP3    H246365   0.660   5.449  13.172  0.5937  1.2538 -0.1638
 8292TIP3   OH246366   4.796   2.754   0.879 -0.2720  0.7296  0.2502
 8292TIP3    H146367   4.889   2.751   0.856 -0.7987 -1.1172 -2.0018
 8292TIP3    H246368   4.753   2.788   0.801 -1.7198 -0.8659  0.2981
 8293TIP3   OH246369   0.317   3.454   6.042  0.5150  0.1320 -0.1059
 8293TIP3    H146370   0.400   3.457   6.090  0.1862  0.5313  0.4412
 8293TIP3    H246371   0.251   3.434   6.108  0.2730 -1.0256 -0.6781
 8294TIP3   OH246372   5.554   5.448   4.357  0.4179 -0.4696 -0.0785
 8294TIP3    H146373   5.587   5.519   4.411 -2.0482 -0.2380  1.2998
 8294TIP3    H246374   5.531   5.490   4.274 -1.2579  0.4820  0.8102
 8295TIP3   OH246375   4.803   0.957  11.067  0.0586 -0.4284  0.2910
 8295TIP3    H146376   4.872   0.910  11.020 -0.6804 -2.1367  0.8462
 8295TIP3    H246377   4.739   0.890  11.090 -2.2038  1.2151 -0.8736
 8296TIP3   OH246378   0.530   6.249   6.098  0.5194  0.1344  0.3074
 8296TIP3    H146379   0.542   6.290   6.184  0.4609  0.5013  0.1432
 8296TIP3    H246380   0.591   6.296   6.040  0.0014  0.4239 -0.0201
 8297TIP3   OH246381   2.911   4.709   5.066 -0.2131 -0.2102 -0.2761
 8297TIP3    H146382   2.957   4.779   5.114 -0.1606 -1.9661  2.4908
 8297TIP3    H246383   2.981   4.656   5.028 -0.1240 -0.3942  0.1404
 8298TIP3   OH246384   3.053   3.047   2.370 -0.1369  0.5128 -0.6086
 8298TIP3    H146385   3.027   3.052   2.462 -1.5135 -0.2936 -0.9229
 8298TIP3    H246386   3.144   3.076   2.369  0.1933 -0.3578  1.1482
 8299TIP3   OH246387   5.695   5.872  13.384 -0.2849  0.0463  0.0044
 8299TIP3    H146388   5.619   5.815  13.393 -0.8601  0.6627 -0.7421
 8299TIP3    H246389   5.720   5.865  13.292  0.5076 -0.0725  0.2197
 8300TIP3   OH246390   4.135   5.734   2.599 -0.3554 -0.8025  0.3628
 8300TIP3    H146391   4.083   5.711   2.676 -0.4708 -2.7883 -0.2364
 8300TIP3    H246392   4.123   5.828   2.588  0.0191 -0.3643  3.0147
 8301TIP3   OH246393   0.273   4.399  12.045  0.1441 -0.1561  0.0529
 8301TIP3    H146394   0.271   4.312  12.086  0.1672 -1.7305 -2.9983
 8301TIP3    H246395   0.366   4.413  12.024  0.0428  0.2701 -0.1107
 8302TIP3   OH246396   2.378   1.135  14.968  0.4564 -0.0122 -0.4019
 8302TIP3    H146397   2.413   1.187  15.040 -0.5091  0.0584  0.0360
 8302TIP3    H246398   2.339   1.199  14.909 -0.0852 -0.1809 -0.2293
 8303TIP3   OH246399   2.202   3.803  12.874  0.4516  0.3561  0.0624
 8303TIP3    H146400   2.289   3.765  12.888  0.5542 -0.1069 -1.6168
 8303TIP3    H246401   2.144   3.727  12.868  0.2116  0.5876 -0.5627
 8304TIP3   OH246402   5.568   2.598   2.920 -0.2637 -0.4400 -0.4407
 8304TIP3    H146403   5.604   2.667   2.976  0.1804  0.4480 -1.7706
 8304TIP3    H246404   5.480   2.629   2.899 -0.0971 -0.3103 -0.9621
 8305TIP3   OH246405   6.769   5.694  15.428  0.1939  0.1419  0.3108
 8305TIP3    H146406   6.798   5.779  15.396 -0.7824  1.0859  1.8079
 8305TIP3    H246407   6.678   5.708  15.453  0.1727 -1.2107  1.0782
 8306TIP3   OH246408   3.771   2.057   0.836 -0.2577 -0.4134 -0.4743
 8306TIP3    H146409   3.731   2.128   0.885 -0.2446 -0.2335 -0.7247
 8306TIP3    H246410   3.848   2.032   0.888 -0.0073  0.0550 -0.6155
 8307TIP3   OH246411   4.090   5.897  11.616  0.5707  0.0406 -0.2780
 8307TIP3    H146412   4.053   5.885  11.528  0.6334 -0.1916 -0.2743
 8307TIP3    H246413   4.022   5.864  11.675  0.3111  0.6792 -0.2085
 8308TIP3   OH246414   2.701   5.646   0.469  1.0087 -0.3064  0.2828
 8308TIP3    H146415   2.617   5.601   0.478  1.0375 -0.2756  0.7208
 8308TIP3    H246416   2.757   5.604   0.534  1.7558 -1.2932 -0.9625
 8309TIP3   OH246417   4.644   6.408   6.862 -0.0719 -0.2461  0.1154
 8309TIP3    H146418   4.596   6.458   6.795  1.8226  1.6559  0.0873
 8309TIP3    H246419   4.680   6.334   6.815  1.3238  1.1222 -1.0910
 8310TIP3   OH246420   3.684   2.725   2.844 -0.0195 -0.2744 -0.0811
 8310TIP3    H146421   3.671   2.797   2.782  0.5740 -0.0233  0.0838
 8310TIP3    H246422   3.729   2.765   2.918  0.1552 -0.7824  0.0913
 8311TIP3   OH246423   3.981   5.901   5.304 -0.1567  0.3442 -0.6635
 8311TIP3    H146424   4.001   5.992   5.323  1.5349  0.0698 -0.9487
 8311TIP3    H246425   4.052   5.852   5.345 -0.8496 -0.8335 -0.8135
 8312TIP3   OH246426   6.420   5.321  16.457  0.3495 -0.5333  0.0772
 8312TIP3    H146427   6.371   5.365  16.525  0.0847 -1.2721  0.3735
 8312TIP3    H246428   6.442   5.235  16.494  0.0740 -1.0060 -0.8097
 8313TIP3   OH246429   4.462   5.960  10.536  0.5032 -1.0056 -0.1318
 8313TIP3    H146430   4.439   5.874  10.571  0.0710 -0.2498  1.5351
 8313TIP3    H246431   4.557   5.964  10.543  0.3950 -0.6708  1.5409
 8314TIP3   OH246432   3.594   6.310   2.975 -0.1077 -0.0654 -0.1700
 8314TIP3    H146433   3.546   6.379   2.929  0.3971  1.0657  0.9163
 8314TIP3    H246434   3.685   6.340   2.975  0.9887 -2.7848 -3.3362
 8315TIP3   OH246435   6.708   6.825   0.521  0.3670  0.3523 -0.3723
 8315TIP3    H146436   6.655   6.905   0.513 -0.0381  0.4606  2.2218
 8315TIP3    H246437   6.797   6.858   0.537  0.2962  0.2870  0.1698
 8316TIP3   OH246438   4.094   5.433   2.355  0.3278 -0.0946  0.1956
 8316TIP3    H146439   4.026   5.463   2.415  0.2223  1.2329 -0.5583
 8316TIP3    H246440   4.053   5.436   2.268  0.0984 -3.1040  0.1081
 8317TIP3   OH246441   0.952   5.711   0.403  0.1920  0.3341  0.0116
 8317TIP3    H146442   1.012   5.774   0.363 -0.9437  1.0077 -0.6939
 8317TIP3    H246443   0.865   5.745   0.383 -0.4356 -0.2100  1.6627
 8318TIP3   OH246444   5.500   5.042  16.063  0.1087 -0.6323 -0.4906
 8318TIP3    H146445   5.481   4.960  16.109 -0.7914  0.9598  2.1626
 8318TIP3    H246446   5.519   5.105  16.132  1.8974  1.1916 -2.4877
 8319TIP3   OH246447   3.584   6.238  12.590 -0.3420 -0.3374  0.2303
 8319TIP3    H146448   3.585   6.217  12.497  1.2049  2.0864 -0.3800
 8319TIP3    H246449   3.527   6.314  12.597  2.4251  1.8500  0.5857
 8320TIP3   OH246450   2.365   2.089   4.445 -0.3533  0.2513 -0.2370
 8320TIP3    H146451   2.363   2.050   4.533  0.2472  1.1241  0.1841
 8320TIP3    H246452   2.282   2.064   4.406 -0.4090 -0.5887  0.3902
 8321TIP3   OH246453   4.392   1.446  14.960 -0.2348 -0.0498  0.2133
 8321TIP3    H146454   4.334   1.388  15.010  0.1294  0.6841  1.5337
 8321TIP3    H246455   4.352   1.451  14.873 -0.9108 -1.3329  0.4278
 8322TIP3   OH246456   2.942   4.604   5.552  0.5036 -0.1495  0.3054
 8322TIP3    H146457   3.002   4.615   5.626 -0.1756 -1.5202  1.1027
 8322TIP3    H246458   2.968   4.521   5.512  0.6441  0.4159 -0.7951
 8323TIP3   OH246459   5.241   4.191   0.853 -0.0679 -0.1113 -0.4170
 8323TIP3    H146460   5.157   4.208   0.809 -0.8317  1.9157  1.6635
 8323TIP3    H246461   5.297   4.263   0.825  0.8704 -1.1540 -1.3434
 8324TIP3   OH246462   3.183   0.706   2.440  0.0934  0.1032  0.1632
 8324TIP3    H146463   3.175   0.707   2.344  1.1863  0.7566  0.0588
 8324TIP3    H246464   3.204   0.796   2.463 -1.0812  0.1531  1.1296
 8325TIP3   OH246465   2.502   4.671  13.806 -0.3357  0.3876 -0.4223
 8325TIP3    H146466   2.466   4.615  13.738  0.6066  1.3243 -1.7452
 8325TIP3    H246467   2.426   4.701  13.856 -0.9624 -0.9898 -0.4950
 8326TIP3   OH246468   3.049   1.735   0.983 -0.2561  0.1233 -0.1832
 8326TIP3    H146469   3.099   1.789   0.924  0.2736  2.3765  2.1549
 8326TIP3    H246470   3.086   1.647   0.973  1.0820  0.8196 -1.7289
 8327TIP3   OH246471   3.763   4.723   5.286  0.1670 -0.3668  0.5467
 8327TIP3    H146472   3.809   4.727   5.202 -0.0095 -1.3661  0.3895
 8327TIP3    H246473   3.683   4.774   5.272  0.0536 -0.6748  0.0459
 8328TIP3   OH246474   1.940   6.743   2.753  0.0828  0.0900 -0.4351
 8328TIP3    H146475   2.036   6.738   2.752  0.1942  1.1734  1.2525
 8328TIP3    H246476   1.919   6.810   2.688  0.5901  1.0168  0.3350
 8329TIP3   OH246477   0.971   3.893   3.524 -0.4518  0.6920  0.5113
 8329TIP3    H146478   0.984   3.821   3.463 -0.1925  1.1026  0.0737
 8329TIP3    H246479   0.885   3.877   3.563  0.0028 -0.3602  1.1151
 8330TIP3   OH246480   0.196   1.435   3.417  0.0940  0.8017 -0.3220
 8330TIP3    H146481   0.285   1.406   3.396  0.2529  1.3387 -0.4070
 8330TIP3    H246482   0.195   1.528   3.392 -0.7598  0.5781 -1.1483
 8331TIP3   OH246483   4.669   3.785  15.652  0.1993 -0.2420 -0.4245
 8331TIP3    H146484   4.747   3.793  15.597 -0.4213  0.0765 -1.2911
 8331TIP3    H246485   4.597   3.814  15.596 -0.3646  0.8487  0.8009
 8332TIP3   OH246486   6.574   6.767  13.847 -0.0105 -0.0262 -0.3781
 8332TIP3    H146487   6.649   6.708  13.836  0.9297  1.2840 -1.1683
 8332TIP3    H246488   6.543   6.783  13.758 -2.8324 -2.4507  0.0074
 8333TIP3   OH246489   6.185   6.123   5.119 -0.2894  0.0623  0.1354
 8333TIP3    H146490   6.243   6.046   5.116 -0.2205  0.1456 -1.4196
 8333TIP3    H246491   6.173   6.147   5.028 -1.3261  1.1626  0.5426
 8334TIP3   OH246492   1.602   0.819  13.226  0.4776 -0.6838 -0.2021
 8334TIP3    H146493   1.589   0.753  13.295 -1.6740 -0.2421 -0.1130
 8334TIP3    H246494   1.697   0.833  13.224  1.0713 -3.8589 -0.3261
 8335TIP3   OH246495   6.799   6.231  11.342 -0.0462 -0.0871  0.3430
 8335TIP3    H146496   6.855   6.264  11.271 -0.2107 -1.4744 -0.4761
 8335TIP3    H246497   6.710   6.252  11.314 -0.0091  1.2044  1.1521
 8336TIP3   OH246498   5.913   5.447   4.780  0.2831 -0.0699 -0.4311
 8336TIP3    H146499   5.889   5.358   4.805 -0.6342 -0.0074 -1.0399
 8336TIP3    H246500   5.863   5.503   4.839  2.4384  0.0653  1.3654
 8337TIP3   OH246501   4.869   5.719  12.488 -0.4692  0.5156  0.4174
 8337TIP3    H146502   4.884   5.800  12.438  1.3794 -1.0406 -1.7401
 8337TIP3    H246503   4.812   5.666  12.432 -1.7391  0.3004  1.8510
 8338TIP3   OH246504   3.424   1.928   5.376  0.2439  0.4603  0.3797
 8338TIP3    H146505   3.420   1.923   5.281  1.8733  0.6666  0.2661
 8338TIP3    H246506   3.461   1.844   5.403  0.0694  0.5194  0.8045
 8339TIP3   OH246507   6.285   3.389   0.194  0.2126  0.1869 -0.1122
 8339TIP3    H146508   6.364   3.435   0.224  0.0458  0.4578 -0.0835
 8339TIP3    H246509   6.317   3.324   0.132  0.1910  2.3809 -2.5661
 8340TIP3   OH246510   6.726   2.086  10.430 -0.3060  0.3545 -0.4051
 8340TIP3    H146511   6.703   2.008  10.378  1.0198  0.0641 -0.5942
 8340TIP3    H246512   6.775   2.051  10.505 -0.7627  0.9165  0.1655
 8341TIP3   OH246513   2.267   3.659  11.324 -0.0017 -0.4307 -0.3791
 8341TIP3    H146514   2.196   3.719  11.300 -0.3273 -1.0516 -0.9980
 8341TIP3    H246515   2.320   3.652  11.244  0.7134 -0.0529  0.0464
 8342TIP3   OH246516   1.845   0.401  13.675 -0.2011 -0.2690 -0.1147
 8342TIP3    H146517   1.790   0.389  13.597  1.1845 -0.8734 -1.0202
 8342TIP3    H246518   1.896   0.479  13.656  1.2373 -1.2759 -0.4849
 8343TIP3   OH246519   0.336   3.142   3.905  0.3379  0.3218 -0.2226
 8343TIP3    H146520   0.384   3.210   3.858  0.9402  0.9423  1.2086
 8343TIP3    H246521   0.245   3.156   3.882  0.5646  0.9542 -0.7691
 8344TIP3   OH246522   6.650   6.767   5.141  0.1838  0.2561 -0.0594
 8344TIP3    H146523   6.666   6.855   5.107  0.2551 -0.0229 -0.7585
 8344TIP3    H246524   6.706   6.710   5.088 -0.3876 -0.2978 -0.0775
 8345TIP3   OH246525   3.736   2.857   1.848 -0.3618 -0.2665 -0.0418
 8345TIP3    H146526   3.702   2.942   1.822 -1.2304 -0.8721 -0.9361
 8345TIP3    H246527   3.659   2.806   1.872  0.2529 -0.3294  2.0536
 8346TIP3   OH246528   0.120   3.508   3.385 -0.1285  0.2266  0.5853
 8346TIP3    H146529   0.155   3.597   3.379  1.1622 -0.0348  2.9453
 8346TIP3    H246530   0.033   3.519   3.424 -0.7172  0.5406 -0.7709
 8347TIP3   OH246531   6.644   0.270   6.411 -0.6642  0.1160  0.2840
 8347TIP3    H146532   6.555   0.295   6.436 -0.6137  0.7756 -0.1666
 8347TIP3    H246533   6.637   0.178   6.385 -1.4460  0.4581 -0.8053
 8348TIP3   OH246534   6.206   1.233   4.475  0.3272  0.0557 -0.0590
 8348TIP3    H146535   6.215   1.299   4.405  1.3865  0.0146  0.0299
 8348TIP3    H246536   6.118   1.247   4.509  0.3707  1.1418 -0.3415
 8349TIP3   OH246537   3.375   3.900   2.468  0.3266 -0.3172 -0.5793
 8349TIP3    H146538   3.366   3.993   2.447  1.2524 -0.7443 -3.1427
 8349TIP3    H246539   3.286   3.866   2.466  0.1122  0.2614 -0.9859
 8350TIP3   OH246540   0.571   5.164   2.220 -0.3729  0.3840  0.0074
 8350TIP3    H146541   0.481   5.139   2.198 -0.7376 -0.0428  1.8119
 8350TIP3    H246542   0.588   5.242   2.168 -1.8568  0.5767 -0.2285
 8351TIP3   OH246543   2.673   0.784   1.180  0.7976  0.6596 -0.1095
 8351TIP3    H146544   2.755   0.735   1.189 -0.7157 -1.9759  0.2338
 8351TIP3    H246545   2.610   0.736   1.234 -1.0767  2.4055 -0.6174
 8352TIP3   OH246546   0.299   5.461  15.674  0.3592  0.4985 -0.1830
 8352TIP3    H146547   0.325   5.553  15.673 -3.3775  1.7555  1.1228
 8352TIP3    H246548   0.263   5.444  15.587  1.1823  0.1550 -0.4735
 8353TIP3   OH246549   1.097   4.372  13.721 -0.8080  0.1415  0.4485
 8353TIP3    H146550   1.191   4.361  13.709 -0.8477 -0.1483  0.4066
 8353TIP3    H246551   1.057   4.310  13.660 -1.0545  2.0787 -1.4651
 8354TIP3   OH246552   1.352   0.611   2.640  0.0416  0.1700 -0.0156
 8354TIP3    H146553   1.401   0.683   2.602 -0.7710 -0.5513 -2.6816
 8354TIP3    H246554   1.405   0.581   2.713  1.0040  2.6205  0.3784
 8355TIP3   OH246555   5.406   6.083  12.830 -0.2459 -0.0268 -0.9751
 8355TIP3    H146556   5.450   6.123  12.756 -0.4529  0.8083 -0.6623
 8355TIP3    H246557   5.377   6.157  12.884  1.8914 -0.5740  1.1331
 8356TIP3   OH246558   6.634   0.018  15.843  0.0139  0.1316  0.1444
 8356TIP3    H146559   6.650   0.111  15.827  0.7679 -0.0241 -0.0408
 8356TIP3    H246560   6.717  -0.016  15.876 -0.8058 -0.0828  2.1265
 8357TIP3   OH246561   0.064   3.488   4.094  0.0344  0.4317 -0.0537
 8357TIP3    H146562   0.116   3.548   4.040 -1.3358  0.8715 -0.9323
 8357TIP3    H246563  -0.015   3.538   4.115 -0.1961 -0.3353  0.9884
 8358TIP3   OH246564   6.078   1.908  13.424 -0.1546 -0.8304  0.2248
 8358TIP3    H146565   6.057   1.996  13.393 -0.8775 -1.3131 -0.6759
 8358TIP3    H246566   6.021   1.895  13.500 -0.2441 -0.6267  0.1932
 8359TIP3   OH246567   1.811   0.232  11.169 -0.2380  0.1339  0.3042
 8359TIP3    H146568   1.854   0.197  11.091  1.8496  0.5299  1.1969
 8359TIP3    H246569   1.765   0.310  11.138  0.1365  0.0019 -0.6150
 8360TIP3   OH246570   0.608   0.794  11.070  0.3182  0.0394 -0.3066
 8360TIP3    H146571   0.643   0.861  11.011  0.6919  1.7657  1.7406
 8360TIP3    H246572   0.670   0.792  11.143  0.3901 -2.7150 -0.3449
 8361TIP3   OH246573   6.766   1.675   2.895 -0.0567  0.3764 -0.6088
 8361TIP3    H146574   6.830   1.675   2.824  1.1801  0.6457  0.4726
 8361TIP3    H246575   6.795   1.607   2.955 -1.9234 -0.8766 -1.0386
 8362TIP3   OH246576   0.198   1.284   6.103  0.2270  0.1279  0.0771
 8362TIP3    H146577   0.119   1.258   6.150 -0.7742  1.0185 -1.0245
 8362TIP3    H246578   0.165   1.342   6.033  1.4227 -2.2783 -2.6594
 8363TIP3   OH246579   2.294   5.713   0.755 -0.3798 -0.5189 -0.9651
 8363TIP3    H146580   2.278   5.798   0.714 -0.1922 -0.3269 -0.6456
 8363TIP3    H246581   2.274   5.649   0.687  1.3741 -0.1757 -1.8619
 8364TIP3   OH246582   3.610   5.849  12.644 -0.3974  0.4009 -0.5011
 8364TIP3    H146583   3.692   5.896  12.632 -0.3748  0.0803 -1.8227
 8364TIP3    H246584   3.558   5.872  12.567 -0.2920 -1.8513 -1.3395
 8365TIP3   OH246585   4.606   6.244  16.581 -0.1884  0.3264 -0.5466
 8365TIP3    H146586   4.526   6.278  16.622 -0.1743  2.0853 -1.8491
 8365TIP3    H246587   4.576   6.171  16.527 -0.7687  0.4093 -0.3482
 8366TIP3   OH246588   5.083   0.686   0.469 -0.9626 -0.1449  0.0510
 8366TIP3    H146589   5.062   0.757   0.531  0.9448  0.7611 -0.2667
 8366TIP3    H246590   5.055   0.606   0.514 -0.9176  0.6052  1.4837
 8367TIP3   OH246591   4.786   3.309   3.058 -0.1921  1.1340 -0.2226
 8367TIP3    H146592   4.722   3.320   3.129 -1.3542 -0.4146 -0.9846
 8367TIP3    H246593   4.833   3.229   3.081  1.7491  2.3950  0.4769
 8368TIP3   OH246594   1.582   3.995   6.087  0.4913 -0.5967  0.1463
 8368TIP3    H146595   1.592   3.913   6.135  1.6317 -0.7024 -0.2344
 8368TIP3    H246596   1.550   4.058   6.152 -0.8492 -1.4417  0.3344
 8369TIP3   OH246597   3.504   4.027  13.091  1.0000  0.5661 -0.6324
 8369TIP3    H146598   3.560   4.035  13.014  0.9343 -0.0489 -0.7481
 8369TIP3    H246599   3.415   4.031  13.057  0.9148 -1.6647 -0.8717
 8370TIP3   OH246600   6.313   4.922  16.273  0.1761  0.0877  0.0093
 8370TIP3    H146601   6.402   4.943  16.246  0.4695  0.9062  1.5189
 8370TIP3    H246602   6.322   4.893  16.364 -1.2007  1.1069  0.4997
 8371TIP3   OH246603   0.040   4.491  16.195 -0.1955 -0.0668  0.4700
 8371TIP3    H146604   0.027   4.400  16.171  1.3341 -0.2866  0.3701
 8371TIP3    H246605   0.047   4.491  16.290 -3.0903  0.3808  0.7681
 8372TIP3   OH246606   4.815   3.736  10.786  0.7444  0.2615  0.1655
 8372TIP3    H146607   4.820   3.831  10.799  1.9218  0.1368  0.8253
 8372TIP3    H246608   4.906   3.707  10.792  0.4185 -0.8793 -0.2814
 8373TIP3   OH246609   5.268   1.565  15.997  0.1293  0.1500 -0.6404
 8373TIP3    H146610   5.205   1.516  15.945  1.6548 -2.8939  0.1905
 8373TIP3    H246611   5.287   1.643  15.945 -2.3684 -0.0702 -2.0399
 8374TIP3   OH246612   0.898   5.228   0.322 -0.0329 -0.5815 -0.3134
 8374TIP3    H146613   0.817   5.232   0.271 -0.6859  2.2461  0.7267
 8374TIP3    H246614   0.938   5.145   0.298 -1.3948 -0.4249 -3.7063
 8375TIP3   OH246615   5.155   5.141  16.293  0.2351  0.2458  1.0096
 8375TIP3    H146616   5.211   5.210  16.257 -0.6358  0.8927  0.8684
 8375TIP3    H246617   5.092   5.123  16.224 -0.8750  0.8291  1.8524
 8376TIP3   OH246618   6.493   4.318  16.520 -0.1994 -0.8869 -0.0930
 8376TIP3    H146619   6.422   4.378  16.545  1.8165  0.5327  2.7481
 8376TIP3    H246620   6.467   4.234  16.557 -1.2309 -0.8676 -0.7295
 8377TIP3   OH246621   4.883   1.361  13.942  0.3015  0.0240 -0.0371
 8377TIP3    H146622   4.832   1.288  13.907  0.6750 -0.2815  0.0487
 8377TIP3    H246623   4.835   1.439  13.915 -0.0781 -0.2504 -0.1672
 8378TIP3   OH246624   5.985   3.869   0.450  0.6797  0.5325 -0.8577
 8378TIP3    H146625   5.934   3.788   0.450  0.3511  0.7345 -0.6932
 8378TIP3    H246626   6.076   3.841   0.441  0.8439 -0.0262  1.8857
 8379TIP3   OH246627   0.370   5.471  11.340 -0.7105  0.0624  0.8071
 8379TIP3    H146628   0.337   5.558  11.362 -0.1847  0.5156 -0.1411
 8379TIP3    H246629   0.316   5.442  11.267 -0.8096 -0.3597  1.0455
 8380TIP3   OH246630   5.443   4.766   4.759 -0.6725  0.1299 -0.5857
 8380TIP3    H146631   5.396   4.750   4.677  0.0770  3.3917 -1.7996
 8380TIP3    H246632   5.532   4.789   4.731  1.0898 -3.2343  1.5120
 8381TIP3   OH246633   6.119   3.832   6.131  0.4289  0.5357 -0.0514
 8381TIP3    H146634   6.162   3.813   6.047  0.6531  0.6905  0.0282
 8381TIP3    H246635   6.035   3.787   6.126  1.6524 -2.0525  0.8323
 8382TIP3   OH246636   4.305   0.335  16.513  0.9921  0.2557  0.7822
 8382TIP3    H146637   4.296   0.362  16.604 -1.9532  0.1983  0.6278
 8382TIP3    H246638   4.232   0.274  16.499  0.6573  1.1278 -1.8760
 8383TIP3   OH246639   2.475   3.542  11.959 -0.3931 -0.3612 -0.1333
 8383TIP3    H146640   2.402   3.480  11.967 -1.3015  0.5113 -1.3814
 8383TIP3    H246641   2.537   3.514  12.027 -1.1253 -2.1351 -0.1368
 8384TIP3   OH246642   3.048   1.423   3.466 -0.6278  0.4326 -0.6478
 8384TIP3    H146643   2.954   1.422   3.483 -0.4522  2.0011  0.6524
 8384TIP3    H246644   3.055   1.437   3.371 -1.6419 -2.4669 -1.2630
 8385TIP3   OH246645   1.052   3.536  15.317 -0.1983  0.0901 -0.1211
 8385TIP3    H146646   0.985   3.603  15.329  0.3971  0.4756  1.2939
 8385TIP3    H246647   1.053   3.488  15.400  0.3455 -0.7800 -0.6149
 8386TIP3   OH246648   1.686   4.039   4.616 -0.3064  0.2098 -0.2983
 8386TIP3    H146649   1.742   4.117   4.620 -0.7236  0.6002 -1.4847
 8386TIP3    H246650   1.678   4.010   4.707 -0.1321  1.5445  0.1704
 8387TIP3   OH246651   5.600   0.555  11.272  0.4310  0.3395  0.6513
 8387TIP3    H146652   5.513   0.518  11.281 -0.3365  2.0511  0.7059
 8387TIP3    H246653   5.653   0.508  11.337 -0.8082  0.2861  1.6643
 8388TIP3   OH246654   6.488   1.211   4.636 -0.4668 -0.1080  0.6518
 8388TIP3    H146655   6.417   1.243   4.581  0.3157  1.5659  0.5406
 8388TIP3    H246656   6.466   1.242   4.724  1.0202  2.1507  0.3066
 8389TIP3   OH246657   2.178   6.641   3.034  0.1432  0.3623  0.1809
 8389TIP3    H146658   2.182   6.556   2.989  0.9694  0.7190 -0.4323
 8389TIP3    H246659   2.115   6.692   2.983 -0.2189  0.1906  0.4467
 8390TIP3   OH246660   1.553   5.464  14.267  0.9094 -0.0921 -0.4818
 8390TIP3    H146661   1.505   5.410  14.203 -1.8332  1.4247  0.1102
 8390TIP3    H246662   1.645   5.450  14.246  0.1871 -1.0276 -3.6391
 8391TIP3   OH246663   1.309   0.129   1.468  0.3899 -0.3230 -0.1991
 8391TIP3    H146664   1.324   0.161   1.379  0.9690  0.5783  0.2085
 8391TIP3    H246665   1.215   0.142   1.483  0.0377 -1.6118 -1.0912
 8392TIP3   OH246666   4.765   1.630  13.828  0.1216  0.2964  0.1354
 8392TIP3    H146667   4.837   1.598  13.774 -0.3484 -2.5850  1.0573
 8392TIP3    H246668   4.700   1.663  13.766  1.9912  2.6607 -0.7197
 8393TIP3   OH246669   5.001   0.812   3.411  0.3354 -0.0723  0.2742
 8393TIP3    H146670   4.965   0.900   3.422  0.6212  0.2175 -0.9632
 8393TIP3    H246671   4.950   0.758   3.472 -0.2672  0.8275  0.5931
 8394TIP3   OH246672   6.395   4.485  11.484 -0.0363  0.1039 -0.1801
 8394TIP3    H146673   6.381   4.484  11.578 -2.5707 -1.1493 -0.4789
 8394TIP3    H246674   6.462   4.418  11.469 -1.3392 -1.4329  0.5768
 8395TIP3   OH246675   4.748   2.833   4.984 -0.0181  0.3763  0.3876
 8395TIP3    H146676   4.774   2.888   4.910 -0.3654 -0.0404 -0.0522
 8395TIP3    H246677   4.793   2.750   4.971 -0.3610  0.1763  0.4412
 8396TIP3   OH246678   4.525   3.108   3.370  0.1479  0.0758  0.4364
 8396TIP3    H146679   4.474   3.064   3.302  0.7605  0.7696 -0.5033
 8396TIP3    H246680   4.474   3.096   3.450 -0.1047 -1.6130  0.0639
 8397TIP3   OH246681   3.143   2.610  15.447  0.2617  0.2684  0.1596
 8397TIP3    H146682   3.104   2.546  15.388 -0.2216  2.2997 -1.8769
 8397TIP3    H246683   3.076   2.626  15.514 -0.2745 -0.1153 -0.2802
 8398TIP3   OH246684   1.058   4.949  15.201 -0.1572 -0.2401  0.6212
 8398TIP3    H146685   1.140   4.902  15.186  0.3003  1.1904 -1.7390
 8398TIP3    H246686   1.081   5.042  15.190 -2.1542  0.1667 -0.5426
 8399TIP3   OH246687   4.010   0.526   0.988  0.0128 -0.7468  0.2988
 8399TIP3    H146688   4.094   0.484   0.968 -0.8726 -2.3056 -0.3813
 8399TIP3    H246689   3.954   0.505   0.912 -1.6690 -1.7286  1.7212
 8400TIP3   OH246690   6.707   5.847  16.357 -0.0029 -0.2657  0.2156
 8400TIP3    H146691   6.683   5.862  16.266 -0.2166  2.0230  0.6013
 8400TIP3    H246692   6.757   5.765  16.355  2.7546  1.2808 -2.4906
 8401TIP3   OH246693   5.261   0.017  15.201 -0.4848  0.0547 -0.1883
 8401TIP3    H146694   5.214   0.100  15.204 -2.1381 -0.8145 -0.6804
 8401TIP3    H246695   5.310   0.020  15.119  1.2686  1.4115  0.8316
 8402TIP3   OH246696   6.265   4.889   1.569  0.3640 -0.6200  0.1411
 8402TIP3    H146697   6.209   4.941   1.626  0.8772 -0.4463  0.4846
 8402TIP3    H246698   6.335   4.856   1.626  0.2844 -1.3326 -0.1591
 8403TIP3   OH246699   0.477   0.835  15.723  0.1120  0.4031 -0.2429
 8403TIP3    H146700   0.545   0.901  15.710 -0.4824  0.9527 -0.6055
 8403TIP3    H246701   0.504   0.761  15.668  1.6197 -0.3258  1.3620
 8404TIP3   OH246702   1.421   1.637  16.720 -0.4294 -0.1098 -0.2942
 8404TIP3    H146703   1.456   1.624  16.632  0.2490  0.0332 -0.0559
 8404TIP3    H246704   1.431   1.552  16.763 -2.2260 -0.6262 -0.8377
 8405TIP3   OH246705   1.427   4.237  12.415  0.4481  0.2671 -0.1802
 8405TIP3    H146706   1.467   4.166  12.365  1.9942  0.4569  0.7422
 8405TIP3    H246707   1.334   4.216  12.416  0.6938 -0.9735 -1.1350
 8406TIP3   OH246708   0.483   6.292   2.333  0.0635 -0.3198 -0.6283
 8406TIP3    H146709   0.465   6.340   2.252  0.9694  0.0695 -0.6124
 8406TIP3    H246710   0.425   6.216   2.329 -2.5866  1.5370  0.0924
 8407TIP3   OH246711   1.141   6.707   2.179 -0.0491 -0.6257  0.1844
 8407TIP3    H146712   1.094   6.669   2.104 -1.3908  0.9067  0.2028
 8407TIP3    H246713   1.220   6.745   2.141 -0.6321 -0.0227 -0.4472
 8408TIP3   OH246714   0.950   5.611   4.652 -0.3659 -0.3532  0.1449
 8408TIP3    H146715   0.958   5.689   4.707  0.3535  1.1230 -1.9473
 8408TIP3    H246716   1.033   5.565   4.663 -0.3321 -0.2119  0.4915
 8409TIP3   OH246717   0.773   1.817  11.218 -0.5389 -0.0568 -0.2140
 8409TIP3    H146718   0.758   1.804  11.124 -0.4744 -0.4024 -0.1750
 8409TIP3    H246719   0.779   1.729  11.254  2.2896  0.0052 -0.3296
 8410TIP3   OH246720   3.324   3.416   3.112 -0.2339  0.1752 -0.1941
 8410TIP3    H146721   3.376   3.335   3.108  0.2141  0.3616  1.4359
 8410TIP3    H246722   3.285   3.423   3.025  1.9874 -0.2931 -1.3106
 8411TIP3   OH246723   0.763   0.712  17.042 -0.2119  0.0024  0.0369
 8411TIP3    H146724   0.778   0.787  16.985  0.1354  1.6366  2.1371
 8411TIP3    H246725   0.678   0.677  17.014  0.7395 -0.4581 -2.5969
 8412TIP3   OH246726   2.373   4.093   0.071  0.2183  0.1941  0.2736
 8412TIP3    H146727   2.282   4.078   0.045 -0.2927  0.4291  1.7940
 8412TIP3    H246728   2.378   4.187   0.087  0.6855  0.1603  0.3412
 8413TIP3   OH246729   0.974   1.509  14.127  0.7057  0.6919 -0.0991
 8413TIP3    H146730   1.022   1.456  14.064  1.9142 -0.4001  1.6316
 8413TIP3    H246731   0.895   1.459  14.146  0.6444  0.7162 -0.2944
 8414TIP3   OH246732   3.330   4.593  12.328 -0.8370  0.1342  0.2681
 8414TIP3    H146733   3.425   4.599  12.337 -0.7760 -0.4762  0.0255
 8414TIP3    H246734   3.316   4.535  12.253 -1.4028 -0.7116  1.0140
 8415TIP3   OH246735   6.018   3.983   4.981  0.1606  0.3137 -0.2356
 8415TIP3    H146736   6.055   3.950   5.062 -0.0771  0.8278  0.0882
 8415TIP3    H246737   5.981   4.068   5.004 -0.1997  0.3209 -0.8089
 8416TIP3   OH246738   5.042   3.637  13.957  0.5395 -0.1647  0.1138
 8416TIP3    H146739   5.059   3.731  13.960  0.1110 -0.0843  0.0440
 8416TIP3    H246740   4.970   3.627  13.895 -1.1141 -0.2761  1.9689
 8417TIP3   OH246741   0.539   3.285  12.623 -0.0127 -0.2018 -0.1801
 8417TIP3    H146742   0.450   3.319  12.637  0.0707 -0.4565  1.1149
 8417TIP3    H246743   0.536   3.195  12.655  1.1011  0.2960  1.4728
 8418TIP3   OH246744   6.104   3.600  13.447  0.2662 -0.0554  0.5171
 8418TIP3    H146745   6.120   3.588  13.354  1.0286 -1.3468  0.7965
 8418TIP3    H246746   6.028   3.544  13.465 -0.4572  0.8887  0.5202
 8419TIP3   OH246747   3.361   2.053   4.222  0.0128  0.8827 -0.5434
 8419TIP3    H146748   3.333   1.964   4.244 -0.6237  1.6296  2.0226
 8419TIP3    H246749   3.428   2.041   4.155  0.8606 -1.6334  0.6342
 8420TIP3   OH246750   0.848   6.011   0.963  0.4468  0.7037 -0.0815
 8420TIP3    H146751   0.923   6.003   1.023  1.3647 -1.4942 -1.3761
 8420TIP3    H246752   0.781   5.954   1.001  1.3444 -1.4112 -1.4308
 8421TIP3   OH246753   1.577   5.394   2.840 -0.2292  0.1377  0.2056
 8421TIP3    H146754   1.536   5.308   2.841 -0.6191  0.3205  0.8770
 8421TIP3    H246755   1.556   5.430   2.754  0.4551 -0.6695 -0.3182
 8422TIP3   OH246756   5.499   4.183  17.241  0.2583 -0.8888  0.1326
 8422TIP3    H146757   5.471   4.139  17.161  1.6137 -0.4884 -0.5982
 8422TIP3    H246758   5.527   4.112  17.299 -2.9061 -1.3837  1.2388
 8423TIP3   OH246759   3.147   2.466  12.077 -0.0860  0.3876  0.1185
 8423TIP3    H146760   3.058   2.501  12.072 -0.4890 -0.3803  1.6309
 8423TIP3    H246761   3.196   2.531  12.128 -0.3557 -0.2765  1.2461
 8424TIP3   OH246762   3.067   0.836  15.227  0.1940 -0.1539  0.0398
 8424TIP3    H146763   2.986   0.867  15.187 -0.1761  2.4411  2.4851
 8424TIP3    H246764   3.137   0.877  15.176 -0.1422  0.3502 -0.0143
 8425TIP3   OH246765   2.533   2.017   0.657  0.4170  0.6413 -0.2208
 8425TIP3    H146766   2.445   2.027   0.694  0.2725 -0.0380 -0.3653
 8425TIP3    H246767   2.542   1.923   0.642  1.1214  0.7199 -0.3321
 8426TIP3   OH246768   0.477   2.048  13.844  0.2917 -0.1029 -0.2046
 8426TIP3    H146769   0.404   2.099  13.808  0.2794 -0.6124 -0.9204
 8426TIP3    H246770   0.502   2.095  13.923  0.2653  0.9992 -0.8344
 8427TIP3   OH246771   5.515   5.161  15.084  0.0004  0.1551  0.2390
 8427TIP3    H146772   5.510   5.084  15.027 -0.8485  0.8569 -0.6728
 8427TIP3    H246773   5.445   5.148  15.148 -0.5537  0.4405 -0.2921
 8428TIP3   OH246774   5.717   6.157   0.151 -0.0927  0.1815  0.5109
 8428TIP3    H146775   5.771   6.138   0.227  0.1563  1.5269  0.7061
 8428TIP3    H246776   5.731   6.251   0.135  0.0183 -0.1100 -1.3048
 8429TIP3   OH246777   6.150   3.625  13.137  0.1628  0.5138 -0.6765
 8429TIP3    H146778   6.224   3.567  13.118  0.3320  0.3822  0.3596
 8429TIP3    H246779   6.181   3.712  13.109  1.1815  0.6742  0.8480
 8430TIP3   OH246780   5.983   5.359  14.988  0.1552 -0.9921 -0.4585
 8430TIP3    H146781   5.996   5.396  15.076  0.5630  0.2096 -1.0036
 8430TIP3    H246782   5.894   5.325  14.990 -0.4354  0.4810 -0.0538
 8431TIP3   OH246783   4.093   0.353  10.662  0.4698  0.5726 -0.1022
 8431TIP3    H146784   4.096   0.446  10.638 -0.2289  0.5785 -0.1889
 8431TIP3    H246785   4.141   0.309  10.591  1.2129  0.9094  0.1868
 8432TIP3   OH246786   3.564   1.105  13.956  0.0779  0.6789 -0.3732
 8432TIP3    H146787   3.552   1.066  14.043  0.0615  1.0762 -0.1986
 8432TIP3    H246788   3.641   1.060  13.921 -0.2487  0.1145 -0.3834
 8433TIP3   OH246789   5.779   2.546   1.568 -0.0276 -0.0898  0.3076
 8433TIP3    H146790   5.778   2.484   1.495 -0.8626  1.7713 -1.3684
 8433TIP3    H246791   5.689   2.578   1.574  0.7045  2.2228 -0.0707
 8434TIP3   OH246792   6.715   2.663   3.886  0.1468  0.0357 -0.2845
 8434TIP3    H146793   6.798   2.632   3.923 -0.8565 -1.0106  1.2226
 8434TIP3    H246794   6.711   2.756   3.911  2.1208  0.9143 -2.8479
 8435TIP3   OH246795   4.452   4.777  11.715  0.5700 -0.3035  0.8211
 8435TIP3    H146796   4.391   4.827  11.662 -0.0810 -1.3231  0.5701
 8435TIP3    H246797   4.455   4.823  11.799 -1.2326 -0.7026  1.1381
 8436TIP3   OH246798   1.162   0.274   3.234 -0.2005 -0.1505 -0.1072
 8436TIP3    H146799   1.087   0.217   3.217 -0.3246 -0.3173  0.9335
 8436TIP3    H246800   1.126   0.345   3.287  0.6947 -1.2537  2.1338
 8437TIP3   OH246801   3.882   1.858  11.843  0.3631 -0.3368  0.0181
 8437TIP3    H146802   3.826   1.911  11.901 -0.6418 -1.0352 -0.2993
 8437TIP3    H246803   3.825   1.832  11.772  0.3719 -3.1772  0.9424
 8438TIP3   OH246804   0.948   3.750   5.932  0.5709 -0.0576 -0.8374
 8438TIP3    H146805   0.920   3.793   5.852  1.0937  1.0326 -0.4547
 8438TIP3    H246806   0.878   3.766   5.995 -0.4192 -1.9612 -1.3861
 8439TIP3   OH246807   4.526   0.937  12.364  0.0186  0.1110 -0.3118
 8439TIP3    H146808   4.481   0.997  12.304 -2.1842  0.0409  1.1510
 8439TIP3    H246809   4.604   0.985  12.390  0.6749  0.4321 -2.6119
 8440TIP3   OH246810   5.155   5.378   3.525 -0.3367  0.6000 -0.2583
 8440TIP3    H146811   5.115   5.463   3.547 -1.9957  0.2330 -1.6408
 8440TIP3    H246812   5.214   5.397   3.452 -2.0336  0.3624 -1.7702
 8441TIP3   OH246813   0.734   0.553   0.943 -0.3018  0.5550  0.2420
 8441TIP3    H146814   0.808   0.606   0.913  1.4357 -0.5925  2.2322
 8441TIP3    H246815   0.710   0.592   1.027 -0.0694 -0.7875  0.9503
 8442TIP3   OH246816   6.431   0.689   0.192  0.5158  0.1501  0.2451
 8442TIP3    H146817   6.336   0.689   0.194  0.5175  0.0768  0.3494
 8442TIP3    H246818   6.456   0.610   0.240  0.6080 -0.6999 -1.1594
 8443TIP3   OH246819   2.102   3.410   4.511  0.0085 -0.1380 -0.0109
 8443TIP3    H146820   2.174   3.383   4.568 -0.4201  0.2877  0.7492
 8443TIP3    H246821   2.061   3.328   4.483  0.4264 -0.3587  0.0196
 8444TIP3   OH246822   0.971   5.757   4.906  0.3758  0.1234 -0.5256
 8444TIP3    H146823   1.028   5.821   4.862  0.9407 -0.8974 -1.3340
 8444TIP3    H246824   1.032   5.703   4.956  0.1668 -1.1138 -1.5669
 8445TIP3   OH246825   5.488   2.139   5.455 -0.4523  0.2556 -0.0243
 8445TIP3    H146826   5.447   2.092   5.383  2.1549  0.1602 -1.5809
 8445TIP3    H246827   5.472   2.084   5.532 -0.9677 -1.0568 -1.0386
 8446TIP3   OH246828   1.121   3.325  14.556 -0.5845  0.6277  0.2135
 8446TIP3    H146829   1.113   3.420  14.554 -1.2151  0.5708 -0.0505
 8446TIP3    H246830   1.060   3.297  14.623 -0.2762  0.4196  0.4079
 8447TIP3   OH246831   4.227   1.796  12.949 -0.5784 -0.3553 -0.3069
 8447TIP3    H146832   4.179   1.868  12.909 -1.7915 -2.2417 -2.4738
 8447TIP3    H246833   4.209   1.805  13.043 -2.6136  0.8151 -0.7391
 8448TIP3   OH246834   1.212   0.308   4.213  0.0793 -0.2840 -0.3382
 8448TIP3    H146835   1.184   0.290   4.123 -1.3560  0.3133 -0.0435
 8448TIP3    H246836   1.300   0.345   4.204 -0.3940  0.6202 -1.5807
 8449TIP3   OH246837   3.405   6.733  11.095  0.1651  0.0457  0.3470
 8449TIP3    H146838   3.380   6.644  11.071 -0.5480  0.5944 -1.1282
 8449TIP3    H246839   3.473   6.756  11.032  0.5093  0.4577  0.8678
 8450TIP3   OH246840   4.918   4.321   0.014 -0.2771  0.3118  0.1596
 8450TIP3    H146841   4.840   4.361  -0.024 -0.3542 -0.1388 -0.1770
 8450TIP3    H246842   4.973   4.394   0.041  0.3044  0.6995 -1.8751
 8451TIP3   OH246843   3.187   2.879   0.735  0.2957  0.7523 -0.2963
 8451TIP3    H146844   3.125   2.906   0.802 -1.3073 -1.6023 -0.7182
 8451TIP3    H246845   3.262   2.846   0.785 -0.2582  0.3806  0.3054
 8452TIP3   OH246846   4.499   0.748   5.799  0.4559 -0.3529 -0.2215
 8452TIP3    H146847   4.535   0.768   5.713 -1.1529 -0.4584 -0.9577
 8452TIP3    H246848   4.417   0.701   5.781 -0.9533  1.3703  1.3096
 8453TIP3   OH246849   0.707   5.056   4.409  0.6288 -0.6810  0.3444
 8453TIP3    H146850   0.617   5.066   4.441  0.3067 -3.0254  0.3272
 8453TIP3    H246851   0.746   5.143   4.419 -1.8197  0.5645 -0.2589
 8454TIP3   OH246852   0.570   0.248   3.571  0.0806 -0.5706 -0.5064
 8454TIP3    H146853   0.572   0.153   3.555  0.1635 -0.5796 -0.4484
 8454TIP3    H246854   0.537   0.286   3.490 -1.3901 -0.7553 -0.0216
 8455TIP3   OH246855   2.031   2.153   5.852 -0.6897 -0.0562  0.6515
 8455TIP3    H146856   2.056   2.095   5.780  0.0519  0.3769  0.5484
 8455TIP3    H246857   2.099   2.221   5.853 -1.7721  1.0770  0.4791
 8456TIP3   OH246858   3.797   5.374  11.652  0.1414  0.0079 -0.3881
 8456TIP3    H146859   3.734   5.392  11.582  1.1256 -0.4044 -1.4073
 8456TIP3    H246860   3.743   5.360  11.730 -0.9184  2.2608 -0.6268
 8457TIP3   OH246861   0.530   4.677   4.277  0.7727 -0.3344  0.2459
 8457TIP3    H146862   0.468   4.749   4.291 -1.7886 -2.2885 -0.2844
 8457TIP3    H246863   0.595   4.688   4.346 -0.1196  1.8653  0.8349
 8458TIP3   OH246864   1.942   4.437   6.057 -0.0308  0.1366  0.1864
 8458TIP3    H146865   1.855   4.408   6.082 -0.4036  2.4846  1.9708
 8458TIP3    H246866   1.956   4.399   5.970 -2.3599 -1.1554  0.2892
 8459TIP3   OH246867   5.455   2.997   1.278  0.0533 -0.1994  0.2831
 8459TIP3    H146868   5.538   2.980   1.324 -0.1032  0.6652  0.9189
 8459TIP3    H246869   5.389   2.998   1.347 -0.2128  0.9608  0.0324
 8460TIP3   OH246870   5.202   0.726  12.281  0.3532  0.0402  0.1038
 8460TIP3    H146871   5.249   0.768  12.209 -0.4743  0.0869 -0.4244
 8460TIP3    H246872   5.216   0.784  12.356  0.2699  0.5937 -0.3030
 8461TIP3   OH246873   6.173   1.098  14.188  0.1867 -0.2333 -0.2015
 8461TIP3    H146874   6.101   1.052  14.231 -0.8329  1.2572 -0.2233
 8461TIP3    H246875   6.252   1.062  14.229 -0.6619 -0.2976  1.4884
 8462TIP3   OH246876   0.908   1.499   4.694 -0.1932  0.2521 -0.2749
 8462TIP3    H146877   0.814   1.484   4.679 -0.2928  1.3325 -0.8303
 8462TIP3    H246878   0.913   1.591   4.722  0.6614  0.0695  0.1915
 8463TIP3   OH246879   4.026   6.755  14.979  0.0934 -0.1816  0.6867
 8463TIP3    H146880   4.071   6.675  14.952  1.5324  1.1950 -1.2614
 8463TIP3    H246881   3.942   6.752  14.934 -0.4041 -1.1764  1.6492
 8464TIP3   OH246882   1.694   6.153  16.675 -0.4822  0.3762 -0.3417
 8464TIP3    H146883   1.778   6.127  16.638  0.5215  2.3607  0.3454
 8464TIP3    H246884   1.683   6.097  16.752 -0.6123 -0.9972 -1.3292
 8465TIP3   OH246885   0.720   5.902  15.630 -0.0035 -0.1294  0.0187
 8465TIP3    H146886   0.647   5.949  15.588 -0.5852 -1.2387 -0.2377
 8465TIP3    H246887   0.694   5.896  15.722  0.3722  0.5924  0.1815
 8466TIP3   OH246888   5.395   6.217  16.346 -0.8909 -0.2091 -0.1772
 8466TIP3    H146889   5.320   6.277  16.350 -1.0732 -0.1142 -2.9344
 8466TIP3    H246890   5.408   6.203  16.253  2.3045 -0.5676  0.2309
 8467TIP3   OH246891   5.038   0.066  16.295 -0.1855  0.3877 -0.7174
 8467TIP3    H146892   5.090   0.039  16.371 -0.1895 -0.0542 -0.8660
 8467TIP3    H246893   5.067   0.155  16.276 -2.1067  1.5766  1.4790
 8468TIP3   OH246894   2.813   4.937  13.758 -0.1987 -0.4200 -0.4053
 8468TIP3    H146895   2.873   5.012  13.758 -0.8172  0.0909 -1.2331
 8468TIP3    H246896   2.757   4.952  13.834 -0.1013 -0.2235 -0.3709
 8469TIP3   OH246897   0.597   3.476   3.193 -0.0907 -0.3736  0.3370
 8469TIP3    H146898   0.522   3.417   3.192  0.9441 -1.8676 -2.3731
 8469TIP3    H246899   0.619   3.487   3.285 -3.3171 -0.2317  1.1797
 8470TIP3   OH246900   2.503   4.896  12.144 -0.1026 -0.7314 -0.1531
 8470TIP3    H146901   2.451   4.973  12.166  1.4219  0.0178  1.0284
 8470TIP3    H246902   2.483   4.879  12.052 -1.1963  0.4889 -0.1652
 8471TIP3   OH246903   0.309   2.255   2.969  0.6285  0.2169  0.3198
 8471TIP3    H146904   0.254   2.325   3.004 -0.7808 -0.6947  0.0308
 8471TIP3    H246905   0.274   2.238   2.882  1.4421 -0.3349  0.0856
 8472TIP3   OH246906   2.256   2.423   2.182  0.2431  0.0198 -0.6898
 8472TIP3    H146907   2.200   2.499   2.170 -1.0280 -0.5438  1.2797
 8472TIP3    H246908   2.244   2.371   2.103 -1.9797 -0.0333 -0.3722
 8473TIP3   OH246909   3.692   2.714  11.214  0.1716 -0.1520 -0.2362
 8473TIP3    H146910   3.784   2.713  11.186  0.5419  0.3252  0.8887
 8473TIP3    H246911   3.694   2.672  11.301 -0.8074 -0.8827 -0.5467
 8474TIP3   OH246912   4.324   4.414  10.914 -0.2367  0.2326  0.1203
 8474TIP3    H146913   4.259   4.355  10.875  1.3916 -1.0111 -0.8535
 8474TIP3    H246914   4.313   4.496  10.867 -0.5415 -0.2204 -0.6182
 8475TIP3   OH246915   4.180   0.913  11.640 -0.3505  0.1814  0.1124
 8475TIP3    H146916   4.143   0.999  11.662  1.2763  0.5017  1.8148
 8475TIP3    H246917   4.244   0.896  11.709  0.5175 -1.6922 -1.0796
 8476TIP3   OH246918   3.676   6.600  10.559 -0.1842 -0.0984 -0.2983
 8476TIP3    H146919   3.713   6.518  10.527  1.7147  0.4899  0.2607
 8476TIP3    H246920   3.705   6.607  10.649 -0.9691  0.8359 -0.0963
 8477TIP3   OH246921   6.764   1.246   4.614 -0.2222 -0.0642  0.3655
 8477TIP3    H146922   6.760   1.330   4.569  1.2181 -0.7481 -1.1124
 8477TIP3    H246923   6.674   1.213   4.612 -0.4552  0.6086 -0.6678
 8478TIP3   OH246924   0.481   0.409  11.252 -0.7513  0.2207  0.1267
 8478TIP3    H146925   0.461   0.336  11.311 -0.0020 -0.8762 -0.9213
 8478TIP3    H246926   0.464   0.374  11.165  1.1764  0.7541 -0.5080
 8479TIP3   OH246927   1.309   1.761  15.685  0.2884 -1.0292  0.1425
 8479TIP3    H146928   1.361   1.739  15.763 -0.5773 -1.4641  0.6133
 8479TIP3    H246929   1.224   1.786  15.720  0.6412  1.3131 -0.4985
 8480TIP3   OH246930   3.523   0.943  14.406 -0.1003  0.1422  0.1996
 8480TIP3    H146931   3.437   0.904  14.395 -0.7518  1.4766  0.3699
 8480TIP3    H246932   3.581   0.888  14.353 -0.7290 -1.7586  1.3813
 8481TIP3   OH246933   4.065   2.164  11.421 -0.1875  1.1734  0.5204
 8481TIP3    H146934   3.979   2.148  11.461  0.3616 -0.9543  0.9887
 8481TIP3    H246935   4.059   2.122  11.335  0.0403  2.0061  0.0847
 8482TIP3   OH246936   3.736   3.366  16.521 -0.1326  0.5212  0.2931
 8482TIP3    H146937   3.814   3.310  16.526 -0.0813  0.6263  0.6932
 8482TIP3    H246938   3.666   3.313  16.561 -0.3596  0.2725 -0.4211
 8483TIP3   OH246939   1.607   3.404  13.481  0.2865 -0.1389  0.2456
 8483TIP3    H146940   1.691   3.444  13.500  1.0100 -0.5833 -1.7527
 8483TIP3    H246941   1.604   3.326  13.535  1.8832 -0.9514 -0.7630
 8484TIP3   OH246942   1.483   2.270   2.675  0.1592 -0.3371  0.0081
 8484TIP3    H146943   1.417   2.313   2.729 -0.0429 -0.4914 -0.1161
 8484TIP3    H246944   1.441   2.256   2.591  0.2508 -0.6982  0.0184
 8485TIP3   OH246945   4.519   4.447   1.853  0.4018 -0.1182  0.2833
 8485TIP3    H146946   4.449   4.382   1.859  1.9143 -1.9604 -0.8713
 8485TIP3    H246947   4.476   4.526   1.820 -1.2975 -0.8240  0.6778
 8486TIP3   OH246948   0.667   0.441  13.903  0.6116 -0.0795  0.1278
 8486TIP3    H146949   0.662   0.414  13.995 -0.5183  2.3567  0.8525
 8486TIP3    H246950   0.735   0.508  13.902  2.0283 -1.4618 -1.2574
 8487TIP3   OH246951   6.541   4.431  14.717 -0.3441  0.0054  0.1585
 8487TIP3    H146952   6.588   4.393  14.792  3.1009  0.5991 -1.5377
 8487TIP3    H246953   6.507   4.514  14.750  1.1253  0.2670  1.1107
 8488TIP3   OH246954   2.951   0.048  16.360  0.5427  0.3077 -0.1756
 8488TIP3    H146955   3.023   0.055  16.424 -0.1622 -1.1865  0.8623
 8488TIP3    H246956   2.872   0.066  16.411 -0.0123 -0.6028 -0.6898
 8489TIP3   OH246957   0.609   4.848   0.300  0.1826  0.1692 -0.4168
 8489TIP3    H146958   0.573   4.935   0.319  1.1720  0.8621 -1.5862
 8489TIP3    H246959   0.671   4.832   0.372  0.7963  0.9253 -0.7554
 8490TIP3   OH246960   2.383   1.785  10.999 -0.2958  0.1215 -0.0881
 8490TIP3    H146961   2.298   1.817  11.027 -1.4847 -1.1401 -1.9800
 8490TIP3    H246962   2.416   1.853  10.939  0.5923  1.1291  1.4823
 8491TIP3   OH246963   1.332   1.531   6.397  0.0927  0.2488 -0.3971
 8491TIP3    H146964   1.362   1.461   6.455 -0.6120 -0.2691 -0.6407
 8491TIP3    H246965   1.252   1.563   6.438  0.0384  0.4408 -0.6519
 8492TIP3   OH246966   4.985   1.368   1.425 -0.6775  0.0522  0.1909
 8492TIP3    H146967   5.055   1.369   1.489 -0.4345  2.5439 -0.0120
 8492TIP3    H246968   4.999   1.287   1.375  1.5618  0.0711  0.6806
 8493TIP3   OH246969   3.154   2.024  11.950  0.2910 -0.0545  0.3352
 8493TIP3    H146970   3.220   2.070  11.897  0.0584  1.9715  1.6938
 8493TIP3    H246971   3.196   1.942  11.975  2.3471  1.1773  1.1651
 8494TIP3   OH246972   0.965   6.325  16.151 -0.4865 -0.0139 -0.2548
 8494TIP3    H146973   0.971   6.285  16.064 -2.5984  0.5806 -0.7389
 8494TIP3    H246974   1.027   6.276  16.204  0.5600 -0.6693 -1.9906
 8495TIP3   OH246975   3.059   1.747   0.497  0.7284 -0.2364  0.4310
 8495TIP3    H146976   3.005   1.723   0.422 -1.4162  0.9130  1.4985
 8495TIP3    H246977   3.019   1.701   0.571  3.1405 -1.8184  0.8830
 8496TIP3   OH246978   0.424   4.098  14.402 -0.0717  0.2444  0.4041
 8496TIP3    H146979   0.353   4.081  14.341  0.2739  0.5439 -0.0877
 8496TIP3    H246980   0.455   4.011  14.427 -0.9960  0.0938  1.0971
 8497TIP3   OH246981   5.619   0.704   0.958  0.1377 -0.1768  0.0467
 8497TIP3    H146982   5.714   0.713   0.949  0.4527 -0.3926  2.5339
 8497TIP3    H246983   5.586   0.794   0.959  0.5628 -0.0162  1.0738
 8498TIP3   OH246984   2.812   2.736   0.624  0.0545 -0.2793  0.4646
 8498TIP3    H146985   2.800   2.816   0.573  0.4110 -0.3549  0.2585
 8498TIP3    H246986   2.743   2.740   0.691  0.4832  0.5330  0.8807
 8499TIP3   OH246987   1.959   6.121   6.161  0.2866 -0.1895  0.0645
 8499TIP3    H146988   1.887   6.162   6.209  0.6032 -0.1169  0.4803
 8499TIP3    H246989   1.919   6.046   6.118  0.2381 -1.0213  1.4811
 8500TIP3   OH246990   1.342   0.770  16.959 -0.2168  0.1571  0.5164
 8500TIP3    H146991   1.382   0.700  17.010  1.3103  0.7344  0.1456
 8500TIP3    H246992   1.362   0.749  16.868 -2.4096 -0.5413  0.1288
 8501TIP3   OH246993   4.032   4.797   3.032  0.5757  0.1112 -0.0291
 8501TIP3    H146994   4.064   4.885   3.049 -0.5483  0.4260  0.5330
 8501TIP3    H246995   4.079   4.769   2.953  0.9262  1.2121 -0.2240
 8502TIP3   OH246996   5.441   3.274   6.090 -0.2540 -0.2084  0.0810
 8502TIP3    H146997   5.346   3.262   6.089 -0.1778 -1.1696  1.3956
 8502TIP3    H246998   5.459   3.330   6.015 -1.9435  0.6313  0.2448
 8503TIP3   OH246999   2.430   3.304   2.061 -0.0859  0.5377 -0.2481
 8503TIP3    H147000   2.445   3.247   2.137 -1.9973 -1.5004 -1.2698
 8503TIP3    H247001   2.511   3.300   2.011 -0.1573 -1.4032 -0.2886
 8504TIP3   OH247002   5.578   5.607   3.829 -0.3822 -0.2116  0.8383
 8504TIP3    H147003   5.483   5.619   3.830 -0.5188 -0.7847 -1.1395
 8504TIP3    H247004   5.594   5.552   3.753  1.7285  1.7331 -0.2325
 8505TIP3   OH247005   0.098   2.239  16.565  0.5201 -0.4133  0.7789
 8505TIP3    H147006   0.015   2.230  16.518  0.1454  0.7424  1.1883
 8505TIP3    H247007   0.141   2.155  16.553 -0.5690 -0.9256  0.2832
 8506TIP3   OH247008   4.433   1.355   2.988 -0.6292 -0.2750  0.4668
 8506TIP3    H147009   4.489   1.428   3.014  0.1587 -0.3640 -0.8653
 8506TIP3    H247010   4.492   1.293   2.944 -1.3681 -1.4886  1.1229
 8507TIP3   OH247011   2.566   3.206  16.302 -0.1971 -0.0714  0.3436
 8507TIP3    H147012   2.600   3.123  16.269 -0.7589 -0.8384  1.6480
 8507TIP3    H247013   2.483   3.218  16.256 -0.8257 -0.9807  1.2128
 8508TIP3   OH247014   6.407   5.027  14.500 -0.0224 -0.3602 -0.4791
 8508TIP3    H147015   6.451   5.094  14.448  0.1936 -0.5733 -0.5756
 8508TIP3    H247016   6.476   4.962  14.519 -0.1892 -0.4755 -0.2539
 8509TIP3   OH247017   5.659   4.353   3.562 -0.0366  0.0032 -0.4353
 8509TIP3    H147018   5.587   4.353   3.625 -1.6917  1.3301 -2.2209
 8509TIP3    H247019   5.737   4.333   3.615 -0.9988  2.9794  2.4579
 8510TIP3   OH247020   4.315   3.905  16.126  0.5342 -0.0166  0.6312
 8510TIP3    H147021   4.409   3.914  16.112  0.8953 -1.7834  1.5482
 8510TIP3    H247022   4.299   3.811  16.120 -0.8512  0.0601  2.2651
 8511TIP3   OH247023   4.106   3.087   4.707 -0.3723 -0.8442  0.6158
 8511TIP3    H147024   4.014   3.110   4.696  0.1683  0.8888 -0.6357
 8511TIP3    H247025   4.154   3.164   4.677  1.5055 -1.9331  0.6796
 8512TIP3   OH247026   6.044   2.015   4.218 -0.1737  0.4002  0.2186
 8512TIP3    H147027   6.023   1.936   4.268 -0.4325 -1.3458 -2.4376
 8512TIP3    H247028   5.969   2.073   4.232 -1.4993 -1.1421 -0.2373
 8513TIP3   OH247029   3.710   6.680  11.491 -0.0307  0.1724 -0.1165
 8513TIP3    H147030   3.667   6.596  11.475  0.4528 -0.1870  0.4225
 8513TIP3    H247031   3.714   6.722  11.405  0.0389 -0.5089 -0.4521
 8514TIP3   OH247032   6.717   3.534   6.051  0.3370 -0.5742  0.1728
 8514TIP3    H147033   6.695   3.580   6.132  0.6485 -1.3141  0.6994
 8514TIP3    H247034   6.772   3.461   6.080  1.8759  0.1058 -0.8783
 8515TIP3   OH247035   3.425   6.049  16.503 -0.1461 -0.4786 -0.0523
 8515TIP3    H147036   3.458   6.129  16.543 -0.7293 -0.2076 -0.1076
 8515TIP3    H247037   3.382   6.078  16.422  0.3931 -0.9418 -0.5147
 8516TIP3   OH247038   4.493   3.523  11.732 -0.2006 -0.4472  0.1485
 8516TIP3    H147039   4.584   3.525  11.759 -0.3860 -1.0625  0.8378
 8516TIP3    H247040   4.455   3.448  11.779 -1.2567  0.2904  0.5086
 8517TIP3   OH247041   3.602   2.011   1.405 -0.4871  0.6453  0.0152
 8517TIP3    H147042   3.580   1.984   1.495 -0.3541  0.3647 -0.0338
 8517TIP3    H247043   3.568   2.100   1.398 -0.4543  0.6881  0.3606
 8518TIP3   OH247044   1.666   4.315   2.769  0.3912  0.2465  0.0222
 8518TIP3    H147045   1.582   4.351   2.797  1.3655  1.7676  1.2353
 8518TIP3    H247046   1.682   4.242   2.829 -0.1399 -0.1710 -0.3380
 8519TIP3   OH247047   3.602   5.263  16.542  0.1792  0.1185  0.1871
 8519TIP3    H147048   3.642   5.195  16.488  0.9299 -0.0411  0.9218
 8519TIP3    H247049   3.660   5.271  16.618  0.1496  1.6315  0.0811
 8520TIP3   OH247050   3.027   3.747   4.450 -0.2338 -0.3500  0.3373
 8520TIP3    H147051   2.990   3.836   4.443 -2.2126 -1.1624 -0.2391
 8520TIP3    H247052   3.065   3.744   4.537 -1.6161  0.5633  1.0144
 8521TIP3   OH247053   5.007   0.976   2.045 -0.3167 -0.5439 -0.3156
 8521TIP3    H147054   4.913   0.993   2.045 -0.1030  0.9233 -1.7492
 8521TIP3    H247055   5.039   1.012   2.127 -0.9671 -0.8304  0.0673
 8522TIP3   OH247056   3.242   3.841  16.793 -0.0610 -0.0238  0.0627
 8522TIP3    H147057   3.279   3.841  16.881 -0.5050 -0.4866  0.2571
 8522TIP3    H247058   3.148   3.832  16.807 -0.0753 -0.8037 -0.4732
 8523TIP3   OH247059   5.812   6.119   4.604  0.4500 -1.1381 -0.0249
 8523TIP3    H147060   5.798   6.173   4.682 -2.6004 -1.6681 -0.0761
 8523TIP3    H247061   5.848   6.037   4.638 -1.7212 -1.7301  1.0800
 8524TIP3   OH247062   5.209   5.615  15.295 -0.4592  0.0922 -0.5503
 8524TIP3    H147063   5.114   5.622  15.307 -0.2022  0.9426  1.2863
 8524TIP3    H247064   5.241   5.705  15.304  0.5693 -0.2412 -0.7211
 8525TIP3   OH247065   2.784   0.379   3.924  0.1462  0.4425 -0.2524
 8525TIP3    H147066   2.808   0.320   3.853 -0.3793  0.9581 -0.8726
 8525TIP3    H247067   2.694   0.405   3.904 -0.0525  0.4994  0.6732
 8526TIP3   OH247068   0.671   2.869  15.494 -0.5617  0.2409  0.5763
 8526TIP3    H147069   0.620   2.926  15.552 -0.9194 -0.7209  1.2358
 8526TIP3    H247070   0.706   2.802  15.552 -2.0853 -1.5846 -0.4970
 8527TIP3   OH247071   3.544   1.920  13.966 -0.6621 -0.3459 -0.0404
 8527TIP3    H147072   3.506   1.838  13.998 -2.3192 -0.1927 -1.4873
 8527TIP3    H247073   3.614   1.940  14.029 -1.3611 -1.9421  1.3195
 8528TIP3   OH247074   4.069   4.239   3.403  0.5786 -0.4234 -0.0800
 8528TIP3    H147075   4.023   4.162   3.435  2.1954 -1.0377  0.8612
 8528TIP3    H247076   4.000   4.292   3.361 -1.3044 -0.5223  2.6016
 8529TIP3   OH247077   0.207   5.980  14.361 -0.0094  0.0063 -0.3780
 8529TIP3    H147078   0.155   6.022  14.292  0.9668  0.8012 -0.6464
 8529TIP3    H247079   0.154   5.991  14.440 -1.3450 -1.2949 -1.0355
 8530TIP3   OH247080   0.687   5.145   6.439 -0.0930 -0.3455  0.4691
 8530TIP3    H147081   0.665   5.086   6.511 -2.2198 -2.0602 -1.4346
 8530TIP3    H247082   0.604   5.182   6.412  0.7054  0.5452 -0.8785
 8531TIP3   OH247083   1.891   2.026   3.792  0.0791 -0.6161  0.6685
 8531TIP3    H147084   1.833   2.051   3.720 -0.7394 -2.8090  0.4963
 8531TIP3    H247085   1.979   2.046   3.759 -0.3732 -0.2100 -0.3409
 8532TIP3   OH247086   6.698   2.108  16.437  0.2995 -0.1733  0.0651
 8532TIP3    H147087   6.657   2.075  16.517  0.3442 -1.0526 -0.2628
 8532TIP3    H247088   6.705   2.031  16.380 -1.8475  0.8136 -1.6969
 8533TIP3   OH247089   2.782   2.572  16.261  0.6191 -0.5395  0.2797
 8533TIP3    H147090   2.715   2.546  16.199  1.3959 -2.0916  0.0545
 8533TIP3    H247091   2.759   2.526  16.342 -0.9038  2.1401  1.5449
 8534TIP3   OH247092   0.702   6.207   4.606  0.3196 -0.3204 -0.1274
 8534TIP3    H147093   0.610   6.222   4.583 -0.2973 -3.5270 -0.2043
 8534TIP3    H247094   0.750   6.224   4.525 -0.0086  2.2573  0.1392
 8535TIP3   OH247095   3.150   2.934   3.477  0.1639 -0.6510 -0.3251
 8535TIP3    H147096   3.163   3.022   3.441 -2.1309 -0.6614 -1.3362
 8535TIP3    H247097   3.177   2.942   3.569  3.6397  0.0462 -1.2496
 8536TIP3   OH247098   3.191   4.055  11.560  0.0363  0.1270  0.4140
 8536TIP3    H147099   3.209   4.077  11.469 -0.7084 -0.0048  0.2238
 8536TIP3    H247100   3.183   4.139  11.604  4.5648  0.3153  1.3066
 8537TIP3   OH247101   6.489   2.440  10.779 -0.1352  0.1099  0.2100
 8537TIP3    H147102   6.513   2.453  10.871 -0.8898  1.4284  0.2404
 8537TIP3    H247103   6.398   2.408  10.783  0.0561 -0.4814 -0.0613
 8538TIP3   OH247104   5.451   2.549   4.788 -0.1969 -0.5245  0.2196
 8538TIP3    H147105   5.384   2.604   4.746 -0.8428 -1.8317 -0.5158
 8538TIP3    H247106   5.403   2.501   4.855 -0.0562 -1.6202 -0.4494
 8539TIP3   OH247107   3.799   1.756  11.527  0.1936 -0.3737  0.0134
 8539TIP3    H147108   3.808   1.714  11.442 -0.6790  0.1454 -0.3432
 8539TIP3    H247109   3.863   1.828  11.525 -0.5233  0.2675 -0.6098
 8540TIP3   OH247110   4.955   4.702  10.894 -0.3109 -0.0373  0.3639
 8540TIP3    H147111   4.955   4.734  10.803 -0.8764 -1.1086 -0.0329
 8540TIP3    H247112   5.030   4.745  10.934 -0.8687  1.5542 -0.2113
 8541TIP3   OH247113   2.154   1.165  10.770 -0.0084  0.2198  0.0417
 8541TIP3    H147114   2.086   1.208  10.822  0.4705  1.1694 -0.0790
 8541TIP3    H247115   2.114   1.085  10.738 -1.6240  1.4962 -1.3125
 8542TIP3   OH247116   5.062   0.581  15.488 -0.6269 -0.3827 -0.1123
 8542TIP3    H147117   5.036   0.578  15.396  0.5929  0.6598 -0.5190
 8542TIP3    H247118   5.070   0.675  15.507 -1.0041 -0.5879  1.0929
 8543TIP3   OH247119   3.809   1.426   5.791 -0.3956 -0.5173 -0.4211
 8543TIP3    H147120   3.844   1.498   5.739  0.5104 -0.9154 -0.3798
 8543TIP3    H247121   3.721   1.412   5.756 -2.1449  2.9770  1.8943
 8544TIP3   OH247122   6.325   2.246   5.760 -0.3017  0.1477 -0.2591
 8544TIP3    H147123   6.232   2.223   5.748  0.2687 -2.0467 -0.9410
 8544TIP3    H247124   6.353   2.191   5.833  0.0695  2.1317  1.1723
 8545TIP3   OH247125   4.949   3.572  15.368  0.0577  0.4617  0.4301
 8545TIP3    H147126   5.009   3.498  15.361 -0.0042  0.3210  1.2554
 8545TIP3    H247127   4.944   3.608  15.280  0.0569 -0.5410  0.0139
 8546TIP3   OH247128   2.282   1.225   2.175  0.4920  0.1145  0.2841
 8546TIP3    H147129   2.296   1.136   2.143  1.1067  0.3100 -0.0032
 8546TIP3    H247130   2.191   1.244   2.154 -0.3782 -1.3067  2.4765
 8547TIP3   OH247131   3.967   3.358   3.884  0.1101  0.0006 -0.6663
 8547TIP3    H147132   4.054   3.396   3.869  0.1928 -0.1699 -0.6292
 8547TIP3    H247133   3.927   3.356   3.798  0.1312  0.1102 -0.6789
 8548TIP3   OH247134   3.797   6.275  16.855  0.1233  0.6472 -0.0528
 8548TIP3    H147135   3.716   6.302  16.812 -1.3948 -0.0363  2.1929
 8548TIP3    H247136   3.851   6.354  16.856 -1.0372  1.4800 -0.4581
 8549TIP3   OH247137   3.436   0.716  11.822 -0.3219 -0.0420  0.0601
 8549TIP3    H147138   3.378   0.650  11.859 -1.0518  0.2275 -0.5709
 8549TIP3    H247139   3.420   0.712  11.728  2.1722 -1.3741 -0.3973
 8550TIP3   OH247140   2.639   4.339  12.189  0.7203 -0.0955 -0.7027
 8550TIP3    H147141   2.697   4.366  12.119 -0.2249  0.1765 -1.3988
 8550TIP3    H247142   2.660   4.247  12.204  2.2436  0.3298 -0.0084
 8551TIP3   OH247143   6.094   1.916  11.106 -0.0827 -0.5150  0.1538
 8551TIP3    H147144   6.114   1.860  11.031  1.4223  1.7617 -1.2677
 8551TIP3    H247145   6.012   1.959  11.083  1.9907  2.7270 -1.9617
 8552TIP3   OH247146   5.279   3.705   2.302  0.8086  0.1871  0.1331
 8552TIP3    H147147   5.318   3.780   2.259  0.1722 -0.5268 -1.7713
 8552TIP3    H247148   5.294   3.721   2.396  3.5201  1.0712 -0.3665
 8553TIP3   OH247149   1.941   4.094   0.660 -0.2196  0.1270  0.1440
 8553TIP3    H147150   1.958   4.025   0.724  0.1550  0.5024  0.4565
 8553TIP3    H247151   1.975   4.174   0.701 -1.6217  0.6994  0.2503
 8554TIP3   OH247152   5.091   3.332   0.066  0.0100 -0.9051  0.0729
 8554TIP3    H147153   5.094   3.422   0.034 -1.5822 -1.4239 -1.7294
 8554TIP3    H247154   5.162   3.288   0.019 -0.1487 -0.9126 -0.1592
 8555TIP3   OH247155   0.265   4.983  16.197 -0.2976 -0.2938  0.2654
 8555TIP3    H147156   0.222   4.913  16.148  2.0434 -0.7174 -1.3583
 8555TIP3    H247157   0.294   4.942  16.278 -0.3101 -0.7896  0.0224
 8556TIP3   OH247158   4.486   2.756  12.699 -0.3979  0.0998  0.5388
 8556TIP3    H147159   4.521   2.719  12.618  0.4096  1.3448  0.2961
 8556TIP3    H247160   4.393   2.732  12.697 -0.0055 -1.5805  0.2412
 8557TIP3   OH247161   4.761   1.189   1.928  0.2274 -0.5659  0.0963
 8557TIP3    H147162   4.833   1.244   1.959  1.0759 -1.1728 -0.7464
 8557TIP3    H247163   4.741   1.223   1.841 -2.9876  1.9619  1.6221
 8558TIP3   OH247164   6.616   1.246  12.252  0.0290 -0.3085  0.1903
 8558TIP3    H147165   6.541   1.216  12.201 -0.3514  0.3368  0.3574
 8558TIP3    H247166   6.577   1.299  12.322  0.4969 -1.5726  1.4457
 8559TIP3   OH247167   2.750   2.714   0.916  0.0320 -0.2355 -0.1984
 8559TIP3    H147168   2.823   2.654   0.903  0.4464 -0.2244  1.7359
 8559TIP3    H247169   2.774   2.764   0.995 -2.5338 -0.9762  1.1501
 8560TIP3   OH247170   4.362   2.941   3.220 -0.0781  0.0246  0.8036
 8560TIP3    H147171   4.287   2.925   3.278 -1.1560  1.1992 -0.1922
 8560TIP3    H247172   4.322   2.968   3.137  1.4518 -0.1847 -0.0275
 8561TIP3   OH247173   1.894   5.403   5.050  0.5169  0.0618  0.2114
 8561TIP3    H147174   1.934   5.490   5.043  0.9408 -0.2053 -0.9002
 8561TIP3    H247175   1.802   5.418   5.027  0.7413  0.1124 -0.6922
 8562TIP3   OH247176   3.030   1.119  15.552  0.3303 -0.5343  0.4461
 8562TIP3    H147177   2.997   1.033  15.527  0.6542 -0.6013  0.2417
 8562TIP3    H247178   3.124   1.106  15.565  0.1059 -0.6269  2.2780
 8563TIP3   OH247179   4.918   3.293  14.107  0.3333  0.2735  0.2767
 8563TIP3    H147180   4.939   3.323  14.196 -0.6342  1.2844  0.1822
 8563TIP3    H247181   4.826   3.315  14.095 -0.5693 -2.9836  0.2474
 8564TIP3   OH247182   3.844   1.275  14.104  0.1466  0.2577 -0.2022
 8564TIP3    H147183   3.793   1.326  14.041  0.1405 -0.2319 -0.5954
 8564TIP3    H247184   3.925   1.253  14.058  0.4651  0.5261  0.2175
 8565TIP3   OH247185   0.045   6.766  16.007 -0.3145  0.0781  0.4317
 8565TIP3    H147186   0.068   6.764  15.914 -1.7059 -0.2002  0.0693
 8565TIP3    H247187   0.115   6.816  16.049  2.0726 -2.4817 -0.2418
 8566TIP3   OH247188   2.030   5.621  16.839  0.1790  0.1709 -0.2369
 8566TIP3    H147189   1.995   5.588  16.922 -1.1381  0.7537 -0.5207
 8566TIP3    H247190   2.027   5.716  16.849 -0.7179  0.2642 -1.2036
 8567TIP3   OH247191   3.788   3.602   5.025 -0.0415 -0.4516 -0.9939
 8567TIP3    H147192   3.858   3.644   4.975 -0.4987  0.0004 -1.2669
 8567TIP3    H247193   3.745   3.543   4.962  0.3644 -1.0573 -0.7101
 8568TIP3   OH247194   1.260   5.967   2.705  0.4306  0.0914 -0.2219
 8568TIP3    H147195   1.210   6.007   2.633 -0.9706  1.5986  1.4816
 8568TIP3    H247196   1.347   6.006   2.699  0.2187  0.4795 -0.8641
 8569TIP3   OH247197   1.849   4.425  10.782  0.4927 -0.1178 -0.5235
 8569TIP3    H147198   1.856   4.334  10.811 -0.4943  0.3234  1.2313
 8569TIP3    H247199   1.790   4.466  10.845  0.5753  1.6497 -1.5281
 8570TIP3   OH247200   6.114   2.380  13.003 -0.1026  0.2026 -0.6337
 8570TIP3    H147201   6.101   2.453  12.943  0.5339  0.8243 -0.0343
 8570TIP3    H247202   6.027   2.364  13.040 -0.2316  0.7133 -0.7062
 8571TIP3   OH247203   2.081   3.569  10.663  0.5044 -0.1546 -0.2858
 8571TIP3    H147204   2.058   3.478  10.679 -0.7392  0.1426 -0.2848
 8571TIP3    H247205   2.108   3.602  10.749  0.4832 -0.3957 -0.1850
 8572TIP3   OH247206   6.190   1.663  14.308  0.5418 -0.2029 -0.2663
 8572TIP3    H147207   6.280   1.645  14.334  0.2554 -1.2978  0.0309
 8572TIP3    H247208   6.178   1.614  14.227 -0.2918 -1.4850  0.6079
 8573TIP3   OH247209   4.719   0.501   1.548  0.7439 -0.4285  0.7161
 8573TIP3    H147210   4.752   0.427   1.497 -2.4833 -0.1187 -2.1488
 8573TIP3    H247211   4.660   0.462   1.613  0.5172 -0.4951  0.4703
 8574TIP3   OH247212   5.319   1.955   3.962  0.2842 -0.1396 -0.2057
 8574TIP3    H147213   5.229   1.929   3.983 -0.2476 -0.4648 -2.6253
 8574TIP3    H247214   5.310   2.045   3.929  0.8296 -0.2371 -0.6253
 8575TIP3   OH247215   1.891   4.288   4.408  0.1177 -0.3410  0.7647
 8575TIP3    H147216   1.922   4.379   4.408 -1.1581  0.1116  0.7650
 8575TIP3    H247217   1.876   4.268   4.500 -1.2695  0.0584  0.6464
 8576TIP3   OH247218   4.931   2.320   1.879  0.1478  0.2642 -0.4845
 8576TIP3    H147219   4.837   2.327   1.896  0.3066 -0.7004  0.9706
 8576TIP3    H247220   4.962   2.258   1.944  2.2945  2.6772  0.9630
 8577TIP3   OH247221   4.245   6.157  14.737  0.2483 -0.9522 -0.4304
 8577TIP3    H147222   4.171   6.179  14.793 -0.3771  1.0926 -1.9538
 8577TIP3    H247223   4.312   6.222  14.760  0.8908 -1.6140 -0.3894
 8578TIP3   OH247224   0.412   4.948  16.891 -0.7116 -0.2243 -0.0412
 8578TIP3    H147225   0.448   4.981  16.973 -0.4826  3.2357 -1.3980
 8578TIP3    H247226   0.322   4.982  16.889 -0.9158 -0.7730 -0.9748
 8579TIP3   OH247227   0.286   2.256   5.536 -0.0773 -0.0326  0.6077
 8579TIP3    H147228   0.208   2.313   5.536 -0.4621 -0.5358 -0.0855
 8579TIP3    H247229   0.253   2.172   5.505  0.5722 -0.5136  1.2267
 8580TIP3   OH247230   1.007   6.452   5.167 -0.2992  0.1195  0.4616
 8580TIP3    H147231   1.099   6.467   5.185  0.4031 -0.4768 -2.2214
 8580TIP3    H247232   1.004   6.420   5.077 -3.0429 -0.9567  0.8188
 8581TIP3   OH247233   2.170   4.911  15.655  0.1121 -0.3617 -0.4719
 8581TIP3    H147234   2.133   4.950  15.576 -0.8078 -1.2674 -0.5009
 8581TIP3    H247235   2.156   4.978  15.723  0.0530  0.0308 -0.8654
 8582TIP3   OH247236   3.611   5.638  10.498  0.5248 -0.0937  0.0637
 8582TIP3    H147237   3.531   5.636  10.445  0.0639  1.3869  0.6582
 8582TIP3    H247238   3.681   5.619  10.436  0.0677  2.2159 -1.2670
 8583TIP3   OH247239   3.844   5.991   3.182  0.3485 -0.2459  0.3157
 8583TIP3    H147240   3.753   6.020   3.178  0.7992  1.1727 -0.6939
 8583TIP3    H247241   3.857   5.942   3.101  0.9790  1.2859 -0.5653
 8584TIP3   OH247242   3.887   0.378   5.476  0.0140 -0.0487  0.2179
 8584TIP3    H147243   3.953   0.431   5.522 -1.7152  3.3601 -0.9337
 8584TIP3    H247244   3.804   0.401   5.518 -0.7934 -2.5606  0.1798
 8585TIP3   OH247245   6.097   5.802   4.443 -0.0664 -0.7800  0.2128
 8585TIP3    H147246   6.098   5.781   4.349  1.2058 -0.8302  0.2268
 8585TIP3    H247247   6.012   5.769   4.473 -1.0259  0.2980 -1.1362
 8586TIP3   OH247248   0.158   5.326   0.509  0.5122  0.4277  0.2085
 8586TIP3    H147249   0.127   5.261   0.572 -1.9329  0.8902 -0.4115
 8586TIP3    H247250   0.252   5.332   0.524  0.3993 -1.4130  1.9689
 8587TIP3   OH247251   2.025   3.986  15.619  0.0335  0.3044 -0.0914
 8587TIP3    H147252   2.103   4.042  15.612 -0.0967  0.6465  0.9331
 8587TIP3    H247253   2.040   3.935  15.699 -1.0723  0.8503  0.4922
 8588TIP3   OH247254   0.602   0.144   3.167 -0.2599 -0.6358  0.2889
 8588TIP3    H147255   0.521   0.194   3.178  0.6137  1.2176 -1.0882
 8588TIP3    H247256   0.603   0.120   3.075  2.2195  2.3103 -0.6274
 8589TIP3   OH247257   1.421   3.129   1.797  0.0368 -0.3126  0.3367
 8589TIP3    H147258   1.340   3.094   1.833  0.2416  0.7038  1.8984
 8589TIP3    H247259   1.440   3.073   1.722 -1.6265 -1.1191  0.4683
 8590TIP3   OH247260   5.157   3.706   1.907 -0.0235  0.0860  0.1431
 8590TIP3    H147261   5.154   3.637   1.973 -0.5907 -0.9321 -0.8983
 8590TIP3    H247262   5.248   3.735   1.906  0.2180 -0.6364  0.6208
 8591TIP3   OH247263   2.936   6.604  11.931  0.6790  0.2304 -0.3229
 8591TIP3    H147264   2.953   6.625  12.023  0.5409 -0.5844 -0.1055
 8591TIP3    H247265   3.012   6.638  11.884  1.6378 -0.9797  0.3122
 8592TIP3   OH247266   2.087   6.025   1.866 -0.0167  0.0330 -0.4560
 8592TIP3    H147267   2.148   6.030   1.792 -0.7185 -1.8635 -1.2208
 8592TIP3    H247268   2.071   6.116   1.890  2.9577  0.6202 -0.3309
 8593TIP3   OH247269   1.775   3.966   2.631 -0.2573 -0.0363  0.1536
 8593TIP3    H147270   1.822   3.928   2.557 -0.8747 -1.1440  0.3094
 8593TIP3    H247271   1.808   4.056   2.637  1.2734 -0.5578 -0.1847
 8594TIP3   OH247272   6.679   4.890  16.768  0.4781 -0.9771  0.2328
 8594TIP3    H147273   6.632   4.911  16.849  1.5363 -0.8625  0.8440
 8594TIP3    H247274   6.634   4.813  16.733 -1.1670  0.0792 -0.0863
 8595TIP3   OH247275   5.868   6.411   2.141  0.0030 -0.8165  0.0213
 8595TIP3    H147276   5.933   6.341   2.141  0.3851 -0.4770  1.1340
 8595TIP3    H247277   5.793   6.374   2.095  0.1660 -2.0051  0.6792
 8596TIP3   OH247278   1.009   6.147  15.587 -0.5959  0.2530 -0.8707
 8596TIP3    H147279   0.969   6.164  15.672  0.2487  1.3929 -0.6780
 8596TIP3    H247280   0.976   6.217  15.530 -0.3160  0.1295 -1.1931
 8597TIP3   OH247281   1.923   6.812  11.550 -0.3213 -0.4012  0.1762
 8597TIP3    H147282   1.960   6.744  11.605  0.3858  0.3273  0.6206
 8597TIP3    H247283   1.992   6.832  11.486  0.1737  1.0813  1.1132
 8598TIP3   OH247284   0.069   4.349   2.175  0.0109 -0.5260 -0.5153
 8598TIP3    H147285   0.006   4.288   2.214  0.5737 -1.5588 -1.1509
 8598TIP3    H247286   0.081   4.316   2.085 -0.9397  1.5260 -1.4575
 8599TIP3   OH247287   5.912   6.728  15.253 -0.8068 -0.1035  0.3619
 8599TIP3    H147288   5.883   6.798  15.310  1.4203  0.0191  1.4466
 8599TIP3    H247289   5.870   6.649  15.288  0.6833 -0.0762  2.4329
 8600TIP3   OH247290   0.257   1.502  13.891  0.2074  0.3354 -0.4203
 8600TIP3    H147291   0.289   1.452  13.967  0.0185  0.6049 -0.1618
 8600TIP3    H247292   0.332   1.504  13.831  0.1789 -0.3582 -0.4871
 8601TIP3   OH247293   2.029   0.835  11.432  0.3175  0.1328  0.0425
 8601TIP3    H147294   2.116   0.794  11.428 -0.2476 -1.2140  0.7682
 8601TIP3    H247295   1.983   0.801  11.356 -0.1697 -0.6386  0.6693
 8602TIP3   OH247296   5.489   6.178  14.666 -0.0151 -0.3692  0.4756
 8602TIP3    H147297   5.477   6.137  14.751 -0.4678  0.3791  0.7833
 8602TIP3    H247298   5.481   6.107  14.603  3.2906 -1.5167  1.1526
 8603TIP3   OH247299   0.885   0.540  15.253  0.3088 -0.3146  0.0673
 8603TIP3    H147300   0.799   0.556  15.213  1.3202 -0.0426 -2.1205
 8603TIP3    H247301   0.898   0.446  15.243  0.6412 -0.2184 -0.4212
 8604TIP3   OH247302   5.112   0.297   0.928 -0.0132  0.0175 -0.1169
 8604TIP3    H147303   5.187   0.345   0.963 -0.3472  0.6486 -0.2472
 8604TIP3    H247304   5.048   0.297   1.000  1.9647 -5.2081  2.2035
 8605TIP3   OH247305   3.038   3.560  12.564  0.3682 -0.2006 -0.0251
 8605TIP3    H147306   3.062   3.499  12.494 -1.1082 -1.5708  0.5744
 8605TIP3    H247307   3.079   3.523  12.642  0.5775  0.3500  0.1288
 8606TIP3   OH247308   3.278   2.930   2.676 -0.1771  0.2454  0.2326
 8606TIP3    H147309   3.340   2.955   2.608 -1.1546  0.4362 -0.5976
 8606TIP3    H247310   3.333   2.915   2.754  0.9387  0.0738 -0.5688
 8607TIP3   OH247311   1.394   4.928   4.789 -0.1107  0.0055 -1.1237
 8607TIP3    H147312   1.381   4.841   4.826  0.8825  0.1622 -0.3595
 8607TIP3    H247313   1.416   4.913   4.697 -2.2716 -0.4120 -1.6442
 8608TIP3   OH247314   5.996   5.661   1.537 -0.2497  0.4632  0.4168
 8608TIP3    H147315   6.032   5.645   1.625 -2.0819 -1.4766  0.8838
 8608TIP3    H247316   6.058   5.722   1.497 -0.0211  2.4579  3.4917
 8609TIP3   OH247317   2.464   4.818   5.032  0.2854  0.4766  0.9099
 8609TIP3    H147318   2.502   4.735   5.003 -0.0616  0.3665  0.7643
 8609TIP3    H247319   2.450   4.867   4.951  2.2445  1.4623  1.1042
 8610TIP3   OH247320   5.745   0.035  12.846  0.3098  0.1687 -0.3444
 8610TIP3    H147321   5.737  -0.035  12.912 -1.7175 -0.8255 -1.5583
 8610TIP3    H247322   5.799  -0.004  12.777 -0.2118  0.0405 -0.6877
 8611TIP3   OH247323   4.871   1.248   0.220  0.5866  0.4023 -0.1416
 8611TIP3    H147324   4.782   1.239   0.186  0.1789 -0.0698  1.0101
 8611TIP3    H247325   4.916   1.169   0.190  0.9308  1.1008 -1.5639
 8612TIP3   OH247326   4.648   3.559  15.038 -0.2577 -0.1626  0.2835
 8612TIP3    H147327   4.650   3.510  15.121  0.3503 -1.0512 -0.2504
 8612TIP3    H247328   4.561   3.542  15.003  0.1473 -1.3718 -0.1841
 8613TIP3   OH247329   1.300   3.065  12.810 -0.2645 -0.1033 -0.0228
 8613TIP3    H147330   1.313   3.156  12.837 -1.1292 -0.5831  2.2359
 8613TIP3    H247331   1.387   3.036  12.784  0.6774  0.5217  2.1655
 8614TIP3   OH247332   2.293   3.136   2.883  0.0396  0.3044 -0.1160
 8614TIP3    H147333   2.272   3.216   2.932  0.5444 -0.1597  0.8854
 8614TIP3    H247334   2.282   3.065   2.946  0.9113 -0.2898 -0.6100
 8615TIP3   OH247335   0.288   2.676   5.541  0.1146 -0.6653  0.1926
 8615TIP3    H147336   0.219   2.620   5.505 -1.2103  0.5528  0.7560
 8615TIP3    H247337   0.250   2.713   5.621  1.1416  0.6076  0.1258
 8616TIP3   OH247338   6.686   4.003   3.665 -0.4501 -0.7589 -0.3555
 8616TIP3    H147339   6.651   3.987   3.753 -1.5237  1.1844 -0.3855
 8616TIP3    H247340   6.646   4.085   3.637  1.6022 -0.1567 -1.7834
 8617TIP3   OH247341   5.600   5.436  10.266  0.6055  0.2286  0.5254
 8617TIP3    H147342   5.681   5.439  10.216  0.5223 -0.0820  0.3719
 8617TIP3    H247343   5.628   5.444  10.358  1.0761 -2.5840  0.7247
 8618TIP3   OH247344   3.944   2.749   4.968 -0.7878  0.3066  0.0925
 8618TIP3    H147345   3.988   2.685   4.912 -2.1543 -0.0827 -0.5858
 8618TIP3    H247346   4.001   2.825   4.966 -0.2865 -0.0657 -1.0201
 8619TIP3   OH247347   4.368   6.627  17.025 -0.5622  0.0271 -0.4432
 8619TIP3    H147348   4.447   6.615  16.972 -0.7515 -0.0611 -0.7026
 8619TIP3    H247349   4.343   6.718  17.009 -0.8267 -0.1049 -0.7907
 8620TIP3   OH247350   2.700   0.704   3.268  0.3302  0.1985  0.0931
 8620TIP3    H147351   2.678   0.797   3.278 -1.1824 -0.1792  0.6059
 8620TIP3    H247352   2.789   0.697   3.304  0.8689  1.5968 -0.8550
 8621TIP3   OH247353   5.802   5.776   5.711 -0.8027  0.3703  0.0550
 8621TIP3    H147354   5.827   5.820   5.629  1.6691 -0.2065  0.4067
 8621TIP3    H247355   5.712   5.747   5.696 -0.3919  0.1700 -2.5166
 8622TIP3   OH247356   5.488   0.539  12.255  0.0671 -0.0682 -0.4465
 8622TIP3    H147357   5.421   0.477  12.282  0.2808 -0.7548 -1.4164
 8622TIP3    H247358   5.535   0.561  12.335  0.0670 -1.2780 -0.0926
 8623TIP3   OH247359   1.251   2.516  16.999 -0.1758  0.2577  0.1087
 8623TIP3    H147360   1.238   2.580  17.069 -0.2576 -2.2877  2.5697
 8623TIP3    H247361   1.164   2.481  16.982 -0.2253  1.1094 -1.6400
 8624TIP3   OH247362   2.116   1.948   2.627  0.0011 -0.2656  0.0704
 8624TIP3    H147363   2.023   1.943   2.648  0.3865 -2.3275  1.5419
 8624TIP3    H247364   2.123   2.022   2.566 -2.4100  0.6514  0.8045
 8625TIP3   OH247365   3.829   1.735  11.113  0.0184  0.2168 -0.3739
 8625TIP3    H147366   3.863   1.672  11.176  1.5654  0.2111 -1.1731
 8625TIP3    H247367   3.906   1.782  11.081 -1.0504  2.3694  0.0085
 8626TIP3   OH247368   3.203   5.601  12.400 -0.3087 -0.4513 -0.4718
 8626TIP3    H147369   3.173   5.646  12.480 -3.0380 -0.0895 -1.5844
 8626TIP3    H247370   3.161   5.515  12.404  1.4297 -1.3371 -0.4447
 8627TIP3   OH247371   4.057   0.306  12.890 -0.9497 -1.1070 -0.0949
 8627TIP3    H147372   4.123   0.262  12.943  1.1138  0.6941 -0.9906
 8627TIP3    H247373   3.992   0.336  12.953 -1.1311 -3.1673  0.7865
 8628TIP3   OH247374   6.483   6.092  17.250 -0.5998  0.2639  0.1425
 8628TIP3    H147375   6.500   5.998  17.255 -3.6578 -0.3246  2.1467
 8628TIP3    H247376   6.523   6.128  17.329 -0.1371  0.5318 -0.2089
 8629TIP3   OH247377   4.135   2.235  16.203  0.1570  0.1915  0.6322
 8629TIP3    H147378   4.078   2.310  16.218 -0.7280 -0.2830 -0.1707
 8629TIP3    H247379   4.196   2.264  16.135 -1.7887 -0.5329 -1.5660
 8630TIP3   OH247380   2.681   5.508  14.474  0.3004  0.1289  0.1615
 8630TIP3    H147381   2.639   5.592  14.458 -0.0179  0.1616  1.0832
 8630TIP3    H247382   2.609   5.449  14.498  0.4325 -0.5939 -1.1345
 8631TIP3   OH247383   4.607   0.058  14.406 -0.5968 -0.8735  0.0756
 8631TIP3    H147384   4.634   0.111  14.481  1.4228 -2.5518  0.6648
 8631TIP3    H247385   4.533   0.007  14.438 -0.3369 -0.9102  0.6326
 8632TIP3   OH247386   1.873   1.583  17.149 -0.3878 -0.0999  0.7439
 8632TIP3    H147387   1.927   1.649  17.193  0.1172 -0.6295  0.9359
 8632TIP3    H247388   1.920   1.564  17.068 -0.8957  0.2794  0.3543
 8633TIP3   OH247389   2.278   5.762  11.392 -0.7786 -0.0218  0.0263
 8633TIP3    H147390   2.219   5.704  11.344  0.7758  0.0206 -2.0740
 8633TIP3    H247391   2.336   5.703  11.441  2.0393 -0.5720 -3.5641
 8634TIP3   OH247392   0.834   0.139  14.713 -0.0268 -0.5322  0.2636
 8634TIP3    H147393   0.906   0.098  14.665  0.6292 -1.0311  1.6516
 8634TIP3    H247394   0.764   0.148  14.647  0.9138 -0.9998 -0.8345
 8635TIP3   OH247395   4.339   4.251  12.039 -0.1281  0.5621 -0.0319
 8635TIP3    H147396   4.298   4.298  11.967 -1.2088  0.3270  0.4107
 8635TIP3    H247397   4.381   4.319  12.091  1.8013  0.6232 -1.5423
 8636TIP3   OH247398   1.601   0.334  15.883 -0.6575  0.6317 -0.9107
 8636TIP3    H147399   1.540   0.362  15.951  0.9386 -1.5915  1.6486
 8636TIP3    H247400   1.599   0.238  15.886  1.4521  0.4823 -2.1089
 8637TIP3   OH247401   0.494   1.403  11.945 -0.1413 -0.2781 -0.6711
 8637TIP3    H147402   0.581   1.444  11.934 -0.5611  0.4851 -1.2700
 8637TIP3    H247403   0.451   1.416  11.861 -0.8855 -0.5477 -0.3384
 8638TIP3   OH247404   0.071   1.547  13.237 -0.1868 -0.6254  0.2269
 8638TIP3    H147405   0.044   1.560  13.328  1.8423  2.3015  0.5381
 8638TIP3    H247406  -0.004   1.577  13.185  0.1692  1.8248  1.0218
 8639TIP3   OH247407   1.467   1.971  16.566 -0.1480  0.0368  0.9060
 8639TIP3    H147408   1.486   1.902  16.502  0.3840 -0.2739  1.3891
 8639TIP3    H247409   1.553   1.995  16.601 -0.3903  0.5385  1.1582
 8640TIP3   OH247410   5.126   2.249   4.724  0.1443 -0.4142 -0.3133
 8640TIP3    H147411   5.053   2.273   4.667 -0.4647 -0.6758  0.3337
 8640TIP3    H247412   5.203   2.287   4.682 -0.5362  1.0736 -0.3066
 8641TIP3   OH247413   3.458   3.951  13.419 -0.0100  0.2511 -0.2927
 8641TIP3    H147414   3.522   3.921  13.355 -0.3632  1.6597 -1.3760
 8641TIP3    H247415   3.505   4.014  13.473 -0.0073 -0.0842  0.0961
 8642TIP3   OH247416   5.156   2.012   4.516  0.3912 -0.5394 -0.0912
 8642TIP3    H147417   5.066   2.019   4.549 -0.8756  0.2588 -3.3752
 8642TIP3    H247418   5.187   2.102   4.511  1.3360 -0.8029  0.8535
 8643TIP3   OH247419   4.274   2.684  15.387  0.3965 -0.6751 -0.1447
 8643TIP3    H147420   4.284   2.664  15.294  1.5520 -0.1579 -0.1539
 8643TIP3    H247421   4.319   2.613  15.432 -2.4541 -2.4114  0.1821
 8644TIP3   OH247422   6.218   0.527   3.477  0.4914 -0.0646  0.1022
 8644TIP3    H147423   6.145   0.465   3.487  0.2408  0.0776 -0.7525
 8644TIP3    H247424   6.265   0.496   3.399  0.0099  1.1556 -0.7101
 8645TIP3   OH247425   3.641   2.420  11.973 -0.3841 -0.1650  0.2725
 8645TIP3    H147426   3.659   2.513  11.987  3.1388  0.0198 -3.6550
 8645TIP3    H247427   3.700   2.375  12.034  0.2690  0.2354 -0.0559
 8646TIP3   OH247428   5.074   1.177  15.919 -0.1819 -0.4568  0.0875
 8646TIP3    H147429   5.093   1.198  16.011 -1.5257 -1.0732  0.5228
 8646TIP3    H247430   4.986   1.141  15.920 -0.7265  0.7184 -1.6372
 8647TIP3   OH247431   4.801   3.528  11.778  0.1381 -0.0341 -0.2018
 8647TIP3    H147432   4.863   3.456  11.765  1.0232  0.7872 -0.6180
 8647TIP3    H247433   4.821   3.590  11.708  1.4858  2.0719  1.9210
 8648TIP3   OH247434   2.782   6.384   4.006 -0.7567 -0.0304 -0.0065
 8648TIP3    H147435   2.767   6.315   4.071 -0.0502 -0.4860 -0.3141
 8648TIP3    H247436   2.834   6.450   4.052 -0.2434 -0.3602 -0.1120
 8649TIP3   OH247437   1.006   1.578   2.077  0.6969 -0.0545 -0.2079
 8649TIP3    H147438   0.932   1.633   2.101 -0.3307 -0.9822 -1.1272
 8649TIP3    H247439   1.027   1.530   2.157  0.4879  0.4146  0.1328
 8650TIP3   OH247440   6.083   6.790  11.817 -0.2802  0.1305 -0.0275
 8650TIP3    H147441   6.178   6.802  11.820 -0.3505  0.6203  1.0495
 8650TIP3    H247442   6.069   6.700  11.847 -0.2220  0.6771  1.8079
 8651TIP3   OH247443   2.573   1.831   6.000  0.0777  0.0034  0.1093
 8651TIP3    H147444   2.609   1.889   6.067 -0.2306  0.5433 -0.1890
 8651TIP3    H247445   2.480   1.852   5.998 -0.0217 -0.4489 -0.0607
 8652TIP3   OH247446   2.604   6.243   0.466  0.4966  0.7811  0.0948
 8652TIP3    H147447   2.557   6.293   0.399  2.2896  0.8720 -1.1694
 8652TIP3    H247448   2.580   6.151   0.448 -0.7858  0.9571  0.7946
 8653TIP3   OH247449   6.221   1.793  16.399  0.1948  0.3914  0.1681
 8653TIP3    H147450   6.237   1.704  16.367 -0.3040  0.9187 -1.6396
 8653TIP3    H247451   6.217   1.847  16.320 -1.3386  1.7327  1.1033
 8654TIP3   OH247452   2.304   5.820   3.542 -0.0566 -0.4258  0.0386
 8654TIP3    H147453   2.282   5.832   3.635 -0.9712  1.3831 -0.3706
 8654TIP3    H247454   2.251   5.745   3.514 -1.2026  0.1725  0.5404
 8655TIP3   OH247455   0.792   1.586  14.893 -0.1473  0.3920 -0.6615
 8655TIP3    H147456   0.781   1.497  14.859 -0.7091  0.4661 -0.6725
 8655TIP3    H247457   0.729   1.638  14.844  0.8499  0.9834 -1.3558
 8656TIP3   OH247458   0.660   2.428   4.345  0.1131  0.3746 -0.3971
 8656TIP3    H147459   0.704   2.505   4.309 -0.3116  0.9293  0.2606
 8656TIP3    H247460   0.654   2.444   4.439 -0.3695 -0.2597 -0.3075
 8657TIP3   OH247461   4.987   0.344   2.717 -0.0501  0.5237  0.5289
 8657TIP3    H147462   5.034   0.261   2.731 -1.8007 -0.7594 -0.7518
 8657TIP3    H247463   4.935   0.355   2.796  1.0877  1.0732  1.2265
 8658TIP3   OH247464   4.278   5.833  13.007  0.4556 -0.1907  0.6209
 8658TIP3    H147465   4.240   5.856  12.922 -1.3083 -0.8409  1.1941
 8658TIP3    H247466   4.330   5.755  12.989 -0.7955 -0.9767  0.3156
 8659TIP3   OH247467   5.694   6.709  11.930  0.1234  0.1757 -0.5108
 8659TIP3    H147468   5.629   6.769  11.892 -0.6540 -0.6280 -0.4673
 8659TIP3    H247469   5.683   6.719  12.024 -0.0213 -0.0498 -0.5038
 8660TIP3   OH247470   4.942   3.644  12.189  0.4063  0.0960 -0.2616
 8660TIP3    H147471   4.888   3.581  12.141  0.1887 -1.5352  1.9434
 8660TIP3    H247472   4.888   3.723  12.193 -1.2217 -0.9949  0.5728
 8661TIP3   OH247473   1.874   2.009  14.684 -0.3959 -0.3714  0.2629
 8661TIP3    H147474   1.906   2.035  14.598 -0.0756  1.9250  1.0131
 8661TIP3    H247475   1.781   2.033  14.684 -0.1542  0.5923  0.8980
 8662TIP3   OH247476   0.124   1.018  11.201 -0.1166  0.2037  0.7292
 8662TIP3    H147477   0.128   1.110  11.176  1.3662  0.0234  0.1805
 8662TIP3    H247478   0.206   0.981  11.169 -0.8728 -1.4127  0.5525
 8663TIP3   OH247479   1.744   1.113  12.704  0.1287  0.0138 -0.1987
 8663TIP3    H147480   1.738   1.032  12.654 -0.5338  0.1531 -0.3502
 8663TIP3    H247481   1.675   1.169  12.668 -0.6869 -0.0582  1.1569
 8664TIP3   OH247482   6.243   2.166   2.473 -0.1407 -0.3354  0.0932
 8664TIP3    H147483   6.192   2.215   2.537 -0.2759  0.8140 -0.8676
 8664TIP3    H247484   6.308   2.119   2.525 -1.0180 -0.3811  1.1668
 8665TIP3   OH247485   1.756   2.786   2.674 -0.5587  0.0609  0.4208
 8665TIP3    H147486   1.813   2.857   2.644  1.0200 -0.3816  2.1492
 8665TIP3    H247487   1.703   2.826   2.743 -0.1710 -0.2508  0.9045
 8666TIP3   OH247488   0.345   5.771   6.293  0.1324 -0.0308  0.2210
 8666TIP3    H147489   0.306   5.688   6.320 -1.1911  1.1964  2.4857
 8666TIP3    H247490   0.285   5.806   6.228  1.2774 -1.2668 -1.5875
 8667TIP3   OH247491   2.711   4.335  16.958  0.0532  0.4842  0.5426
 8667TIP3    H147492   2.708   4.250  17.004  0.2428  0.5026  0.5929
 8667TIP3    H247493   2.630   4.338  16.907  0.4867 -0.1627 -0.2243
 8668TIP3   OH247494   5.927   4.646  11.100  0.2304 -0.3936 -0.4830
 8668TIP3    H147495   5.865   4.719  11.098  1.5942  0.9143  1.1770
 8668TIP3    H247496   5.900   4.594  11.176  0.0267 -0.9072 -0.9024
 8669TIP3   OH247497   6.741   2.653   1.652 -0.1669  0.1017 -0.4333
 8669TIP3    H147498   6.781   2.732   1.689  1.9025 -0.2614 -1.7071
 8669TIP3    H247499   6.791   2.581   1.691 -1.9657 -0.6409  0.6413
 8670TIP3   OH247500   6.187   6.735  15.849  0.3870 -0.4371 -0.5659
 8670TIP3    H147501   6.178   6.739  15.944  0.5701 -0.5183 -0.5466
 8670TIP3    H247502   6.110   6.783  15.816 -0.5720 -1.7906 -0.4057
 8671TIP3   OH247503   0.635   1.695   1.658 -0.0256  0.1805  0.0836
 8671TIP3    H147504   0.684   1.707   1.576 -0.6503  1.0429 -0.1813
 8671TIP3    H247505   0.669   1.764   1.716  0.5105 -0.5132  0.6065
 8672TIP3   OH247506   0.123   6.319  14.514 -0.3974  0.3990  0.3129
 8672TIP3    H147507   0.194   6.353  14.569  1.0857 -0.7786 -0.7926
 8672TIP3    H247508   0.127   6.372  14.434 -0.0239 -0.3918 -0.2007
 8673TIP3   OH247509   1.937   5.550   1.043  0.4380  0.3289 -0.5882
 8673TIP3    H147510   1.956   5.540   0.950  1.2622 -0.1069 -0.3784
 8673TIP3    H247511   2.007   5.605   1.077  1.0993 -0.8684  0.0879
 8674TIP3   OH247512   1.793   0.452  10.636 -0.1293 -0.3024 -0.2483
 8674TIP3    H147513   1.776   0.368  10.677  0.2469 -0.6432 -0.7824
 8674TIP3    H247514   1.717   0.506  10.659  1.5599  0.7359  3.9872
 8675TIP3   OH247515   2.868   0.841   2.989 -0.4162  0.3120 -0.1505
 8675TIP3    H147516   2.788   0.789   2.985 -0.5832  0.6044 -0.7579
 8675TIP3    H247517   2.893   0.841   3.081 -0.2215 -1.1210 -0.1818
 8676TIP3   OH247518   3.729   3.451  13.685 -0.1853 -0.1549 -0.5453
 8676TIP3    H147519   3.790   3.413  13.622 -1.5529 -1.6032 -1.0548
 8676TIP3    H247520   3.647   3.404  13.670 -1.5928  2.0610 -0.2474
 8677TIP3   OH247521   5.868   6.377  17.141 -0.2038  0.8912 -0.4736
 8677TIP3    H147522   5.827   6.305  17.093 -0.0159  0.9759 -0.7599
 8677TIP3    H247523   5.824   6.376  17.226 -1.4041  1.5206 -1.0583
 8678TIP3   OH247524   4.669   0.404  12.121 -0.3101  0.1142  0.2697
 8678TIP3    H147525   4.598   0.340  12.112  1.6322 -1.9085 -1.9268
 8678TIP3    H247526   4.666   0.454  12.039  1.7352 -1.1168 -0.6204
 8679TIP3   OH247527   5.939   3.569  14.803  0.4757 -0.2939  0.2733
 8679TIP3    H147528   6.014   3.521  14.838  0.5531 -1.9039 -1.8993
 8679TIP3    H247529   5.863   3.530  14.844  0.6346 -1.3459 -0.3941
 8680TIP3   OH247530   3.337   1.930  16.780  0.6160 -0.0915  0.4188
 8680TIP3    H147531   3.327   1.890  16.867 -0.6435  0.9779  0.8107
 8680TIP3    H247532   3.336   1.856  16.719 -1.6092 -0.7264  1.1120
 8681TIP3   OH247533   5.703   0.941   1.365  0.2544 -0.3412 -0.3221
 8681TIP3    H147534   5.765   0.888   1.415 -0.7771 -1.2136  0.0684
 8681TIP3    H247535   5.626   0.884   1.353  0.4805 -0.2302 -2.9961
 8682TIP3   OH247536   4.580   2.607  12.117  0.4458  0.2800  0.0591
 8682TIP3    H147537   4.628   2.540  12.166 -0.9354 -1.2641 -0.6141
 8682TIP3    H247538   4.569   2.570  12.030  0.8140  1.9947 -0.7471
 8683TIP3   OH247539   3.777   5.004  14.873  0.2532  0.4497  0.2903
 8683TIP3    H147540   3.864   5.034  14.845  0.9086 -0.6938  1.0052
 8683TIP3    H247541   3.728   4.993  14.792  0.7346  1.2435 -0.1144
 8684TIP3   OH247542   5.510   1.076  13.271 -0.8909  0.8036  0.3908
 8684TIP3    H147543   5.584   1.031  13.229 -1.3189 -0.6170  1.0693
 8684TIP3    H247544   5.525   1.065  13.365 -1.8596  0.6396  0.5411
 8685TIP3   OH247545   6.804   6.693  16.795 -0.0699  0.0615  0.3425
 8685TIP3    H147546   6.851   6.634  16.854 -2.3301 -2.1519  0.0681
 8685TIP3    H247547   6.817   6.780  16.834  4.1345 -0.3047  0.2744
 8686TIP3   OH247548   3.628   4.286   1.977  0.3927 -0.4762  0.4376
 8686TIP3    H147549   3.664   4.375   1.975  0.4470 -0.4155  2.2273
 8686TIP3    H247550   3.612   4.264   1.886 -1.0607  1.9843 -0.0081
 8687TIP3   OH247551   1.412   5.108  14.260  0.3170 -0.4420 -0.2707
 8687TIP3    H147552   1.356   5.030  14.259  0.7235 -0.8074  1.4807
 8687TIP3    H247553   1.365   5.172  14.207 -0.4372 -1.5946 -1.0459
 8688TIP3   OH247554   0.930   5.716   1.419  0.0452  0.3954 -0.2695
 8688TIP3    H147555   0.837   5.691   1.414  0.0331  0.2556  0.4179
 8688TIP3    H247556   0.936   5.768   1.500  0.3268  1.5157 -0.9936
 8689TIP3   OH247557   3.512   0.024  16.631 -0.4405  0.3376  0.4771
 8689TIP3    H147558   3.587  -0.032  16.615  0.0327  1.1404 -0.1761
 8689TIP3    H247559   3.436  -0.029  16.607 -0.1566 -0.7156  1.7780
 8690TIP3   OH247560   2.224   1.509   3.260 -0.3747 -0.0142 -0.0929
 8690TIP3    H147561   2.304   1.553   3.291  0.7559 -2.5265  0.8066
 8690TIP3    H247562   2.155   1.574   3.273  1.3169  1.8513  0.1842
 8691TIP3   OH247563   4.962   0.994  12.818  0.1779  0.2263 -0.7303
 8691TIP3    H147564   4.920   1.074  12.849 -1.4604  0.4906 -3.2628
 8691TIP3    H247565   4.899   0.925  12.839  0.3399  0.0165 -0.9372
 8692TIP3   OH247566   6.194   5.590   0.622  0.4386  0.7911 -0.2315
 8692TIP3    H147567   6.193   5.498   0.649 -0.8654  0.6848 -0.5881
 8692TIP3    H247568   6.200   5.588   0.527  0.3788  1.0776 -0.2437
 8693TIP3   OH247569   6.803   4.374  15.867 -0.2538 -0.5815 -0.5450
 8693TIP3    H147570   6.805   4.311  15.795  1.3084 -0.3588 -0.7240
 8693TIP3    H247571   6.864   4.443  15.840 -1.4679  0.7265 -0.0825
 8694TIP3   OH247572   3.293   3.786   4.710 -1.1397 -0.0987  0.7566
 8694TIP3    H147573   3.217   3.729   4.698 -0.3650 -1.0733  0.3925
 8694TIP3    H247574   3.368   3.730   4.691 -0.3975  1.3441 -0.8979
 8695TIP3   OH247575   5.781   1.227   1.210  0.7046 -0.3351  0.4847
 8695TIP3    H147576   5.736   1.182   1.138  2.0431  0.4507 -0.9006
 8695TIP3    H247577   5.834   1.158   1.251  0.0643 -0.7484  0.6503
 8696TIP3   OH247578   0.826   4.859  14.245 -0.2828 -0.3874 -0.0241
 8696TIP3    H147579   0.883   4.936  14.237  0.0326 -0.4612  1.2795
 8696TIP3    H247580   0.881   4.785  14.222 -0.0479 -0.3957  0.5648
 8697TIP3   OH247581   1.774   1.959  12.476 -0.3779  0.5319  0.1183
 8697TIP3    H147582   1.848   1.981  12.418 -0.7788 -1.0923 -1.0690
 8697TIP3    H247583   1.698   1.997  12.432 -0.3450  1.9860  1.2189
 8698TIP3   OH247584   4.248   3.772   5.369  0.4614 -0.0535 -0.6627
 8698TIP3    H147585   4.246   3.799   5.461 -1.8322  2.6792 -1.3622
 8698TIP3    H247586   4.328   3.809   5.334  0.1240  1.0530 -0.2905
 8699TIP3   OH247587   3.540   6.526  15.677  0.0172  0.3250 -0.1980
 8699TIP3    H147588   3.569   6.570  15.597  1.8861 -0.5772 -0.0781
 8699TIP3    H247589   3.514   6.439  15.648 -0.2188  0.3168  0.0350
 8700TIP3   OH247590   6.179   6.381   4.220  0.3272 -0.6404  0.5065
 8700TIP3    H147591   6.206   6.429   4.142 -0.5216 -1.0436 -0.0493
 8700TIP3    H247592   6.083   6.385   4.218  0.2908 -0.5745  1.5805
 8701TIP3   OH247593   2.695   2.461   4.080  0.0885  0.2490 -0.0695
 8701TIP3    H147594   2.743   2.387   4.117 -3.4322 -2.1403  0.1323
 8701TIP3    H247595   2.718   2.535   4.138  4.0315 -0.3633 -0.5343
 8702TIP3   OH247596   1.071   3.216  15.333  0.0969 -0.2923 -0.1848
 8702TIP3    H147597   1.035   3.279  15.396 -1.1157  0.6186 -1.7132
 8702TIP3    H247598   0.998   3.158  15.312  0.7510 -1.1823 -0.0439
 8703TIP3   OH247599   5.804   6.119  14.613  0.4103 -0.3448 -0.0883
 8703TIP3    H147600   5.822   6.143  14.523  0.8430 -1.8075 -0.4160
 8703TIP3    H247601   5.712   6.142  14.626  0.9946  2.2785 -0.0469
 8704TIP3   OH247602   4.317   3.401  13.220  0.1307 -1.0020  0.1223
 8704TIP3    H147603   4.236   3.445  13.196  0.7701  0.5510  0.6780
 8704TIP3    H247604   4.289   3.316  13.254 -1.2122 -0.7272 -0.2248
 8705TIP3   OH247605   2.985   1.628   5.958 -0.3803 -0.1613 -0.3323
 8705TIP3    H147606   2.988   1.719   5.986 -1.6626 -0.3567  0.5452
 8705TIP3    H247607   2.967   1.632   5.864  2.0712  0.4878 -0.8389
 8706TIP3   OH247608   4.969   5.818  12.753 -0.3371 -0.8660  0.4246
 8706TIP3    H147609   4.935   5.814  12.663  1.1625  1.1477 -0.2894
 8706TIP3    H247610   4.908   5.876  12.799 -0.3314 -0.8076  0.3581
 8707TIP3   OH247611   3.627   1.687  15.535  0.2479 -0.1115 -0.1681
 8707TIP3    H147612   3.611   1.668  15.442  1.0240 -0.2672 -0.2808
 8707TIP3    H247613   3.714   1.727  15.536  0.0626  0.2899  0.4509
 8708TIP3   OH247614   4.545   0.830   1.146 -0.5381 -0.5239  0.1974
 8708TIP3    H147615   4.564   0.837   1.240  0.2726 -0.1321  0.0089
 8708TIP3    H247616   4.581   0.910   1.108  1.5561 -1.8806 -0.8280
 8709TIP3   OH247617   3.496   1.995  15.918 -0.3338 -0.1169 -0.0045
 8709TIP3    H147618   3.542   1.958  15.843  1.5047 -0.5960  1.3042
 8709TIP3    H247619   3.418   1.941  15.927 -0.0719 -0.6849 -0.9606
 8710TIP3   OH247620   0.056   0.125   5.602  0.2105  0.3913  0.8456
 8710TIP3    H147621  -0.038   0.137   5.620  0.2653  0.6393  0.9682
 8710TIP3    H247622   0.081   0.049   5.654 -0.4684 -1.2163 -1.0297
 8711TIP3   OH247623   4.632   0.787  12.548 -0.5157 -0.2823  0.1467
 8711TIP3    H147624   4.621   0.859  12.609  2.1191  1.4512 -1.2195
 8711TIP3    H247625   4.586   0.814  12.469  1.6529  0.7217 -0.8738
 8712TIP3   OH247626   0.877   0.574  12.060  0.3467  0.3260  0.0570
 8712TIP3    H147627   0.914   0.652  12.102  0.2239 -0.1238  1.0322
 8712TIP3    H247628   0.783   0.592  12.053  0.1105 -0.2122  1.4368
 8713TIP3   OH247629   4.521   5.372  14.996  0.1928 -0.1824  0.3374
 8713TIP3    H147630   4.576   5.439  14.954 -0.3434  0.0739  0.0330
 8713TIP3    H247631   4.579   5.297  15.006  0.9002  0.4272  0.9720
 8714TIP3   OH247632   0.055   1.523   3.626  0.3685  0.5992  0.1513
 8714TIP3    H147633   0.076   1.458   3.693 -0.8830 -1.0692 -1.0067
 8714TIP3    H247634   0.071   1.479   3.543 -0.4324  1.8037 -0.6820
 8715TIP3   OH247635   2.373   5.162  13.751 -0.7632 -0.2419 -0.2659
 8715TIP3    H147636   2.320   5.230  13.709 -0.9462 -0.2997 -0.1302
 8715TIP3    H247637   2.321   5.082  13.740 -0.1710 -0.5188 -1.1508
 8716TIP3   OH247638   3.489   6.078  17.054  0.1476 -0.3607  0.6197
 8716TIP3    H147639   3.515   6.022  16.981 -0.3024  0.6736 -0.3617
 8716TIP3    H247640   3.571   6.105  17.095  0.4176 -0.6469  0.2654
 8717TIP3   OH247641   3.520   1.102  15.863  0.0164 -0.2587  0.5919
 8717TIP3    H147642   3.452   1.036  15.845 -0.3224  0.4273 -0.8118
 8717TIP3    H247643   3.474   1.186  15.854  0.6886  0.1820  1.2670
 8718TIP3   OH247644   1.064   1.956   1.171 -0.1095 -0.2890 -0.2131
 8718TIP3    H147645   1.118   1.939   1.093  2.0149 -0.6397  1.2643
 8718TIP3    H247646   1.055   2.052   1.173  0.2488 -0.2431 -0.6056
 8719TIP3   OH247647   3.221   2.889   1.666 -0.1862 -0.3434 -0.1335
 8719TIP3    H147648   3.301   2.886   1.718  0.1922 -0.2188 -0.6950
 8719TIP3    H247649   3.252   2.890   1.575 -0.8618 -2.1368 -0.4132
 8720TIP3   OH247650   3.414   2.035  10.621  0.1096 -0.2934 -0.4726
 8720TIP3    H147651   3.489   2.017  10.679  0.0487  0.2306 -0.2263
 8720TIP3    H247652   3.411   1.960  10.562 -0.3434 -1.2730  0.7519
 8721TIP3   OH247653   3.517   4.889   6.154  0.4173  0.5787 -0.3165
 8721TIP3    H147654   3.569   4.839   6.217  1.4054 -3.1305 -3.6122
 8721TIP3    H247655   3.582   4.945   6.110  0.0506  1.8837  0.7690
 8722TIP3   OH247656   1.003   3.635   1.034  0.2661  0.3248  0.8461
 8722TIP3    H147657   0.941   3.629   1.106 -0.1844 -0.3007  0.4230
 8722TIP3    H247658   1.089   3.644   1.075 -0.0726  0.8599  1.4416
 8723TIP3   OH247659   3.954   5.241   3.562 -0.4392 -0.0448 -0.5720
 8723TIP3    H147660   4.021   5.179   3.536 -0.4356  0.0776 -0.8602
 8723TIP3    H247661   3.920   5.207   3.645  0.0282 -0.0640 -0.3864
 8724TIP3   OH247662   4.283   4.898   2.392 -0.2738 -0.1772  0.1159
 8724TIP3    H147663   4.324   4.829   2.340  0.7575  0.1042  0.5422
 8724TIP3    H247664   4.207   4.855   2.433  0.2534 -1.0172  0.2436
 8725TIP3   OH247665   2.302   4.036   4.979  1.0263  0.4011  0.4687
 8725TIP3    H147666   2.299   3.951   4.935  2.1469 -0.1206  1.3422
 8725TIP3    H247667   2.211   4.065   4.982  0.6435 -0.7044  0.0442
 8726TIP3   OH247668   0.782   1.694  13.165 -0.0876  0.4835 -0.6056
 8726TIP3    H147669   0.714   1.675  13.100 -0.3462  1.7874 -0.7342
 8726TIP3    H247670   0.771   1.787  13.185 -1.8721 -0.3756  3.4167
 8727TIP3   OH247671   4.525   5.142  10.423  0.1624  0.1421  0.6297
 8727TIP3    H147672   4.577   5.223  10.427 -0.3829  0.7441 -2.2086
 8727TIP3    H247673   4.589   5.073  10.412  0.4964  0.7035 -1.2386
 8728TIP3   OH247674   5.440   3.923  15.566 -0.7233  0.4275 -0.1534
 8728TIP3    H147675   5.469   3.832  15.556  0.2348  0.4718  1.7162
 8728TIP3    H247676   5.366   3.931  15.507 -1.0859 -1.7014 -0.0688
 8729TIP3   OH247677   2.149   0.270  14.593  0.0485 -0.5881  0.0795
 8729TIP3    H147678   2.118   0.186  14.629  2.5323 -1.4705  0.3409
 8729TIP3    H247679   2.143   0.259  14.498 -3.2864  0.4761  0.0381
 8730TIP3   OH247680   3.840   5.485   2.925  0.0506  0.0729  0.1938
 8730TIP3    H147681   3.903   5.556   2.937 -1.0717  0.8926  1.4735
 8730TIP3    H247682   3.764   5.526   2.884 -0.4008 -0.4882  0.4480
 8731TIP3   OH247683   4.885   3.888  14.853  0.2468  0.5428 -0.0027
 8731TIP3    H147684   4.919   3.916  14.768  2.1511  0.2439  0.6119
 8731TIP3    H247685   4.791   3.877  14.839  0.6844 -0.7342 -2.4117
 8732TIP3   OH247686   2.875   4.525   2.002  0.3271  0.1071  0.1557
 8732TIP3    H147687   2.916   4.466   1.938 -1.0864 -0.1039 -0.6007
 8732TIP3    H247688   2.897   4.612   1.971  1.8932  0.0303  0.9229
 8733TIP3   OH247689   2.684   4.730   2.799 -0.3273 -0.3844 -0.2919
 8733TIP3    H147690   2.700   4.824   2.812 -0.5786 -0.5040  0.9922
 8733TIP3    H247691   2.766   4.688   2.824 -1.2048 -0.7079  2.3805
 8734TIP3   OH247692   3.034   2.842  16.881  0.3596 -0.5550  0.1528
 8734TIP3    H147693   3.073   2.819  16.797 -0.0772 -0.0864 -0.1837
 8734TIP3    H247694   3.088   2.797  16.946  0.7770 -0.8155 -0.3703
 8735TIP3   OH247695   5.879   5.097   3.862 -0.2746  0.1396  0.0132
 8735TIP3    H147696   5.899   5.148   3.940  1.0374 -0.2877 -0.0087
 8735TIP3    H247697   5.792   5.126   3.835  0.2062  1.9600  0.3078
 8736TIP3   OH247698   1.634   3.531  16.167  0.1909  0.4813 -0.2143
 8736TIP3    H147699   1.643   3.573  16.081  2.1770 -2.2745 -1.5170
 8736TIP3    H247700   1.554   3.480  16.160  1.6163 -1.7539 -1.5282
 8737TIP3   OH247701   4.242   3.536   5.043  0.1588  0.0298  0.0462
 8737TIP3    H147702   4.168   3.597   5.039 -1.3560 -1.5527  2.0287
 8737TIP3    H247703   4.313   3.588   5.082  0.0034  1.4473 -1.4622
 8738TIP3   OH247704   3.424   4.562  14.574  0.4277 -0.5839  0.2641
 8738TIP3    H147705   3.482   4.607  14.636 -1.3642  0.5727  1.1889
 8738TIP3    H247706   3.382   4.632  14.525  1.0291 -1.4602 -1.5611
 8739TIP3   OH247707   4.216   5.621   5.847  0.4022 -0.0041 -0.0455
 8739TIP3    H147708   4.298   5.599   5.802 -0.1121 -3.4051  0.4745
 8739TIP3    H247709   4.237   5.615   5.940 -0.2376  0.0044  0.1055
 8740TIP3   OH247710   4.421   5.246   3.479  0.5015  0.0098  0.2304
 8740TIP3    H147711   4.359   5.272   3.411 -0.4192 -1.3601  0.5210
 8740TIP3    H247712   4.438   5.154   3.463 -1.4336 -0.9880  3.0601
 8741TIP3   OH247713   6.048   3.582   4.786 -0.3946  0.6994  0.4973
 8741TIP3    H147714   5.980   3.521   4.756  0.6970 -0.2289 -0.2251
 8741TIP3    H247715   6.048   3.573   4.881 -0.6308 -0.0295  0.4395
 8742TIP3   OH247716   2.072   5.812   0.326  0.5699  0.3119 -0.4233
 8742TIP3    H147717   2.155   5.781   0.365  0.4913 -0.7392 -1.0359
 8742TIP3    H247718   2.054   5.748   0.257 -0.3415  0.9988 -0.8285
 8743TIP3   OH247719   0.366   6.781  15.561 -0.2177  0.0394  0.4677
 8743TIP3    H147720   0.310   6.856  15.542 -0.2556 -0.2511 -0.6829
 8743TIP3    H247721   0.447   6.818  15.594  0.3844  0.7180 -1.6244
 8744TIP3   OH247722   5.789   3.132  12.333 -0.4715 -0.0964  0.2466
 8744TIP3    H147723   5.711   3.135  12.388 -0.6784 -2.4514  0.1936
 8744TIP3    H247724   5.787   3.215  12.285 -2.8589  0.0168  0.3765
 8745TIP3   OH247725   3.524   6.046  15.274 -0.0806 -0.3040  0.9141
 8745TIP3    H147726   3.448   6.021  15.327 -0.4036 -0.8285  0.2237
 8745TIP3    H247727   3.578   5.967  15.273 -0.9164 -0.8990 -0.9624
 8746TIP3   OH247728   5.406   5.610  15.108 -0.4394  0.3559 -0.0819
 8746TIP3    H147729   5.360   5.598  15.191  1.2858 -1.5129  0.7023
 8746TIP3    H247730   5.373   5.540  15.051  0.2519 -0.0286 -0.0318
 8747TIP3   OH247731   2.557   6.179   1.206  0.4086 -0.6584 -0.1958
 8747TIP3    H147732   2.545   6.269   1.175  0.7326 -1.3337 -2.4949
 8747TIP3    H247733   2.606   6.136   1.136  1.3917 -2.3116  1.4351
 8748TIP3   OH247734   2.980   3.966  13.634 -0.1516 -0.4412  0.0085
 8748TIP3    H147735   2.920   4.005  13.697 -0.3050 -1.8338  0.7582
 8748TIP3    H247736   2.924   3.915  13.575 -0.0390  1.0521 -1.4470
 8749TIP3   OH247737   3.501   5.707  16.707  0.3271  0.9037 -0.3746
 8749TIP3    H147738   3.551   5.627  16.722  0.2937  1.1781  1.4368
 8749TIP3    H247739   3.409   5.679  16.714  0.2910  0.9366 -0.7022
 8750TIP3   OH247740   6.730   4.595  17.013 -0.1857 -0.3191 -0.0262
 8750TIP3    H147741   6.673   4.581  16.938 -1.4550  3.2546  0.0867
 8750TIP3    H247742   6.697   4.536  17.080 -1.2656 -1.0507 -1.1594
 8751TIP3   OH247743   5.040   2.314   1.315  0.1062 -0.1684 -0.1003
 8751TIP3    H147744   5.125   2.336   1.355  0.5655  0.3373 -1.2903
 8751TIP3    H247745   5.038   2.218   1.314 -0.3214 -0.2153  1.9117
 8752TIP3   OH247746   4.360   4.337  12.424 -0.7278 -0.4407  0.6428
 8752TIP3    H147747   4.364   4.248  12.390  0.8768  0.1207 -0.7655
 8752TIP3    H247748   4.281   4.374  12.386 -0.2095 -0.5754 -0.6004
 8753TIP3   OH247749   4.765   5.219  15.995  0.9028 -0.3228 -0.0101
 8753TIP3    H147750   4.726   5.284  15.937 -1.0190 -0.0537  1.4702
 8753TIP3    H247751   4.790   5.269  16.073 -0.2539 -1.2574  0.9977
 8754TIP3   OH247752   4.339   6.464  11.305  0.3359  0.2249 -0.0839
 8754TIP3    H147753   4.319   6.465  11.211 -1.2123 -0.9278  0.1947
 8754TIP3    H247754   4.432   6.440  11.309 -0.1101 -1.9644 -1.2918
 8755TIP3   OH247755   2.996   3.222   5.165  0.5381 -0.2595  0.3449
 8755TIP3    H147756   2.970   3.268   5.085 -2.9854 -0.4255  1.2173
 8755TIP3    H247757   3.019   3.291   5.227  0.9377 -0.0112 -0.0773
 8756TIP3   OH247758   6.083   5.709  15.405  0.0148  0.0554  0.6222
 8756TIP3    H147759   6.125   5.794  15.415 -0.1958 -0.0423  2.5324
 8756TIP3    H247760   6.138   5.648  15.454 -0.7983 -0.5949  0.7488
 8757TIP3   OH247761   4.533   1.295  13.017  0.0317  0.3009  0.0649
 8757TIP3    H147762   4.482   1.329  13.091 -0.7281  0.6606 -0.6061
 8757TIP3    H247763   4.550   1.372  12.962 -1.7130 -0.3524 -1.4809
 8758TIP3   OH247764   6.401   1.619   0.531 -0.8702 -0.3065  0.0342
 8758TIP3    H147765   6.449   1.694   0.497  0.4160 -1.5696 -1.0836
 8758TIP3    H247766   6.344   1.592   0.459 -1.0469 -0.6232  0.2867
 8759TIP3   OH247767   2.601   3.957   2.501 -0.1002 -0.2509 -0.0091
 8759TIP3    H147768   2.510   3.929   2.495 -0.1501 -0.6683  1.9076
 8759TIP3    H247769   2.645   3.887   2.548  0.5530  1.1944  1.6682
 8760TIP3   OH247770   4.176   1.652  15.784  0.2474 -0.4571 -0.0579
 8760TIP3    H147771   4.155   1.590  15.853  0.5794 -1.0560 -0.4869
 8760TIP3    H247772   4.261   1.623  15.750 -1.1041 -1.8044 -2.5164
 8761TIP3   OH247773   0.893   1.895  15.237 -0.3641 -0.2485 -0.0927
 8761TIP3    H147774   0.906   1.956  15.164 -0.4079 -1.6009 -1.2877
 8761TIP3    H247775   0.982   1.869  15.262 -0.3755 -0.3509 -0.1602
 8762TIP3   OH247776   1.505   6.045  14.347 -0.1632  0.0221 -0.1184
 8762TIP3    H147777   1.479   5.983  14.279  0.3373 -1.1969  0.7500
 8762TIP3    H247778   1.575   6.097  14.307 -2.3262  1.8433 -1.7229
 8763TIP3   OH247779   0.181   0.008   2.622  0.0207 -0.0622 -0.1343
 8763TIP3    H147780   0.240   0.081   2.604 -1.6003  0.9585 -1.5835
 8763TIP3    H247781   0.216  -0.065   2.571  1.6957 -0.3873  1.3858
 8764TIP3   OH247782   2.853   5.530  13.936  0.3437  0.1993 -0.1417
 8764TIP3    H147783   2.763   5.551  13.962 -0.1637 -1.9868  0.0400
 8764TIP3    H247784   2.907   5.591  13.986 -0.9559  0.3812  1.1155
 8765TIP3   OH247785   4.694   5.064  11.855 -0.0442 -0.3362  0.8166
 8765TIP3    H147786   4.731   4.986  11.814  1.1391 -0.6523  2.3912
 8765TIP3    H247787   4.730   5.138  11.805 -0.4755 -0.7380 -0.1216
 8766TIP3   OH247788   3.238   0.942   2.558 -0.1060 -0.1545 -0.2701
 8766TIP3    H147789   3.223   1.020   2.612  0.6668 -0.2782  0.1302
 8766TIP3    H247790   3.314   0.899   2.597 -0.4690 -1.0755 -0.5297
 8767TIP3   OH247791   5.780   6.804   2.986  0.8958  0.1924 -0.3946
 8767TIP3    H147792   5.868   6.838   3.004  1.2123 -0.6402 -0.3299
 8767TIP3    H247793   5.794   6.715   2.953  0.0732 -0.0306 -0.1844
 8768TIP3   OH247794   5.410   3.442  12.472 -0.2260  0.1997  0.2179
 8768TIP3    H147795   5.405   3.460  12.566  1.0958  0.3223  0.2858
 8768TIP3    H247796   5.491   3.484  12.444 -1.4021  1.5676 -1.3283
 8769TIP3   OH247797   5.710   6.590  12.667  0.0467 -0.4624  0.2769
 8769TIP3    H147798   5.756   6.507  12.678 -0.0019 -0.4341  0.6960
 8769TIP3    H247799   5.775   6.657  12.691  0.0420 -0.3840  0.0764
 8770TIP3   OH247800   4.222   2.206  13.927 -0.5127 -0.7911  0.3103
 8770TIP3    H147801   4.202   2.228  14.018  0.9262 -3.4050  1.3564
 8770TIP3    H247802   4.136   2.195  13.886 -1.2168  1.6638  0.9146
 8771TIP3   OH247803   3.357   2.776  11.704 -0.3025  0.2739 -0.2929
 8771TIP3    H147804   3.410   2.792  11.782 -0.3272 -0.4243 -0.1331
 8771TIP3    H247805   3.403   2.823  11.634  0.6386 -0.4887 -0.1990
 8772TIP3   OH247806   1.414   3.081   5.698 -0.3177  0.2365 -0.1241
 8772TIP3    H147807   1.458   3.127   5.626 -1.0084 -2.0193 -2.1314
 8772TIP3    H247808   1.338   3.135   5.719 -0.2178  0.8464 -1.2558
 8773TIP3   OH247809   0.006   0.544   2.268  0.0435  0.2933 -0.1490
 8773TIP3    H147810  -0.087   0.528   2.286 -0.2129 -0.8132 -2.1474
 8773TIP3    H247811   0.007   0.625   2.218  0.1299  0.1884 -0.3183
 8774TIP3   OH247812   4.207   1.683   4.722 -0.7238  0.1317 -0.0408
 8774TIP3    H147813   4.264   1.646   4.654 -1.3583  0.3863 -0.7233
 8774TIP3    H247814   4.150   1.611   4.748  1.0670 -0.6744  1.9789
 8775TIP3   OH247815   2.247   3.493   1.990 -0.4680  0.1510 -0.7427
 8775TIP3    H147816   2.204   3.462   1.910 -0.3585  1.1725 -1.2271
 8775TIP3    H247817   2.297   3.418   2.022 -1.2518 -0.5439 -1.1172
 8776TIP3   OH247818   1.628   3.041   3.358  0.1710  0.0273  0.0749
 8776TIP3    H147819   1.562   3.079   3.416 -0.2758 -0.1408 -0.3074
 8776TIP3    H247820   1.644   3.109   3.292  0.0061 -0.1148 -0.1157
 8777TIP3   OH247821   5.823   6.760  13.252 -0.1505 -0.2276 -0.0964
 8777TIP3    H147822   5.852   6.848  13.275  1.0265 -0.2618 -1.3616
 8777TIP3    H247823   5.765   6.773  13.177  1.6574 -0.6669 -1.6181
 8778TIP3   OH247824   1.731   1.603   0.539  0.8931 -0.0254 -0.4114
 8778TIP3    H147825   1.802   1.658   0.505  0.8764  2.0030  2.4981
 8778TIP3    H247826   1.769   1.559   0.615 -0.7318  0.5717  0.7977
 8779TIP3   OH247827   5.651   1.987  14.791  0.1624  0.0943  0.1649
 8779TIP3    H147828   5.708   1.930  14.740 -0.0262 -0.0400  0.1033
 8779TIP3    H247829   5.563   1.969  14.758 -0.0057 -0.2770  0.8020
 8780TIP3   OH247830   0.581   5.899  13.781 -0.5358  0.1625 -0.7207
 8780TIP3    H147831   0.604   5.917  13.872 -3.3115  0.7340 -0.0496
 8780TIP3    H247832   0.604   5.979  13.734 -0.5577  0.4555 -0.2323
 8781TIP3   OH247833   5.698   5.968  12.267  0.3768 -0.1550 -0.3509
 8781TIP3    H147834   5.672   5.929  12.185 -1.9692  2.0692 -0.7943
 8781TIP3    H247835   5.746   6.047  12.242 -1.4732  1.2536  0.2843
 8782TIP3   OH247836   1.358   6.582  16.645  0.3111 -0.4415  0.1629
 8782TIP3    H147837   1.298   6.632  16.590  0.9875  0.0811 -0.1079
 8782TIP3    H247838   1.435   6.638  16.656  0.5105 -0.8496  1.0079
 8783TIP3   OH247839   1.096   3.823   4.581 -0.1126  0.1658  0.1192
 8783TIP3    H147840   1.153   3.890   4.545 -0.3397  1.2860  1.7264
 8783TIP3    H247841   1.093   3.754   4.514  1.4049  1.0300 -0.8763
 8784TIP3   OH247842   1.662   5.255  15.500  0.8040  0.3961  0.6154
 8784TIP3    H147843   1.626   5.300  15.424 -0.5339 -0.2078  0.8670
 8784TIP3    H247844   1.601   5.275  15.572  1.0477 -0.5141  1.0969
 8785TIP3   OH247845   5.515   1.533   0.483 -0.7243  0.0371 -0.7329
 8785TIP3    H147846   5.503   1.603   0.547 -0.7255  0.1983 -0.9063
 8785TIP3    H247847   5.587   1.481   0.517 -0.7796  0.0729 -0.5586
 8786TIP3   OH247848   4.590   0.315  16.785 -0.0681  0.6426  0.0212
 8786TIP3    H147849   4.652   0.273  16.845  0.2780  1.7129  0.4376
 8786TIP3    H247850   4.631   0.305  16.699 -0.3220 -0.4521  0.0047
 8787TIP3   OH247851   4.579   6.504   4.274  0.4164 -0.8211  0.2746
 8787TIP3    H147852   4.624   6.446   4.335 -1.8227 -1.1485  1.7182
 8787TIP3    H247853   4.520   6.556   4.328  0.1825  0.7224 -1.3373
 8788TIP3   OH247854   1.666   2.130  12.990 -0.1685 -0.4418 -0.1593
 8788TIP3    H147855   1.676   2.070  12.916 -0.5852 -2.0596  1.0452
 8788TIP3    H247856   1.600   2.089  13.045  0.4815  0.4687  1.3509
 8789TIP3   OH247857   3.111   2.266   6.138  0.1239  0.2713  0.3360
 8789TIP3    H147858   3.179   2.198   6.141 -1.1529 -1.1055 -0.3217
 8789TIP3    H247859   3.116   2.302   6.049  0.3307  0.5327  0.4537
 8790TIP3   OH247860   2.644   2.839   5.448 -0.3923 -1.1350 -0.0649
 8790TIP3    H147861   2.550   2.856   5.453 -0.3243 -0.4869 -0.7920
 8790TIP3    H247862   2.650   2.747   5.421 -0.8724 -0.6130 -2.1130
 8791TIP3   OH247863   1.582   6.196   4.159  0.4463 -0.2905 -0.0682
 8791TIP3    H147864   1.654   6.257   4.175  0.2408 -0.3026  0.9257
 8791TIP3    H247865   1.623   6.109   4.161  0.7643 -0.2123 -1.6232
 8792TIP3   OH247866   1.475   4.764   5.924  0.9043 -0.1611 -0.4175
 8792TIP3    H147867   1.380   4.759   5.931  0.7137  0.9465 -1.8189
 8792TIP3    H247868   1.497   4.707   5.851  1.0885  1.1037 -1.3786
 8793TIP3   OH247869   3.167   2.247   4.278  0.2073  0.0759 -0.2548
 8793TIP3    H147870   3.137   2.211   4.194 -0.5579 -1.1026  0.4954
 8793TIP3    H247871   3.248   2.200   4.297 -1.1955 -1.9228  1.1039
 8794TIP3   OH247872   3.034   1.880  13.964  0.1892  0.1189  0.2109
 8794TIP3    H147873   3.028   1.821  13.889  0.2726  0.1485  0.1813
 8794TIP3    H247874   3.002   1.964  13.931  1.2781  0.4324 -0.1163
 8795TIP3   OH247875   5.362   5.334  16.232  0.2065 -0.5155 -0.0748
 8795TIP3    H147876   5.318   5.357  16.314 -0.3819  0.0789 -0.5491
 8795TIP3    H247877   5.448   5.300  16.260  0.9400  1.8004  0.7370
 8796TIP3   OH247878   4.201   1.274  11.083  0.7540  0.0079 -0.3921
 8796TIP3    H147879   4.146   1.253  11.008 -0.3782  1.3029  0.0500
 8796TIP3    H247880   4.147   1.256  11.160  1.5233 -0.2519  0.1106
 8797TIP3   OH247881   2.858   2.803  10.928 -0.2342  0.0787  0.2862
 8797TIP3    H147882   2.902   2.850  10.857  0.1589  1.0631  1.1614
 8797TIP3    H247883   2.917   2.730  10.949 -0.2287 -0.0658 -0.2073
 8798TIP3   OH247884   4.171   6.362  13.426  0.2131 -0.1905 -0.0306
 8798TIP3    H147885   4.151   6.269  13.433  1.0909 -0.4933 -1.2799
 8798TIP3    H247886   4.264   6.366  13.405 -0.1326  0.9010 -1.5232
 8799TIP3   OH247887   0.937   1.486  12.752  0.1632  0.2345  0.5727
 8799TIP3    H147888   0.972   1.407  12.792 -0.9919 -0.9618 -0.6791
 8799TIP3    H247889   0.857   1.505  12.802 -1.0783 -1.0462 -0.8572
 8800TIP3   OH247890   3.692   0.733  16.673  0.2443 -0.1298  0.4542
 8800TIP3    H147891   3.738   0.789  16.611  0.7609 -1.0302  0.0059
 8800TIP3    H247892   3.761   0.687  16.721 -0.1425 -1.7328 -0.4417
 8801TIP3   OH247893   1.216   3.114  13.882  0.1499 -0.1658  0.4915
 8801TIP3    H147894   1.170   3.066  13.812 -1.2293 -0.0073  1.2575
 8801TIP3    H247895   1.206   3.206  13.857 -1.1040 -0.0550  1.3057
 8802TIP3   OH247896   1.542   2.221   3.960  0.2736  0.3593  0.0663
 8802TIP3    H147897   1.622   2.272   3.951  0.4493 -0.1560 -1.5418
 8802TIP3    H247898   1.511   2.208   3.871 -1.4128  0.2327  0.6387
 8803TIP3   OH247899   5.005   4.440   2.585 -0.6473 -0.3259 -0.2200
 8803TIP3    H147900   4.995   4.385   2.663  1.0941 -0.1317  0.1686
 8803TIP3    H247901   4.918   4.478   2.571 -1.0905 -0.7080  1.3561
 8804TIP3   OH247902   1.395   0.385   6.299  0.0065 -0.3285  0.4234
 8804TIP3    H147903   1.426   0.457   6.355 -0.0685 -1.7777  2.4475
 8804TIP3    H247904   1.465   0.373   6.235  0.9530  0.2415  1.3104
 8805TIP3   OH247905   4.026   1.484  14.484  0.4000 -0.0585  0.0090
 8805TIP3    H147906   3.983   1.398  14.481  0.7897 -0.2419 -1.5913
 8805TIP3    H247907   3.954   1.547  14.473  0.0844 -0.1447  1.4260
 8806TIP3   OH247908   2.612   1.471  13.509  0.4939 -0.2512 -0.3706
 8806TIP3    H147909   2.689   1.428  13.547 -0.5992 -1.8398  0.1616
 8806TIP3    H247910   2.637   1.563  13.502  1.3566 -0.1184  2.7947
 8807TIP3   OH247911   2.874   2.752  12.745 -0.1090  0.1184 -0.1093
 8807TIP3    H147912   2.902   2.709  12.826  0.6941 -1.5765 -1.2330
 8807TIP3    H247913   2.921   2.835  12.743 -0.7323  0.5468  1.5086
 8808TIP3   OH247914   1.537   6.359   3.870  0.2419 -0.1370  0.4308
 8808TIP3    H147915   1.470   6.422   3.898 -0.8323  0.0706 -2.3233
 8808TIP3    H247916   1.601   6.412   3.822 -1.2960 -1.1000 -2.9998
 8809TIP3   OH247917   1.884   6.682  17.007 -0.8079 -0.8610 -0.4800
 8809TIP3    H147918   1.855   6.673  17.098  0.7335  0.1733  0.1579
 8809TIP3    H247919   1.921   6.597  16.984 -1.8110 -1.3390 -0.4024
 8810TIP3   OH247920   4.778   1.286  14.956 -0.0507 -0.7653 -0.1763
 8810TIP3    H147921   4.822   1.343  15.019 -0.4999  0.6782 -1.1273
 8810TIP3    H247922   4.781   1.199  14.997  0.6907 -0.0946  1.2898
 8811TIP3   OH247923   3.273   5.729   2.152 -0.2540  0.0124 -0.3834
 8811TIP3    H147924   3.260   5.756   2.061 -0.1555 -1.4022 -0.8457
 8811TIP3    H247925   3.287   5.634   2.147  2.5574  0.2717  0.8258
 8812TIP3   OH247926   0.970   4.799   5.270  0.0102 -0.1442  0.1157
 8812TIP3    H147927   1.022   4.720   5.284  1.2347  0.4842 -0.6168
 8812TIP3    H247928   0.896   4.771   5.216  1.3023 -0.5404 -1.5396
 8813TIP3   OH247929   0.928   2.906  15.880  0.5424 -0.0331 -0.0454
 8813TIP3    H147930   0.984   2.932  15.954 -1.4106  0.0163  1.5238
 8813TIP3    H247931   0.936   2.811  15.876 -1.2043 -0.3304  1.9335
 8814TIP3   OH247932   2.601   4.271   5.287 -0.4974  0.1596  0.0843
 8814TIP3    H147933   2.669   4.227   5.235  0.3647  0.9525  0.5058
 8814TIP3    H247934   2.523   4.268   5.231  0.4430  1.1464 -1.3599
 8815TIP3   OH247935   3.199   2.436   2.758  0.0552 -0.0019  0.3562
 8815TIP3    H147936   3.186   2.531   2.764  0.8814  0.0647  1.5848
 8815TIP3    H247937   3.222   2.421   2.666 -3.2381  0.5092 -0.6710
 8816TIP3   OH247938   5.283   5.804   1.827 -0.1199 -0.4959  1.0553
 8816TIP3    H147939   5.241   5.867   1.767  0.3603  0.7120  1.9485
 8816TIP3    H247940   5.243   5.720   1.805  1.2685 -0.4619 -2.1803
 8817TIP3   OH247941   0.005   1.238   5.624 -0.2951  0.0037 -0.1458
 8817TIP3    H147942  -0.051   1.190   5.562  0.2294 -0.9730  0.1244
 8817TIP3    H247943   0.081   1.182   5.636 -0.3064  0.2526  1.2721
 8818TIP3   OH247944   4.839   2.017  17.043  0.5793 -0.3251 -0.6367
 8818TIP3    H147945   4.773   1.954  17.072  0.3571 -0.1551 -0.7710
 8818TIP3    H247946   4.804   2.102  17.069  1.4245 -0.3202  0.6243
 8819TIP3   OH247947   1.624   1.203  14.468  0.1549 -0.2792  0.4646
 8819TIP3    H147948   1.595   1.113  14.478 -1.1122  0.1145  0.5184
 8819TIP3    H247949   1.644   1.232  14.557 -2.3065  0.3794  0.8837
 8820TIP3   OH247950   2.975   4.933   5.776  0.7200 -0.5621 -0.1838
 8820TIP3    H147951   2.885   4.905   5.790  0.5885  0.1803  0.5850
 8820TIP3    H247952   2.991   4.998   5.846  2.3367 -1.7797  0.6516
 8821TIP3   OH247953   6.454   1.050   3.022 -0.1846 -0.6815 -1.2724
 8821TIP3    H147954   6.497   1.039   3.106 -0.2193 -0.2053 -1.1885
 8821TIP3    H247955   6.512   1.007   2.959  0.6547  0.3534 -1.2231
 8822TIP3   OH247956   5.668   4.483  17.012  0.2849 -0.6508  0.1303
 8822TIP3    H147957   5.738   4.429  16.973  1.0814 -0.0792  0.7392
 8822TIP3    H247958   5.588   4.453  16.969  0.8969 -1.3623 -0.5420
 8823TIP3   OH247959   4.025   3.973  13.436  0.2674  0.2978  0.0979
 8823TIP3    H147960   3.935   3.948  13.415  1.2220 -2.0255 -1.8341
 8823TIP3    H247961   4.044   3.928  13.518 -0.5367  1.4321  0.9236
 8824TIP3   OH247962   0.464   1.149   4.828  0.2017 -0.7479  0.1183
 8824TIP3    H147963   0.455   1.117   4.739 -0.4585  1.1691 -0.5555
 8824TIP3    H247964   0.429   1.238   4.826  2.2399  0.1965  1.7707
 8825TIP3   OH247965   6.187   5.267   2.752 -0.8525  0.0361 -0.1110
 8825TIP3    H147966   6.100   5.227   2.766 -0.7300 -0.5167 -0.8796
 8825TIP3    H247967   6.233   5.205   2.696  0.0096  0.3860  0.1929
 8826TIP3   OH247968   2.478   1.695  15.386 -0.3286 -0.5421 -0.5205
 8826TIP3    H147969   2.521   1.617  15.421  1.1232  1.1097  1.7107
 8826TIP3    H247970   2.390   1.693  15.424  0.1507 -0.4477  0.6363
 8827TIP3   OH247971   5.573   5.582  17.217 -0.0011 -0.1016 -0.8303
 8827TIP3    H147972   5.593   5.637  17.293  2.0759  0.7840 -1.9242
 8827TIP3    H247973   5.616   5.499  17.237 -3.2946 -1.5586  0.9063
 8828TIP3   OH247974   2.769   1.632   2.780  0.0989 -0.2887  0.1732
 8828TIP3    H147975   2.677   1.655   2.768  0.1236  0.2449  0.9295
 8828TIP3    H247976   2.791   1.581   2.702 -0.8712 -0.5432  0.0506
 8829TIP3   OH247977   4.145   1.020   1.059  0.4225  0.3352 -0.7560
 8829TIP3    H147978   4.123   1.077   0.986  2.5684  0.9142 -1.0183
 8829TIP3    H247979   4.229   0.980   1.034  1.1602  0.4590  1.3084
 8830TIP3   OH247980   5.990   2.408   0.014 -0.5223  0.5109 -0.2104
 8830TIP3    H147981   5.958   2.484   0.063 -1.7234  0.1563 -0.4281
 8830TIP3    H247982   5.953   2.333   0.060 -2.0752  0.1772 -1.8915
 8831TIP3   OH247983   0.576   0.098   0.821 -0.0399 -0.6159  0.3992
 8831TIP3    H147984   0.605   0.012   0.851 -0.3893 -0.9677 -0.2528
 8831TIP3    H247985   0.616   0.160   0.882 -0.1503 -1.2668  1.1458
 8832TIP3   OH247986   0.046   3.314  14.332  0.0135 -0.1188 -0.6465
 8832TIP3    H147987  -0.044   3.344  14.337  0.2599  0.4407  0.8809
 8832TIP3    H247988   0.098   3.394  14.324  0.6063 -0.0595  2.5583
 8833TIP3   OH247989   0.408   3.031   1.754  0.2598 -0.5629 -0.4532
 8833TIP3    H147990   0.472   2.960   1.761  0.5219 -0.2312  0.7203
 8833TIP3    H247991   0.451   3.097   1.700  1.6369  0.3785  1.6716
 8834TIP3   OH247992   5.232   3.399  12.231  0.1473 -0.2809 -0.0825
 8834TIP3    H147993   5.311   3.372  12.185 -1.2652 -1.6164 -1.8758
 8834TIP3    H247994   5.263   3.429  12.316  2.6133 -0.2701 -0.9048
 8835TIP3   OH247995   5.074   2.323  11.709 -0.8667  0.5889 -0.1518
 8835TIP3    H147996   5.168   2.317  11.731  0.1277  0.1487 -3.9269
 8835TIP3    H247997   5.045   2.232  11.707 -1.0174  0.6432 -0.3624
 8836TIP3   OH247998   6.710   5.381  11.718 -0.4595 -0.4065 -0.0168
 8836TIP3    H147999   6.665   5.462  11.741 -1.6807 -0.9861 -0.3186
 8836TIP3    H248000   6.642   5.324  11.683  0.4065 -1.5221  0.0551
 8837TIP3   OH248001   6.107   6.045   5.401  0.1211 -0.0369 -0.2699
 8837TIP3    H148002   6.175   6.004   5.348  1.1509 -0.4103  1.2690
 8837TIP3    H248003   6.141   6.133   5.419 -0.1033  0.0046 -0.0406
 8838TIP3   OH248004   6.303   0.443   0.593  0.2172 -0.7811 -0.5792
 8838TIP3    H148005   6.267   0.529   0.572 -1.8615 -0.7588  2.4624
 8838TIP3    H248006   6.230   0.395   0.633  2.0652 -2.9161  0.5024
 8839TIP3   OH248007   0.912   4.301   3.320  0.3990  0.1437 -0.4135
 8839TIP3    H148008   1.002   4.328   3.303  0.4536 -0.1592 -0.6127
 8839TIP3    H248009   0.869   4.379   3.354  0.4204  0.6141 -1.4338
 8840TIP3   OH248010   0.426   2.463   4.999 -0.3624  0.5017  0.2925
 8840TIP3    H148011   0.509   2.509   4.997 -0.0770  0.0637  1.3682
 8840TIP3    H248012   0.374   2.504   4.930  1.0403  0.1843 -1.0082
 8841TIP3   OH248013   3.585   4.479  11.231  0.3234  0.6025  0.0937
 8841TIP3    H148014   3.591   4.399  11.282  0.6681  0.1255 -0.6841
 8841TIP3    H248015   3.675   4.499  11.206  0.0676  0.2485 -1.1942
 8842TIP3   OH248016   2.579   2.520  16.089 -0.2882  0.0211  0.1622
 8842TIP3    H148017   2.545   2.547  16.004 -0.3976 -0.7660 -0.0574
 8842TIP3    H248018   2.528   2.442  16.111 -0.6831  0.5630  1.2371
 8843TIP3   OH248019   2.170   4.972   5.743 -0.8170 -0.3990  0.0621
 8843TIP3    H148020   2.258   5.005   5.729 -0.1483 -1.0968  2.1974
 8843TIP3    H248021   2.149   4.997   5.833 -1.6524 -2.6795  0.5775
 8844TIP3   OH248022   4.027   2.084   0.117  0.2935 -0.2852  0.5013
 8844TIP3    H148023   4.030   2.095   0.022 -1.9246  1.2122  0.5192
 8844TIP3    H248024   4.091   2.147   0.150 -0.1022  0.3978  0.0128
 8845TIP3   OH248025   3.782   4.163  14.121 -0.2778  0.5577  0.3454
 8845TIP3    H148026   3.790   4.183  14.028  0.0389  3.5585  0.9334
 8845TIP3    H248027   3.709   4.102  14.126 -0.9096  1.0679 -1.7882
 8846TIP3   OH248028   5.288   5.367  16.496 -0.2388 -0.2808 -0.0393
 8846TIP3    H148029   5.265   5.314  16.572  0.5139  2.2222  2.0932
 8846TIP3    H248030   5.248   5.452  16.513 -1.1952  0.0278 -3.1831
 8847TIP3   OH248031   5.811   3.404  10.395  0.0005  0.1706  0.2011
 8847TIP3    H148032   5.719   3.382  10.413  0.3393 -1.7653 -0.1600
 8847TIP3    H248033   5.853   3.319  10.380  1.6972  1.0700 -0.4005
 8848TIP3   OH248034   3.573   2.366  14.571 -0.3212  0.0817 -0.0177
 8848TIP3    H148035   3.660   2.356  14.609 -0.0042 -2.9088 -1.2449
 8848TIP3    H248036   3.513   2.336  14.639 -0.3705  1.3589  0.5295
 8849TIP3   OH248037   2.922   4.793   1.570  0.6697 -0.4191 -0.2675
 8849TIP3    H148038   2.847   4.821   1.623  0.1888 -2.0427 -0.0520
 8849TIP3    H248039   2.884   4.747   1.495  1.3594  1.3961 -1.8204
 8850TIP3   OH248040   6.406   3.784  15.087 -0.1153  0.0004  0.3812
 8850TIP3    H148041   6.337   3.833  15.132  1.8510  2.6759  0.7326
 8850TIP3    H248042   6.449   3.734  15.157  0.5606  1.2140  0.8735
 8851TIP3   OH248043   0.538   2.012  15.258  0.1670  0.1516  0.4117
 8851TIP3    H148044   0.461   2.067  15.270  0.7322  0.9702  0.4461
 8851TIP3    H248045   0.539   1.991  15.165  0.2478  0.6937  0.2826
 8852TIP3   OH248046   3.216   2.998   3.017  0.1222  0.0184  0.0409
 8852TIP3    H148047   3.223   2.928   3.082  1.4382 -0.7631 -0.9027
 8852TIP3    H248048   3.123   3.022   3.018 -0.3214 -1.5855  0.5370
 8853TIP3   OH248049   0.379   6.311   3.073  0.1145 -0.3108  0.4635
 8853TIP3    H148050   0.372   6.392   3.124 -1.5599  0.3618 -0.7383
 8853TIP3    H248051   0.377   6.340   2.982 -0.3664 -1.6982  0.0030
 8854TIP3   OH248052   2.616   0.195  14.715  0.0154  0.1198  0.2667
 8854TIP3    H148053   2.647   0.262  14.776  1.6087 -0.6622  0.3899
 8854TIP3    H248054   2.696   0.166  14.670 -0.4700 -2.1967  0.7476
 8855TIP3   OH248055   0.104   3.887  13.145 -0.3565  0.0157 -0.1016
 8855TIP3    H148056   0.129   3.969  13.188 -1.9926  1.2053 -1.3314
 8855TIP3    H248057   0.184   3.859  13.101  0.7489 -0.0854  1.8236
 8856TIP3   OH248058   0.149   0.908  14.648  0.0710  0.0543  0.5905
 8856TIP3    H148059   0.219   0.842  14.652 -0.2593 -0.3973 -0.7046
 8856TIP3    H248060   0.111   0.908  14.736 -0.7778 -2.4531  0.2918
 8857TIP3   OH248061   1.910   5.380  11.954  0.2339 -0.1411  0.7472
 8857TIP3    H148062   1.983   5.336  11.999  1.4868 -0.8795 -1.8341
 8857TIP3    H248063   1.837   5.318  11.963  0.2446  0.0157  2.2367
 8858TIP3   OH248064   3.371   4.899  14.919  0.4683  0.4861 -0.1085
 8858TIP3    H148065   3.421   4.963  14.970  1.1460  0.2338 -0.4464
 8858TIP3    H248066   3.293   4.883  14.972  0.7543  0.8612  0.4454
 8859TIP3   OH248067   6.242   3.943   1.647 -0.9719 -0.8506  0.0055
 8859TIP3    H148068   6.198   3.897   1.718  1.0626 -1.6511  0.8240
 8859TIP3    H248069   6.171   3.973   1.590 -2.5702 -1.5106  1.5605
 8860TIP3   OH248070   1.297   1.144   2.498 -0.4453  0.3650  0.9402
 8860TIP3    H148071   1.380   1.097   2.508 -0.8793 -0.4280  0.9782
 8860TIP3    H248072   1.304   1.188   2.413 -0.2360 -0.2446  0.6313
 8861TIP3   OH248073   3.082   1.417  11.240 -0.4912 -0.0844 -0.2815
 8861TIP3    H148074   2.997   1.390  11.275 -1.6248  2.7807 -0.5524
 8861TIP3    H248075   3.061   1.457  11.155  0.9665  1.4501  0.0225
 8862TIP3   OH248076   4.184   4.175   0.375  0.2902  0.6495 -0.2641
 8862TIP3    H148077   4.115   4.241   0.383 -0.4446 -0.1012 -0.2822
 8862TIP3    H248078   4.258   4.222   0.336 -0.5068  1.2477 -1.0845
 8863TIP3   OH248079   2.757   0.690   0.783  0.0851  0.6156 -0.0446
 8863TIP3    H148080   2.800   0.703   0.698  0.5939 -1.7134 -0.2213
 8863TIP3    H248081   2.664   0.702   0.764  0.0457 -1.2486 -1.3189
 8864TIP3   OH248082   4.913   4.021   0.562  0.0304  0.5175 -0.0936
 8864TIP3    H148083   4.962   4.095   0.527 -0.5169  0.5631 -0.7775
 8864TIP3    H248084   4.873   3.980   0.485 -0.0289 -0.2308  0.3222
 8865TIP3   OH248085   1.626   3.111   4.228 -0.6000 -0.0773  0.1802
 8865TIP3    H148086   1.545   3.081   4.269 -0.0580  0.0723  1.4208
 8865TIP3    H248087   1.681   3.032   4.225 -0.3957  0.0553  0.3710
 8866TIP3   OH248088   5.734   6.203   1.099  0.2862  0.5445  0.2656
 8866TIP3    H148089   5.730   6.242   1.186  2.6171  0.0358  0.6488
 8866TIP3    H248090   5.763   6.273   1.041  2.5838 -0.0422  0.6246
 8867TIP3   OH248091   5.404   0.192  13.501  0.4554  0.4781  0.9008
 8867TIP3    H148092   5.397   0.230  13.413 -0.2615  1.6068  1.4162
 8867TIP3    H248093   5.313   0.178  13.528  0.6872 -0.4741  1.2240
 8868TIP3   OH248094   0.119   2.747  11.864  0.1028 -0.2116 -0.4778
 8868TIP3    H148095   0.068   2.667  11.873  0.6200 -0.4333  0.7085
 8868TIP3    H248096   0.198   2.720  11.817  1.0897 -0.8138  1.4266
 8869TIP3   OH248097   4.710   1.780  16.115 -0.0984  0.1961  0.3002
 8869TIP3    H148098   4.707   1.770  16.210  1.5532  0.3006  0.3873
 8869TIP3    H248099   4.784   1.725  16.087 -1.1999 -0.6815 -1.0601
 8870TIP3   OH248100   3.646   0.514   3.245 -0.3281 -0.1624  0.1689
 8870TIP3    H148101   3.699   0.477   3.315 -1.6569  0.1326  1.3738
 8870TIP3    H248102   3.601   0.439   3.206 -0.1015 -0.2446  0.0613
 8871TIP3   OH248103   0.367   3.351   1.636  0.1158  0.5696 -0.4945
 8871TIP3    H148104   0.450   3.322   1.599 -0.3655  1.2834 -2.2258
 8871TIP3    H248105   0.301   3.315   1.577 -0.7571  0.8624  0.2857
 8872TIP3   OH248106   3.646   3.615  12.749  0.0633 -0.1196 -0.4314
 8872TIP3    H148107   3.667   3.536  12.700 -2.2406 -0.7796 -0.4708
 8872TIP3    H248108   3.719   3.626  12.809  0.0898 -2.7626  0.1380
 8873TIP3   OH248109   2.969   0.692   1.272  0.2470  0.2118 -0.7351
 8873TIP3    H148110   2.969   0.603   1.238  0.2713  0.7817 -2.2977
 8873TIP3    H248111   3.024   0.742   1.211  0.7504  1.1805  0.4587
 8874TIP3   OH248112   3.095   2.880  13.859 -0.5440  0.1432 -0.3947
 8874TIP3    H148113   3.078   2.786  13.869 -0.5489  0.2360  0.5135
 8874TIP3    H248114   3.158   2.901  13.928 -1.9784  1.1915  0.6621
 8875TIP3   OH248115   0.270   6.473   4.113 -0.2383  0.2183 -0.3158
 8875TIP3    H148116   0.192   6.522   4.089 -0.2581 -0.2960 -1.3258
 8875TIP3    H248117   0.337   6.541   4.125 -0.3836  0.5471 -1.2410
 8876TIP3   OH248118   1.695   4.259   3.059  0.0588  0.0309  0.1518
 8876TIP3    H148119   1.723   4.197   3.126 -0.5683  0.4213  0.7933
 8876TIP3    H248120   1.775   4.304   3.032  0.7739 -1.9771 -1.3298
 8877TIP3   OH248121   5.114   6.529   0.593  0.1314  0.3422 -0.8633
 8877TIP3    H148122   5.055   6.528   0.518 -0.6278 -1.9643 -0.3146
 8877TIP3    H248123   5.193   6.485   0.562  0.5062  0.9606 -0.7996
 8878TIP3   OH248124   3.175   4.835   2.015 -0.1840  0.1985 -0.8319
 8878TIP3    H148125   3.116   4.903   2.046  0.0790  0.6185 -1.2458
 8878TIP3    H248126   3.214   4.799   2.095  0.3893  1.1803 -0.6566
 8879TIP3   OH248127   3.457   5.616   3.876 -0.2134 -0.2706  0.0968
 8879TIP3    H148128   3.387   5.596   3.938 -0.2060 -0.7551 -0.0462
 8879TIP3    H248129   3.472   5.710   3.886 -2.9107  0.4945 -1.9192
 8880TIP3   OH248130   3.483   4.839   4.407 -0.2067 -0.2067 -0.5240
 8880TIP3    H148131   3.531   4.859   4.326  2.8625  0.3665  1.3090
 8880TIP3    H248132   3.506   4.748   4.426 -0.7255 -0.2586 -0.1260
 8881TIP3   OH248133   6.476   2.893  12.606 -0.1504  0.2803  0.2675
 8881TIP3    H148134   6.520   2.839  12.671 -1.2949 -1.3437 -0.2300
 8881TIP3    H248135   6.473   2.838  12.527 -1.9852  0.7587 -0.0541
 8882TIP3   OH248136   1.980   1.096   3.908  0.1172 -0.2985  0.1863
 8882TIP3    H148137   1.977   1.095   4.003 -0.3693  0.4318  0.1829
 8882TIP3    H248138   1.916   1.030   3.881  0.6258 -0.8757  0.3606
 8883TIP3   OH248139   4.027   1.775   5.108  0.5470  0.5426 -0.6984
 8883TIP3    H148140   4.122   1.777   5.122  0.5385 -0.9382 -0.2251
 8883TIP3    H248141   3.989   1.774   5.195  0.0743  1.2340 -0.8867
 8884TIP3   OH248142   3.270   5.550  11.330 -0.2210  0.0292  0.8159
 8884TIP3    H148143   3.296   5.630  11.284 -2.0234 -0.3080 -0.9007
 8884TIP3    H248144   3.295   5.479  11.272 -4.6353 -0.3310 -1.0534
 8885TIP3   OH248145   0.920   3.401   3.827  0.3185 -0.0980  0.2370
 8885TIP3    H148146   0.899   3.310   3.806 -0.3990 -0.1146  0.9920
 8885TIP3    H248147   0.963   3.397   3.912 -1.4692  0.4302  1.2096
 8886TIP3   OH248148   4.323   1.734   3.242 -0.0896 -0.2462  0.1430
 8886TIP3    H148149   4.353   1.738   3.151  0.3497 -0.7798  0.2617
 8886TIP3    H248150   4.269   1.654   3.247  1.0248 -0.9860  0.6776
 8887TIP3   OH248151   4.462   6.810   4.655  0.5660 -1.0480 -0.2646
 8887TIP3    H148152   4.509   6.734   4.621 -0.6771 -1.3189 -1.5031
 8887TIP3    H248153   4.369   6.790   4.638  0.2091  0.7315 -0.6526
 8888TIP3   OH248154   1.738   2.314   2.776  0.5975  0.0708 -0.1851
 8888TIP3    H148155   1.655   2.294   2.819  0.0041 -0.1783 -1.4161
 8888TIP3    H248156   1.719   2.309   2.682  1.8317  0.7113 -0.4923
 8889TIP3   OH248157   0.468   5.012   6.020  0.1570 -0.5453 -0.1101
 8889TIP3    H148158   0.531   4.997   6.091 -0.4786  0.8735  0.8054
 8889TIP3    H248159   0.403   4.943   6.030  1.3073 -1.7932 -0.8234
 8890TIP3   OH248160   5.268   2.969   0.712  0.8269  0.0394  0.4899
 8890TIP3    H148161   5.314   3.023   0.777  0.4858  1.6954 -0.5883
 8890TIP3    H248162   5.269   3.022   0.632 -0.1341 -1.2770 -0.4299
 8891TIP3   OH248163   4.361   6.818  15.563  0.3597  0.0643 -0.5017
 8891TIP3    H148164   4.437   6.856  15.519  2.1807 -1.9722  0.6566
 8891TIP3    H248165   4.371   6.843  15.655 -0.5289  0.0073 -0.3849
 8892TIP3   OH248166   3.938   2.940   2.997 -0.2741 -0.5011 -0.2116
 8892TIP3    H148167   3.933   2.866   3.057 -2.4039 -0.0152  0.2649
 8892TIP3    H248168   3.847   2.961   2.977  0.2996  1.7071 -0.7076
 8893TIP3   OH248169   3.728   4.233   4.576 -0.0714  0.2034 -0.5156
 8893TIP3    H148170   3.701   4.145   4.600 -0.9392  0.5800 -0.0564
 8893TIP3    H248171   3.679   4.253   4.497  0.6666  0.0092 -1.0260
 8894TIP3   OH248172   3.625   6.507  12.175  0.1036  0.2302 -0.1014
 8894TIP3    H148173   3.687   6.434  12.184  1.6170  1.4684 -0.0908
 8894TIP3    H248174   3.647   6.547  12.091 -0.0625  1.2420  0.3218
 8895TIP3   OH248175   0.307   1.108  14.506  0.3987  0.1641 -0.4397
 8895TIP3    H148176   0.250   1.185  14.504  0.5515  0.3198  0.6927
 8895TIP3    H248177   0.254   1.040  14.546  0.6376 -0.0076 -0.4124
 8896TIP3   OH248178   5.474   1.986  14.311 -0.6549 -0.0768  0.0578
 8896TIP3    H148179   5.385   2.015  14.294 -0.4949 -0.2207 -1.1447
 8896TIP3    H248180   5.520   2.065  14.341 -0.5165  0.7099 -2.0336
 8897TIP3   OH248181   6.199   5.276   1.531 -0.5454 -0.4952  0.3185
 8897TIP3    H148182   6.111   5.294   1.564 -0.7107 -0.8854  0.1049
 8897TIP3    H248183   6.184   5.227   1.450 -0.1564  0.4240 -0.3368
 8898TIP3   OH248184   5.730   5.011   4.131 -0.1195  0.2602  0.5914
 8898TIP3    H148185   5.748   4.994   4.039  1.3159 -0.2943  0.9442
 8898TIP3    H248186   5.752   4.930   4.176 -1.0433  0.4398  1.4028
 8899TIP3   OH248187   6.232   0.737  16.603  0.5365 -0.1422  0.6588
 8899TIP3    H148188   6.280   0.780  16.532  0.7557  2.2676  2.1658
 8899TIP3    H248189   6.140   0.742  16.575  0.8430 -2.5988 -1.1054
 8900TIP3   OH248190   4.447   0.994  15.225 -0.0695 -0.4930  0.3611
 8900TIP3    H148191   4.415   1.082  15.204 -3.4641 -1.8919 -0.9388
 8900TIP3    H248192   4.409   0.974  15.311 -1.2104 -1.4922 -0.3549
 8901TIP3   OH248193   6.012   0.428  16.949 -0.0021  0.1384  0.6711
 8901TIP3    H148194   6.021   0.518  16.917  0.9937  0.2963  1.3369
 8901TIP3    H248195   5.918   0.415  16.959 -0.1452  1.2827  1.0133
 8902TIP3   OH248196   1.589   2.457  13.247 -0.3052  0.0140 -0.8941
 8902TIP3    H148197   1.518   2.405  13.209 -1.8938  1.4366 -0.0539
 8902TIP3    H248198   1.547   2.540  13.269  1.3603  0.4517  0.8183
 8903TIP3   OH248199   2.474   3.663   5.502 -0.0350  0.2090 -0.4943
 8903TIP3    H148200   2.521   3.694   5.424 -0.6194 -0.1116 -0.9835
 8903TIP3    H248201   2.389   3.632   5.468 -0.1081 -0.3815  0.2003
 8904TIP3   OH248202   3.524   5.065  16.922 -0.1259 -0.7504  0.0621
 8904TIP3    H148203   3.445   5.081  16.871 -0.2468 -0.0869  0.4423
 8904TIP3    H248204   3.494   5.063  17.013  0.0775 -1.9667  0.1274
 8905TIP3   OH248205   2.927   4.346  13.569 -0.2049 -0.2879 -0.9852
 8905TIP3    H148206   2.886   4.402  13.503 -0.6413 -3.3161 -3.5318
 8905TIP3    H248207   2.880   4.263  13.564  0.7197 -1.1772  2.1970
 8906TIP3   OH248208   3.922   1.906  17.050 -0.3526 -0.5404  0.3754
 8906TIP3    H148209   3.858   1.837  17.034  0.7192 -1.0204 -2.4080
 8906TIP3    H248210   3.870   1.982  17.077 -1.9983 -1.1903 -0.8201
 8907TIP3   OH248211   1.744   3.365  15.292 -0.3594 -0.3583 -0.2067
 8907TIP3    H148212   1.727   3.383  15.199  1.1774  0.4705 -0.3441
 8907TIP3    H248213   1.821   3.417  15.314  0.0789 -1.5277  1.2116
 8908TIP3   OH248214   4.281   4.089  11.781 -0.3734  0.0662 -0.1686
 8908TIP3    H148215   4.364   4.104  11.736  1.0973  1.9817  2.8020
 8908TIP3    H248216   4.233   4.171  11.768 -0.2323  0.3566  0.9777
 8909TIP3   OH248217   5.644   1.229  15.774 -0.3226  0.0963  0.3846
 8909TIP3    H148218   5.554   1.257  15.793 -1.0142 -0.9451 -1.1873
 8909TIP3    H248219   5.656   1.149  15.826 -0.3630  0.1340  0.4518
 8910TIP3   OH248220   2.727   4.167   1.042 -0.1409  0.5300  0.0252
 8910TIP3    H148221   2.726   4.104   1.114 -1.4542  1.8663  1.2309
 8910TIP3    H248222   2.658   4.138   0.983 -0.3229  0.4890  0.2594
 8911TIP3   OH248223   1.352   2.167  14.566  0.3515  0.0054 -0.0959
 8911TIP3    H148224   1.341   2.240  14.504  0.4231 -0.3889 -0.5827
 8911TIP3    H248225   1.311   2.092  14.522  1.8053 -0.6563 -0.3815
 8912TIP3   OH248226   4.808   3.344   3.736  0.1186 -0.1091 -0.1757
 8912TIP3    H148227   4.749   3.416   3.760  0.2008 -0.1599  0.1811
 8912TIP3    H248228   4.892   3.387   3.720  0.2150 -0.1450  0.2215
 8913TIP3   OH248229   4.502   3.233   4.723  0.3581 -0.1712 -0.1592
 8913TIP3    H148230   4.568   3.285   4.768  0.2211 -0.3533  0.2666
 8913TIP3    H248231   4.437   3.213   4.791 -1.8906  2.7637 -1.2371
 8914TIP3   OH248232   1.201   5.585   5.009  0.3252 -0.0592 -0.1886
 8914TIP3    H148233   1.296   5.574   5.000  0.6056  1.7524  0.0810
 8914TIP3    H248234   1.164   5.520   4.950  1.7990  1.0637 -2.5289
 8915TIP3   OH248235   3.074   0.114  13.699  0.3373  0.0604  0.2021
 8915TIP3    H148236   3.076   0.160  13.616 -1.5914 -0.5331 -0.2136
 8915TIP3    H248237   3.095   0.023  13.677  0.5380  0.0376  0.4780
 8916TIP3   OH248238   5.476   2.378   5.581  0.1950  0.2489 -0.2495
 8916TIP3    H148239   5.539   2.352   5.648 -0.9135 -0.7336  0.4324
 8916TIP3    H248240   5.457   2.298   5.533 -0.8665  0.4337 -0.1606
 8917TIP3   OH248241   4.227   6.088  14.189 -0.1043 -0.2599  0.2308
 8917TIP3    H148242   4.320   6.097  14.212 -0.7693  1.5127  2.6123
 8917TIP3    H248243   4.206   6.169  14.143  0.2148 -2.0668 -3.3901
 8918TIP3   OH248244   4.972   6.610  13.438  0.1714  0.5102  0.1000
 8918TIP3    H148245   4.929   6.677  13.492 -1.2667  0.2496 -0.6520
 8918TIP3    H248246   4.949   6.527  13.480  0.0546  0.3781 -0.2184
 8919TIP3   OH248247   3.181   0.858  13.871  0.1867 -0.2748 -0.0804
 8919TIP3    H148248   3.142   0.936  13.832 -3.3750 -1.1630  1.3451
 8919TIP3    H248249   3.225   0.890  13.950 -2.1482  0.2982  1.0815
 8920TIP3   OH248250   6.730   4.763  14.748  0.3217 -0.1976 -0.3041
 8920TIP3    H148251   6.733   4.724  14.661 -0.4811 -0.5492 -0.1788
 8920TIP3    H248252   6.735   4.689  14.808 -0.1043 -0.0299 -0.0580
 8921TIP3   OH248253   6.286   3.532  12.581  0.0912  0.1825 -0.0002
 8921TIP3    H148254   6.270   3.453  12.530  0.6789 -0.0682  0.1849
 8921TIP3    H248255   6.307   3.499  12.669  0.0095  0.5592  0.1618
 8922TIP3   OH248256   6.344   6.546  16.027  0.0983  0.7723 -0.2519
 8922TIP3    H148257   6.322   6.633  16.062 -0.2288  1.1335 -1.3270
 8922TIP3    H248258   6.356   6.560  15.933  0.9274 -0.1867 -0.3036
 8923TIP3   OH248259   1.093   0.734   4.997 -0.5115 -0.7612  0.0124
 8923TIP3    H148260   1.035   0.803   5.028  1.7323  2.1101 -1.6401
 8923TIP3    H248261   1.181   0.765   5.017  0.6380 -3.0863 -1.0023
 8924TIP3   OH248262   6.760   5.608  16.200  0.1418 -0.0117 -0.0616
 8924TIP3    H148263   6.813   5.584  16.123 -0.1668 -3.1948  0.5901
 8924TIP3    H248264   6.672   5.578  16.179 -0.8756  2.6307  0.0570
 8925TIP3   OH248265   4.983   4.061  11.379  0.2699 -0.2662 -0.5793
 8925TIP3    H148266   4.964   4.152  11.401  1.5840 -0.0629 -0.2569
 8925TIP3    H248267   4.989   4.017  11.464 -0.4840 -0.7013 -0.7363
 8926TIP3   OH248268   3.732   4.934  15.125 -0.4188  0.5626 -0.3693
 8926TIP3    H148269   3.650   4.983  15.133 -1.7292 -1.5163 -0.2917
 8926TIP3    H248270   3.754   4.939  15.032 -1.4839 -0.0937 -0.6784
 8927TIP3   OH248271   5.572   0.041  15.124  0.4698 -0.0181 -0.2010
 8927TIP3    H148272   5.554   0.134  15.112 -1.6184 -0.4748 -1.0029
 8927TIP3    H248273   5.561   0.003  15.037  0.1062 -1.1951  0.3339
 8928TIP3   OH248274   0.075   6.605   3.299  0.3091  0.0470  0.5342
 8928TIP3    H148275  -0.010   6.620   3.257  0.3024  1.4918  1.0383
 8928TIP3    H248276   0.055   6.552   3.376 -0.1967  0.7194  0.8711
 8929TIP3   OH248277   0.772   5.960  14.690  0.0187  0.0922 -0.2315
 8929TIP3    H148278   0.824   5.941  14.769  0.0563 -0.4765 -0.3858
 8929TIP3    H248279   0.835   5.952  14.618 -0.0420  0.4921 -0.3319
 8930TIP3   OH248280   0.975   3.057   3.992 -0.0973 -0.5732 -0.3286
 8930TIP3    H148281   0.949   3.087   3.905 -0.5687 -0.2341 -0.0807
 8930TIP3    H248282   0.946   2.966   3.996 -1.4178 -0.1567 -0.0069
 8931TIP3   OH248283   1.643   1.179  11.926  0.2107 -0.0046  0.3034
 8931TIP3    H148284   1.691   1.102  11.895 -0.4474 -0.1549 -0.3501
 8931TIP3    H248285   1.696   1.253  11.898  1.1016 -0.2082  1.3520
 8932TIP3   OH248286   6.820   0.195   5.993  0.2773  0.3781  0.2105
 8932TIP3    H148287   6.863   0.246   6.061  0.4357  0.6693 -0.1053
 8932TIP3    H248288   6.804   0.110   6.033 -0.3953  0.8191  0.8876
 8933TIP3   OH248289   5.809   4.218  12.035 -0.5933  0.2798  0.2298
 8933TIP3    H148290   5.859   4.137  12.043  0.6333  1.0351  0.5794
 8933TIP3    H248291   5.759   4.208  11.955  0.2196 -0.4729 -0.1962
 8934TIP3   OH248292   0.638   2.719  15.773  0.1919  0.5913  0.2286
 8934TIP3    H148293   0.560   2.668  15.750  0.2044 -0.3852  2.1123
 8934TIP3    H248294   0.711   2.664  15.747  0.2044 -0.0940  1.5995
 8935TIP3   OH248295   6.571   5.231  14.359  0.2787  0.3419  0.0683
 8935TIP3    H148296   6.512   5.295  14.397 -0.8152 -0.6965  0.1553
 8935TIP3    H248297   6.557   5.239  14.264 -1.4478 -1.1961  0.1446
 8936TIP3   OH248298   1.357   5.736   2.623  0.5148 -0.4834  0.0951
 8936TIP3    H148299   1.429   5.701   2.675  0.8306  0.7431  0.5053
 8936TIP3    H248300   1.328   5.814   2.670 -0.1196 -0.1377 -0.8317
 8937TIP3   OH248301   5.379   3.588  14.683  0.4244  0.4237 -0.1330
 8937TIP3    H148302   5.308   3.528  14.662  1.0450 -1.3027  2.2692
 8937TIP3    H248303   5.351   3.629  14.766  1.8364  0.3512  0.3976
 8938TIP3   OH248304   0.992   4.407  14.931  0.0637 -0.0960 -0.3136
 8938TIP3    H148305   0.996   4.322  14.976  2.4005  0.8503  1.4985
 8938TIP3    H248306   0.912   4.403  14.879 -0.5210 -2.9494  0.6188
 8939TIP3   OH248307   0.982   3.974   4.255 -0.1441  0.0179 -0.4045
 8939TIP3    H148308   0.921   4.030   4.301  1.2865  1.2106  0.1323
 8939TIP3    H248309   0.963   3.989   4.162 -0.7468  0.2594 -0.2475
 8940TIP3   OH248310   2.981   5.754   3.285  0.1400 -0.2432  0.4195
 8940TIP3    H148311   3.047   5.685   3.287  0.0661 -0.3482 -0.5006
 8940TIP3    H248312   2.906   5.716   3.330 -0.3526 -1.2570 -1.1797
 8941TIP3   OH248313   0.811   6.207  16.710 -0.3438  0.3530  0.6049
 8941TIP3    H148314   0.738   6.154  16.742  0.3063 -0.9540 -0.0004
 8941TIP3    H248315   0.813   6.283  16.769 -1.6528  0.0007  1.1425
 8942TIP3   OH248316   5.814   0.975  12.608  0.3914 -0.3335  0.4978
 8942TIP3    H148317   5.896   0.926  12.602 -0.0921 -0.9649 -1.8014
 8942TIP3    H248318   5.773   0.943  12.689  1.0314 -2.2558  0.1119
 8943TIP3   OH248319   3.940   3.668   1.304  0.3791 -0.3795  0.4489
 8943TIP3    H148320   3.852   3.679   1.268  0.9463  0.3908 -0.7523
 8943TIP3    H248321   3.990   3.630   1.232  1.1223 -0.4513  0.9999
 8944TIP3   OH248322   5.780   1.065   4.731  0.2901 -0.3130 -0.2932
 8944TIP3    H148323   5.750   1.006   4.662 -3.4586  0.4840  0.4747
 8944TIP3    H248324   5.838   1.011   4.785  1.3292 -1.6470 -2.6082
 8945TIP3   OH248325   1.216   0.413   2.507 -0.9568 -0.5393 -0.1086
 8945TIP3    H148326   1.253   0.492   2.547 -0.7247 -1.5302  1.7760
 8945TIP3    H248327   1.249   0.413   2.417 -2.1679  2.2399 -0.6529
 8946TIP3   OH248328   3.660   5.835   2.033 -0.5453 -0.2662 -0.4432
 8946TIP3    H148329   3.735   5.891   2.013 -0.1884 -0.0645  1.3118
 8946TIP3    H248330   3.643   5.788   1.952  1.0586  0.1752 -1.0707
 8947TIP3   OH248331   2.391   5.849   5.111  0.0089 -0.3951  0.5938
 8947TIP3    H148332   2.351   5.774   5.067  0.4049 -0.2397 -0.0507
 8947TIP3    H248333   2.459   5.879   5.050  0.6955 -0.2809  1.3932
 8948TIP3   OH248334   6.690   2.801   5.464  0.2133  0.0178 -0.2005
 8948TIP3    H148335   6.627   2.746   5.510  0.6840 -1.0774 -0.8305
 8948TIP3    H248336   6.735   2.849   5.534 -1.8816  1.5031  0.2080
 8949TIP3   OH248337   0.546   1.124   4.207  0.1241 -0.5636 -0.2462
 8949TIP3    H148338   0.621   1.079   4.246  0.8761 -0.3172 -1.3749
 8949TIP3    H248339   0.528   1.074   4.127  0.5104  0.6992 -1.1423
 8950TIP3   OH248340   2.276   0.056  15.933  0.0611  0.0044  0.1488
 8950TIP3    H148341   2.257   0.055  15.839 -0.7357  1.3620  0.2617
 8950TIP3    H248342   2.369   0.078  15.938  0.9380 -3.1844 -0.3438
 8951TIP3   OH248343   6.230   5.815   1.491  0.2233 -0.1118 -0.5405
 8951TIP3    H148344   6.324   5.807   1.478  0.1915 -1.1974 -0.1338
 8951TIP3    H248345   6.221   5.883   1.558  0.7644 -0.5959  0.0344
 8952TIP3   OH248346   0.479   1.756   0.501  0.2325  0.4263 -0.0358
 8952TIP3    H148347   0.510   1.823   0.440 -0.6859  0.4023 -0.5382
 8952TIP3    H248348   0.552   1.744   0.562  0.6201  1.4845 -0.2663
 8953TIP3   OH248349   1.248   5.822   4.150 -0.3257  0.7033 -0.3511
 8953TIP3    H148350   1.237   5.915   4.169 -0.4892  0.8388 -1.0713
 8953TIP3    H248351   1.208   5.810   4.064 -0.3198 -0.0387 -0.2597
 8954TIP3   OH248352   3.641   4.867  12.463  0.1131  0.2048 -0.4446
 8954TIP3    H148353   3.724   4.819  12.470 -0.1472 -0.1210  0.8133
 8954TIP3    H248354   3.667   4.957  12.447  0.7268  0.1380  0.1279
 8955TIP3   OH248355   1.285   1.370  13.666 -0.1380 -0.1972 -0.3464
 8955TIP3    H148356   1.221   1.312  13.625 -0.6044  0.1739 -0.1433
 8955TIP3    H248357   1.300   1.332  13.752 -0.4603 -0.0027 -0.2051
 8956TIP3   OH248358   1.239   5.204  11.309 -0.1771 -0.6122  0.1568
 8956TIP3    H148359   1.176   5.275  11.299  0.8694  0.1323 -1.7005
 8956TIP3    H248360   1.277   5.217  11.396 -0.8850  0.3422  0.3421
 8957TIP3   OH248361   4.977   6.439  14.898 -0.5916 -0.1009 -0.0316
 8957TIP3    H148362   4.947   6.526  14.923 -1.0052 -0.8141  2.1882
 8957TIP3    H248363   5.073   6.443  14.905 -0.2817  1.0379 -3.2212
 8958TIP3   OH248364   4.997   6.476  16.986 -0.3844 -0.2649 -0.3864
 8958TIP3    H148365   5.058   6.512  16.923 -0.5546  0.6078 -0.0645
 8958TIP3    H248366   5.022   6.516  17.070 -1.4535  0.2024 -0.2728
 8959TIP3   OH248367   0.889   1.557  17.181 -0.4475  0.0234 -0.4833
 8959TIP3    H148368   0.983   1.575  17.190 -0.5632  0.0884  0.8158
 8959TIP3    H248369   0.884   1.466  17.153  0.0105  0.1518 -0.9949
 8960TIP3   OH248370   1.497   1.618   1.884  0.6686 -0.4408 -0.5236
 8960TIP3    H148371   1.457   1.648   1.965  0.4403  0.0743 -0.8269
 8960TIP3    H248372   1.584   1.587   1.910 -0.0291 -1.9047  0.1999
 8961TIP3   OH248373   5.177   3.958   1.097 -0.2511  0.0102  0.2175
 8961TIP3    H148374   5.090   3.995   1.109  0.0068  1.2797 -1.4559
 8961TIP3    H248375   5.202   3.926   1.184 -1.5803  1.3882  1.1562
 8962TIP3   OH248376   3.302   2.454  12.554 -0.6413  0.3331  0.1865
 8962TIP3    H148377   3.227   2.512  12.560  1.2376  3.0158 -0.4536
 8962TIP3    H248378   3.277   2.389  12.488 -1.4633  2.7977 -2.1104
 8963TIP3   OH248379   2.752   0.386  12.907  0.1983 -0.5532  0.0100
 8963TIP3    H148380   2.828   0.416  12.956 -0.3892  1.2345 -0.0915
 8963TIP3    H248381   2.788   0.347  12.828  1.0174  0.9750 -0.4144
 8964TIP3   OH248382   4.009   0.251  12.074 -0.0241 -0.5737  0.0623
 8964TIP3    H148383   4.047   0.334  12.046 -0.2191 -0.6756 -0.5143
 8964TIP3    H248384   4.083   0.194  12.090  0.3109  0.5056  3.1738
 8965TIP3   OH248385   2.018   6.785   0.296 -0.2698  0.6858  0.1298
 8965TIP3    H148386   1.966   6.856   0.258 -0.6139  0.1119 -0.4915
 8965TIP3    H248387   1.993   6.784   0.388 -0.8016  0.9042 -0.0070
 8966TIP3   OH248388   5.020   5.353   2.736 -0.3910 -0.0301  0.3504
 8966TIP3    H148389   4.935   5.391   2.757 -0.6693 -1.0267  1.1492
 8966TIP3    H248390   5.032   5.283   2.801  1.6429  0.9467  1.1226
 8967TIP3   OH248391   1.250   6.209  10.995 -0.0633 -0.0724  0.0436
 8967TIP3    H148392   1.205   6.190  10.913  0.5761  0.7577 -0.5157
 8967TIP3    H248393   1.184   6.192  11.063 -0.7311 -0.3579 -0.6581
 8968TIP3   OH248394   3.665   2.754   5.535 -0.3435  0.2370 -0.1823
 8968TIP3    H148395   3.742   2.771   5.590  0.1372 -1.9530 -0.0845
 8968TIP3    H248396   3.592   2.753   5.596  0.1807 -2.1398  0.4950
 8969TIP3   OH248397   3.222   3.155   4.349  0.0455  0.1186 -0.2259
 8969TIP3    H148398   3.171   3.105   4.286 -0.1703 -1.7123  1.3030
 8969TIP3    H248399   3.222   3.244   4.314 -0.4639 -0.7023 -2.5169
 8970TIP3   OH248400   3.432   2.209  12.058  0.3286 -0.0172 -0.0617
 8970TIP3    H148401   3.470   2.176  11.977 -0.7407 -1.4034 -0.0307
 8970TIP3    H248402   3.396   2.295  12.034  2.4834  0.8831 -0.3178
 8971TIP3   OH248403   4.487   1.905  16.579  0.6068 -0.5992  0.0713
 8971TIP3    H148404   4.512   1.966  16.649  0.2353 -0.5981  0.2097
 8971TIP3    H248405   4.471   1.961  16.503  0.5055 -0.5457  0.1305
 8972TIP3   OH248406   3.042   6.075  12.895 -0.4385 -0.1465 -0.5668
 8972TIP3    H148407   2.951   6.096  12.917 -0.4355 -1.1666  0.5125
 8972TIP3    H248408   3.091   6.092  12.975  0.2668  0.0385 -1.0271
 8973TIP3   OH248409   5.338   2.190  17.179  0.2221  0.3752  0.0891
 8973TIP3    H148410   5.320   2.099  17.157  1.2069  0.0816  0.4732
 8973TIP3    H248411   5.269   2.214  17.241  0.1287 -0.1981  0.2080
 8974TIP3   OH248412   4.760   5.867   4.486  0.1992  0.7596  0.1836
 8974TIP3    H148413   4.840   5.817   4.498 -0.4292 -0.0847  0.9487
 8974TIP3    H248414   4.692   5.802   4.470  0.0987  1.5340 -3.6101
 8975TIP3   OH248415   5.215   5.652   6.540 -0.1965 -0.5644 -0.2304
 8975TIP3    H148416   5.183   5.590   6.475 -2.5692 -0.7236  0.9689
 8975TIP3    H248417   5.151   5.647   6.612  1.6077  0.5118  1.5723
 8976TIP3   OH248418   5.060   2.263  14.497 -0.0024 -0.3121 -0.2459
 8976TIP3    H148419   5.135   2.293  14.548  0.3338 -2.3853  0.5603
 8976TIP3    H248420   5.053   2.170  14.517 -2.2432 -0.3610 -1.0204
 8977TIP3   OH248421   1.575   6.734  16.683  0.6451 -0.0542 -0.2344
 8977TIP3    H148422   1.591   6.822  16.649  2.8625 -0.6368 -0.8658
 8977TIP3    H248423   1.572   6.745  16.778  1.6923  0.6147 -0.2611
 8978TIP3   OH248424   3.252   4.740   0.612  0.4279 -0.1788  0.4605
 8978TIP3    H148425   3.167   4.780   0.633  0.5573  0.0792  0.4909
 8978TIP3    H248426   3.233   4.681   0.540  0.3377  0.3368  0.0558
 8979TIP3   OH248427   0.055   5.947  15.321  1.0067  0.1741 -0.2623
 8979TIP3    H148428   0.075   5.940  15.227  0.6789  2.3137 -0.5405
 8979TIP3    H248429   0.137   5.926  15.365  0.6699 -2.8959 -0.8890
 8980TIP3   OH248430   2.609   3.255   6.464 -0.0310 -0.3623 -0.8718
 8980TIP3    H148431   2.638   3.182   6.410  1.3388 -2.0763  1.9367
 8980TIP3    H248432   2.519   3.233   6.487  0.1617 -0.8441 -0.5663
 8981TIP3   OH248433   6.040   1.471   3.929 -0.6640 -0.8776 -0.6178
 8981TIP3    H148434   6.083   1.412   3.868 -0.3586 -1.2261 -0.0787
 8981TIP3    H248435   6.015   1.547   3.876 -0.0821 -1.0139 -1.0953
 8982TIP3   OH248436   3.417   2.624   4.435  0.0145  0.2151  0.4936
 8982TIP3    H148437   3.483   2.627   4.366 -0.8298 -0.8186 -0.3934
 8982TIP3    H248438   3.421   2.710   4.476  1.1403  0.5442 -0.2706
 8983TIP3   OH248439   3.059   4.171  17.000 -0.3734  0.4787  0.2088
 8983TIP3    H148440   3.054   4.078  17.023 -2.6054  0.7528  1.0774
 8983TIP3    H248441   3.012   4.178  16.917 -1.7762  1.0272  1.0076
 8984TIP3   OH248442   3.150   3.989  13.128 -0.1412  0.1413  0.2921
 8984TIP3    H148443   3.096   3.997  13.049  0.7896 -0.1701 -0.3906
 8984TIP3    H248444   3.111   4.050  13.190 -1.8521 -0.7375  0.1549
 8985TIP3   OH248445   0.895   4.715  15.078  0.3285 -0.2945 -0.2684
 8985TIP3    H148446   0.963   4.648  15.068 -0.4692 -1.5486  2.1012
 8985TIP3    H248447   0.944   4.796  15.092  1.3786 -1.0966  0.9706
 8986TIP3   OH248448   1.574   6.366  16.315 -0.1517 -0.1443 -0.2152
 8986TIP3    H148449   1.643   6.389  16.253  1.3271 -1.3636  0.9147
 8986TIP3    H248450   1.590   6.422  16.390 -0.6019 -0.2046 -0.0716
 8987TIP3   OH248451   6.401   3.584  14.896  0.6141 -0.4202 -0.0676
 8987TIP3    H148452   6.390   3.658  14.955  2.1867 -0.1866 -0.0213
 8987TIP3    H248453   6.489   3.595  14.859  0.1537 -1.2441 -1.4961
 8988TIP3   OH248454   3.026   2.723   2.148  0.2983  0.0379 -0.1951
 8988TIP3    H148455   3.115   2.757   2.159  0.3750 -0.6705  1.7922
 8988TIP3    H248456   3.038   2.630   2.131 -0.0482  0.0800 -0.6765
 8989TIP3   OH248457   5.828   3.132  13.871 -0.0616 -0.3716  0.1058
 8989TIP3    H148458   5.838   3.083  13.953 -1.6139  0.5538  0.9088
 8989TIP3    H248459   5.744   3.102  13.836  0.5262 -0.6558 -1.0960
 8990TIP3   OH248460   5.117   4.231   2.475 -0.3822  0.0554  0.3240
 8990TIP3    H148461   5.075   4.242   2.390 -0.9566  1.3631  0.7410
 8990TIP3    H248462   5.095   4.311   2.523 -1.8954 -1.5387  2.4840
 8991TIP3   OH248463   5.116   6.776  13.091 -0.6815 -0.2307  0.2326
 8991TIP3    H148464   5.065   6.854  13.114 -1.2713 -0.5420 -0.0186
 8991TIP3    H248465   5.103   6.765  12.997 -1.2542 -1.0987  0.4051
 8992TIP3   OH248466   2.221   0.197  17.185  0.0808 -0.1728 -0.1115
 8992TIP3    H148467   2.311   0.171  17.170  0.0381  0.3290 -1.3703
 8992TIP3    H248468   2.223   0.247  17.266  0.9516 -0.0890 -0.1793
 8993TIP3   OH248469   2.264   5.570   3.022 -0.1159  1.0235 -0.4023
 8993TIP3    H148470   2.342   5.622   3.001 -0.9602  2.2170 -0.6693
 8993TIP3    H248471   2.228   5.611   3.101  0.8723 -1.0530  1.2450
 8994TIP3   OH248472   2.692   6.461  10.834  0.5226 -0.7742  0.3813
 8994TIP3    H148473   2.712   6.421  10.918 -0.3107 -0.5014  0.7138
 8994TIP3    H248474   2.624   6.405  10.796 -1.2903  0.7556  1.2325
 8995TIP3   OH248475   4.828   0.653  13.607 -0.0558  0.6019  0.0478
 8995TIP3    H148476   4.913   0.670  13.648 -0.2763 -0.8151  1.1864
 8995TIP3    H248477   4.824   0.713  13.533  2.0627  0.4956 -0.2085
 8996TIP3   OH248478   1.375   2.568   2.156 -0.1052  0.4126 -0.4609
 8996TIP3    H148479   1.283   2.569   2.182  0.7976  0.1345  3.3343
 8996TIP3    H248480   1.388   2.482   2.118 -1.4170  0.5243 -1.2203
 8997TIP3   OH248481   0.745   6.477  14.693 -0.5912  0.9722  0.0185
 8997TIP3    H148482   0.678   6.420  14.655  1.0625 -0.4595 -0.9402
 8997TIP3    H248483   0.736   6.560  14.646 -1.2789  0.5960 -0.5389
 8998TIP3   OH248484   1.281   3.402   4.169  0.2216 -0.2657  0.1760
 8998TIP3    H148485   1.344   3.371   4.105  0.9462  0.2341  0.6270
 8998TIP3    H248486   1.331   3.464   4.223 -0.9410  1.0405 -0.1862
 8999TIP3   OH248487   3.126   6.417  15.893 -0.5624 -0.1240 -0.2430
 8999TIP3    H148488   3.136   6.415  15.798 -0.1457  0.4818 -0.2198
 8999TIP3    H248489   3.060   6.485  15.909 -0.3060  0.0891 -0.0810
 9000TIP3   OH248490   4.544   3.716  13.118 -0.2769 -0.2781 -0.1810
 9000TIP3    H148491   4.520   3.741  13.029  1.2230 -1.6644 -1.0269
 9000TIP3    H248492   4.463   3.681  13.156 -1.2568  1.5208 -0.4956
 9001TIP3   OH248493   0.094   4.150  14.700 -0.7478 -0.0388  0.2274
 9001TIP3    H148494   0.167   4.089  14.696  0.2001  1.0968 -0.5665
 9001TIP3    H248495   0.025   4.103  14.747 -0.0032 -1.6376 -0.2259
 9002TIP3   OH248496   5.316   6.475  11.376  0.0092  0.0426 -0.1590
 9002TIP3    H148497   5.292   6.397  11.425 -0.4626  0.0496 -0.3750
 9002TIP3    H248498   5.391   6.512  11.424 -0.8879  0.4533  0.9827
 9003TIP3   OH248499   1.175   2.672   5.620  0.0034 -0.3366 -0.2225
 9003TIP3    H148500   1.230   2.731   5.671  1.2359 -0.5132 -1.2896
 9003TIP3    H248501   1.184   2.703   5.530  0.0749 -1.6855 -0.6996
 9004TIP3   OH248502   2.404   6.700  15.695  0.0118 -0.0813 -0.3645
 9004TIP3    H148503   2.338   6.767  15.710  0.5655  0.3506  0.2055
 9004TIP3    H248504   2.355   6.618  15.687 -0.5848  0.2381  0.0127
 9005TIP3   OH248505   3.294   6.055   3.242  0.4175 -0.7228 -0.0477
 9005TIP3    H148506   3.285   6.036   3.336 -1.2338 -0.2703 -0.0808
 9005TIP3    H248507   3.204   6.061   3.210  0.8917  1.3831 -1.1959
 9006TIP3   OH248508   1.114   1.519   5.899 -0.5607 -0.1078  1.0263
 9006TIP3    H148509   1.126   1.589   5.834  1.2132 -1.2771  0.0070
 9006TIP3    H248510   1.099   1.565   5.981  2.7471  1.6228  0.8439
 9007TIP3   OH248511   4.706   5.590   3.039  0.4114 -0.0586  0.0729
 9007TIP3    H148512   4.695   5.572   3.132  1.4335 -2.2388 -0.1766
 9007TIP3    H248513   4.795   5.626   3.032  1.0897 -1.7215 -0.2431
 9008TIP3   OH248514   1.928   5.096  13.929 -0.4499  0.2325 -0.2733
 9008TIP3    H148515   1.951   5.039  13.856  0.1301  1.6136 -1.2102
 9008TIP3    H248516   1.854   5.052  13.971  0.7679 -1.8452 -0.1615
 9009TIP3   OH248517   6.255   2.775   6.121 -0.0530 -0.1650 -0.3186
 9009TIP3    H148518   6.280   2.769   6.029  0.4589 -2.4902 -0.0880
 9009TIP3    H248519   6.326   2.732   6.169 -0.8261  0.0110  1.0579
 9010TIP3   OH248520   0.566   0.224   1.748 -0.0826 -0.3086  0.1655
 9010TIP3    H148521   0.477   0.244   1.775  0.4691  2.0668  0.4724
 9010TIP3    H248522   0.620   0.244   1.824  1.1340  3.0294 -1.3784
 9011TIP3   OH248523   1.029   1.440   3.036 -0.4504  0.3214 -0.2334
 9011TIP3    H148524   0.968   1.424   3.108 -0.2355  1.5511  0.2464
 9011TIP3    H248525   1.076   1.519   3.061  0.7658 -0.1356 -0.9891
 9012TIP3   OH248526   4.392   3.167   4.977 -0.1789 -0.6647 -0.0510
 9012TIP3    H148527   4.414   3.078   4.948 -0.4004 -0.7959  0.1684
 9012TIP3    H248528   4.422   3.170   5.068 -1.6893 -1.0998  0.5018
 9013TIP3   OH248529   3.038   0.396  14.033 -0.5967  0.0499 -0.0283
 9013TIP3    H148530   3.080   0.382  14.117  1.1836  0.1520 -0.8581
 9013TIP3    H248531   2.975   0.324  14.024  1.2905 -1.6843  0.1166
 9014TIP3   OH248532   5.535   2.141   2.464 -0.6395  0.4831  0.2117
 9014TIP3    H148533   5.612   2.169   2.515 -1.5703  0.6253  1.5934
 9014TIP3    H248534   5.499   2.222   2.429 -0.2157  0.4242 -0.3736
 9015TIP3   OH248535   0.197   0.829   0.195  0.4558  0.0965  0.4895
 9015TIP3    H148536   0.179   0.736   0.183  1.3503 -0.0136 -0.0367
 9015TIP3    H248537   0.192   0.842   0.290  1.0019 -0.6285  0.6242
 9016TIP3   OH248538   4.487   5.699   2.900  0.4791 -0.2777 -0.7134
 9016TIP3    H148539   4.556   5.647   2.940  0.4190  0.2288  0.0800
 9016TIP3    H248540   4.492   5.784   2.945 -2.3262 -1.0131  1.3109
 9017TIP3   OH248541   5.734   5.165   6.596  0.2237  0.1411 -0.0653
 9017TIP3    H148542   5.732   5.096   6.662  0.3696 -1.0632 -1.2912
 9017TIP3    H248543   5.825   5.192   6.591 -0.0336  1.4480  1.4006
 9018TIP3   OH248544   6.464   1.153  16.831 -0.0611 -0.6521  0.0000
 9018TIP3    H148545   6.547   1.119  16.865  1.5188  0.7962 -2.1291
 9018TIP3    H248546   6.429   1.083  16.778  0.9300 -0.5571 -0.8150
 9019TIP3   OH248547   0.265   6.233  11.241  0.1332 -0.6725  0.5793
 9019TIP3    H148548   0.208   6.261  11.170 -1.3868 -0.6705  1.7575
 9019TIP3    H248549   0.347   6.209  11.198 -0.3970  0.2797 -1.0495
 9020TIP3   OH248550   2.942   2.444   2.308 -0.1875 -0.2633 -0.5587
 9020TIP3    H148551   2.942   2.357   2.269 -0.5682  0.6935 -2.8476
 9020TIP3    H248552   2.928   2.504   2.234 -2.1563  1.6271  1.1936
 9021TIP3   OH248553   3.835   1.870  12.960  0.5634  0.2336 -0.0229
 9021TIP3    H148554   3.864   1.922  13.036 -0.6568 -1.3504  1.6113
 9021TIP3    H248555   3.758   1.823  12.991  1.1003 -1.8986 -1.6636
 9022TIP3   OH248556   2.471   1.281  15.835  0.3669 -0.0634 -0.0520
 9022TIP3    H148557   2.431   1.308  15.752 -0.5053 -0.4414  0.2404
 9022TIP3    H248558   2.416   1.209  15.867 -0.3383  1.1799  1.6957
 9023TIP3   OH248559   5.319   3.324  13.031  0.3424  0.2515  0.0983
 9023TIP3    H148560   5.319   3.410  12.988 -0.3812  0.3433  0.2684
 9023TIP3    H248561   5.235   3.285  13.006 -0.0020  0.2269  1.2630
 9024TIP3   OH248562   1.913   4.102   4.214  0.4819  0.0286  0.1908
 9024TIP3    H148563   1.909   4.184   4.262  2.3444  0.3366 -0.0964
 9024TIP3    H248564   1.905   4.034   4.281  0.6940  0.4582  0.6553
 9025TIP3   OH248565   2.169   4.676   0.421 -0.2637 -0.2443 -0.1426
 9025TIP3    H148566   2.253   4.637   0.395 -1.2129 -1.1170 -2.1248
 9025TIP3    H248567   2.131   4.611   0.481  1.1747  0.9695  2.2287
 9026TIP3   OH248568   6.307   0.779  15.110  0.8378 -0.5295 -0.1687
 9026TIP3    H148569   6.215   0.802  15.106  0.4504 -1.4851  1.8232
 9026TIP3    H248570   6.342   0.804  15.025 -1.3517 -0.6061 -1.1562
 9027TIP3   OH248571   3.329   6.347   3.265 -0.5176  0.3480 -0.5730
 9027TIP3    H148572   3.297   6.271   3.216 -0.1699 -0.7634  0.8675
 9027TIP3    H248573   3.306   6.422   3.210  0.2549 -0.8593 -2.6645
 9028TIP3   OH248574   0.570   4.773   1.979  0.0804 -0.7079 -0.1697
 9028TIP3    H148575   0.484   4.806   2.007  0.8384  0.8464  0.4207
 9028TIP3    H248576   0.576   4.800   1.887  0.5971  0.6313  0.2446
 9029TIP3   OH248577   3.619   1.176  11.892  0.1371  0.5693 -0.2600
 9029TIP3    H148578   3.616   1.096  11.945  3.6262  1.0591  0.9018
 9029TIP3    H248579   3.673   1.152  11.816 -0.4672  1.3237 -0.9496
 9030TIP3   OH248580   0.485   6.117   3.440  0.1658  0.3237 -0.1936
 9030TIP3    H148581   0.550   6.139   3.373  0.5566 -0.2466 -0.0031
 9030TIP3    H248582   0.470   6.023   3.430  0.3519  0.1942  0.6170
 9031TIP3   OH248583   4.794   1.192  12.200 -0.0473 -0.2521  0.6289
 9031TIP3    H148584   4.810   1.105  12.164  0.3662  1.0194 -2.6291
 9031TIP3    H248585   4.768   1.177  12.291  1.1413 -3.6455  0.5133
 9032TIP3   OH248586   0.554   0.157   1.480  0.0007 -0.7538  0.3060
 9032TIP3    H148587   0.460   0.170   1.473  0.2876  0.8814 -1.1048
 9032TIP3    H248588   0.572   0.162   1.574 -1.0858  0.7854  0.4672
 9033TIP3   OH248589   0.910   5.987  17.033  0.6607 -0.0128 -0.2623
 9033TIP3    H148590   0.840   6.052  17.044  1.3653  0.5387  1.2292
 9033TIP3    H248591   0.987   6.029  17.071  1.6777 -0.8578 -1.3114
 9034TIP3   OH248592   6.807   0.804   2.155  0.1737  0.0274  1.0680
 9034TIP3    H148593   6.764   0.820   2.071 -0.7120  1.1774  1.7070
 9034TIP3    H248594   6.843   0.889   2.180  2.2926 -0.7412  0.8904
 9035TIP3   OH248595   3.008   6.599  13.992  0.0545  0.5869  0.3582
 9035TIP3    H148596   2.919   6.590  13.958  0.4448 -1.1163 -0.3155
 9035TIP3    H248597   3.056   6.646  13.923 -0.0587  0.5179  0.2327
 9036TIP3   OH248598   5.765   5.163   4.620  0.1398 -0.6059 -0.2517
 9036TIP3    H148599   5.680   5.190   4.584 -0.3097 -0.4961  0.8426
 9036TIP3    H248600   5.778   5.220   4.696  1.1629 -0.6833 -0.3551
 9037TIP3   OH248601   1.643   0.387   3.697 -0.2259  0.5543 -0.8888
 9037TIP3    H148602   1.663   0.399   3.604  1.5705  1.4876 -0.4362
 9037TIP3    H248603   1.565   0.332   3.698  0.1388 -0.0971 -2.9333
 9038TIP3   OH248604   2.548   5.094   1.751 -0.6905 -0.4986 -0.2146
 9038TIP3    H148605   2.602   5.078   1.673  0.8169 -0.0053  0.6910
 9038TIP3    H248606   2.563   5.186   1.772 -0.9616 -0.6586  0.7353
 9039TIP3   OH248607   6.514   6.029  12.028  0.3862 -0.1782  0.5340
 9039TIP3    H148608   6.557   6.059  12.108 -1.1202 -0.7258  1.5860
 9039TIP3    H248609   6.492   5.938  12.045  1.0581 -0.6559 -0.9716
 9040TIP3   OH248610   4.594   1.592   2.971 -0.1802 -0.1223 -0.3940
 9040TIP3    H148611   4.653   1.667   2.983  0.2757 -0.7498  1.6718
 9040TIP3    H248612   4.561   1.601   2.882  1.4013  1.4314 -0.8671
 9041TIP3   OH248613   4.835   3.749   2.142 -0.1181 -0.1146  0.1125
 9041TIP3    H148614   4.743   3.732   2.165 -0.4337  0.4883 -0.6781
 9041TIP3    H248615   4.831   3.802   2.063  0.9112  0.4762  0.4366
 9042TIP3   OH248616   3.609   4.630   0.538 -0.1807 -0.5451 -0.5087
 9042TIP3    H148617   3.563   4.557   0.497 -0.9663 -0.5670  0.3855
 9042TIP3    H248618   3.550   4.660   0.607  0.7714 -0.0061  0.0931
 9043TIP3   OH248619   1.793   4.699   1.459  0.0658  0.3497  0.0296
 9043TIP3    H148620   1.750   4.698   1.373  0.1761 -0.0034 -0.0210
 9043TIP3    H248621   1.885   4.717   1.440  0.4740 -1.6538 -0.1009
 9044TIP3   OH248622   6.529   3.413   2.350  0.0663 -0.1589 -0.4410
 9044TIP3    H148623   6.449   3.465   2.345  0.2447  0.4985  2.1196
 9044TIP3    H248624   6.525   3.372   2.436  2.9064  0.6546  0.1731
 9045TIP3   OH248625   1.319   2.002   3.226  0.4763 -0.2015  0.6644
 9045TIP3    H148626   1.360   2.021   3.142  1.1535  0.7282  1.1782
 9045TIP3    H248627   1.297   2.088   3.262 -2.1932 -0.6525  0.3173
 9046TIP3   OH248628   1.871   5.297   2.309  0.1326  0.2227  0.1669
 9046TIP3    H148629   1.871   5.243   2.389 -0.1665  1.3489  0.9521
 9046TIP3    H248630   1.794   5.353   2.318  1.7873  2.5827  0.6501
 9047TIP3   OH248631   1.270   3.270  14.231 -0.5052  0.1160  0.7418
 9047TIP3    H148632   1.316   3.355  14.230 -1.5363  0.7149  1.6995
 9047TIP3    H248633   1.337   3.206  14.207  0.2848  1.2039 -0.0684
 9048TIP3   OH248634   1.047   0.517  11.826 -0.4098  0.1535 -0.3304
 9048TIP3    H148635   1.093   0.438  11.853 -0.6830 -0.4827 -1.6091
 9048TIP3    H248636   0.991   0.539  11.900  0.4681 -0.2172  0.4582
 9049TIP3   OH248637   2.896   1.395   6.059  0.7384  0.0370  0.1260
 9049TIP3    H148638   2.927   1.411   6.148  0.5457  1.7617 -0.0762
 9049TIP3    H248639   2.907   1.479   6.014  0.7465 -0.7658 -1.4609
 9050TIP3   OH248640   5.628   4.151  13.816  0.0764 -0.2554 -0.2616
 9050TIP3    H148641   5.588   4.187  13.896 -1.1834 -1.3113 -0.3702
 9050TIP3    H248642   5.720   4.174  13.823 -0.1878  0.5587  1.0055
 9051TIP3   OH248643   1.216   4.878  14.197 -0.4257  0.7549  0.0251
 9051TIP3    H148644   1.198   4.787  14.174 -2.6299  1.3321 -0.7892
 9051TIP3    H248645   1.252   4.874  14.286  0.6720 -0.9513 -0.4377
 9052TIP3   OH248646   3.276   0.002  12.628  0.1289 -0.4022 -0.1955
 9052TIP3    H148647   3.314   0.033  12.710 -0.2072 -0.6660  0.0633
 9052TIP3    H248648   3.199  -0.048  12.654  0.8984 -1.8461 -0.5703
 9053TIP3   OH248649   2.998   5.136  16.358  0.3227  0.3108 -0.0299
 9053TIP3    H148650   3.093   5.148  16.357  0.4698 -0.8319 -0.9639
 9053TIP3    H248651   2.970   5.158  16.269  0.0269 -1.5366 -0.4320
 9054TIP3   OH248652   5.386   3.024  14.490  0.0352 -0.2604  0.2768
 9054TIP3    H148653   5.426   3.011  14.576 -0.2647 -0.1571  0.4326
 9054TIP3    H248654   5.459   3.049  14.433  0.3131 -0.7994  0.3910
 9055TIP3   OH248655   5.822   0.363   2.001 -0.0425 -0.1630 -0.1690
 9055TIP3    H148656   5.782   0.439   1.958  0.3246 -0.9661 -2.0305
 9055TIP3    H248657   5.916   0.383   2.002 -0.1124  0.1540  0.9303
 9056TIP3   OH248658   1.579   3.042  15.121 -0.2765  0.1636 -0.0970
 9056TIP3    H148659   1.589   2.979  15.049 -1.5809 -0.3406  0.1301
 9056TIP3    H248660   1.484   3.049  15.133 -0.1084  1.2080  0.7407
 9057TIP3   OH248661   3.293   6.011  15.409 -0.1335 -0.0891 -0.6594
 9057TIP3    H148662   3.293   5.986  15.501  0.8073  0.1838 -0.5753
 9057TIP3    H248663   3.214   6.063  15.398 -1.3706 -1.8372 -0.5004
 9058TIP3   OH248664   0.509   4.323   6.387  0.0150 -0.1985 -0.7423
 9058TIP3    H148665   0.561   4.257   6.432  0.6915 -0.0906 -1.3508
 9058TIP3    H248666   0.572   4.375   6.337 -0.4476  1.1691  0.0226
 9059TIP3   OH248667   0.855   4.115   2.898 -0.0736  0.1520 -0.1623
 9059TIP3    H148668   0.940   4.127   2.855 -0.0794 -0.8930 -0.4904
 9059TIP3    H248669   0.804   4.064   2.836 -0.9666  0.7919  0.0259
 9060TIP3   OH248670   2.040   0.035  14.684 -0.3847 -0.3624  0.0695
 9060TIP3    H148671   2.018   0.021  14.592 -1.7049  1.1293  0.1087
 9060TIP3    H248672   1.964   0.002  14.732 -0.5634  0.6165  0.4910
 9061TIP3   OH248673   3.541   2.633   4.732  0.3421  0.1937  0.3144
 9061TIP3    H148674   3.489   2.571   4.680 -0.7800 -0.1473  1.7643
 9061TIP3    H248675   3.606   2.579   4.776  2.3218  0.6770 -1.8447
 9062TIP3   OH248676   3.984   2.384   0.979  0.2245 -0.6711 -0.1776
 9062TIP3    H148677   3.977   2.319   1.049 -0.1505  0.6048  1.0338
 9062TIP3    H248678   4.077   2.405   0.975 -0.0102  1.1779  1.8789
 9063TIP3   OH248679   1.548   0.665  13.460  0.2964 -0.5076 -0.3109
 9063TIP3    H148680   1.466   0.679  13.508  0.8383  1.1894  0.2101
 9063TIP3    H248681   1.601   0.610  13.517  0.9818  1.5845  1.1995
 9064TIP3   OH248682   4.181   3.616   3.045 -0.2715 -0.9413  0.0590
 9064TIP3    H148683   4.265   3.600   3.089 -0.9634  0.9648  2.3157
 9064TIP3    H248684   4.116   3.611   3.115 -1.7377 -0.0039 -1.1676
 9065TIP3   OH248685   2.815   3.138   2.225 -0.0129 -0.1689 -0.2084
 9065TIP3    H148686   2.749   3.150   2.293  0.1664 -0.8444  0.0953
 9065TIP3    H248687   2.887   3.094   2.269  0.7296  0.7300 -0.4943
 9066TIP3   OH248688   0.877   4.908   1.248 -0.1996 -0.2066 -0.4286
 9066TIP3    H148689   0.936   4.891   1.322 -0.7364 -1.0156 -0.1824
 9066TIP3    H248690   0.910   4.852   1.178 -0.3290 -0.2317 -0.4692
 9067TIP3   OH248691   2.371   1.033   5.556 -0.2094  0.1550 -0.0951
 9067TIP3    H148692   2.398   1.036   5.648  2.4656 -0.8474 -0.7584
 9067TIP3    H248693   2.301   0.968   5.555  1.1397 -1.4020  0.9749
 9068TIP3   OH248694   2.871   1.459  13.601 -0.1182 -0.5068  0.5036
 9068TIP3    H148695   2.852   1.551  13.585  1.9234 -0.2676 -1.0907
 9068TIP3    H248696   2.965   1.458  13.622  0.1507 -2.3105 -0.6119
 9069TIP3   OH248697   5.303   3.186   4.975  0.2720  0.4529 -0.8499
 9069TIP3    H148698   5.214   3.151   4.983 -0.3532  2.0399 -0.3181
 9069TIP3    H248699   5.325   3.215   5.064  1.3257  0.0751 -0.9830
 9070TIP3   OH248700   5.545   0.667  16.193 -0.5278 -0.3062 -0.3245
 9070TIP3    H148701   5.462   0.708  16.169 -0.5131 -0.0648  0.0324
 9070TIP3    H248702   5.520   0.581  16.228 -0.5794 -0.4853 -0.7932
 9071TIP3   OH248703   5.865   2.992   2.294  0.2543 -0.8062 -0.9212
 9071TIP3    H148704   5.775   3.019   2.275  0.4906  0.9603  0.1898
 9071TIP3    H248705   5.919   3.062   2.257  1.1364 -1.5754 -1.0970
 9072TIP3   OH248706   2.819   0.728   2.643  0.1227 -0.1688  0.4178
 9072TIP3    H148707   2.906   0.692   2.661 -0.2326 -1.5838 -0.4967
 9072TIP3    H248708   2.811   0.804   2.701  2.1556  0.2995  0.1441
 9073TIP3   OH248709   1.529   1.788  16.341  0.0712 -0.5337 -0.2132
 9073TIP3    H148710   1.433   1.792  16.342  0.0374 -1.2336  1.5584
 9073TIP3    H248711   1.549   1.722  16.275 -0.7243 -1.4258  0.4204
 9074TIP3   OH248712   3.071   3.493   3.848  0.3214  0.3234  0.4718
 9074TIP3    H148713   3.122   3.535   3.778  2.3832 -0.8317  1.1929
 9074TIP3    H248714   3.074   3.400   3.827  0.5236  0.0087  1.7936
 9075TIP3   OH248715   5.215   5.307  14.707 -0.2675 -0.3850  0.1749
 9075TIP3    H148716   5.167   5.289  14.626 -1.0904 -2.5262  1.0654
 9075TIP3    H248717   5.148   5.311  14.775  0.5250 -0.0186  0.9620
 9076TIP3   OH248718   4.669   6.368  12.183 -0.1568  0.4570  0.0652
 9076TIP3    H148719   4.700   6.306  12.118 -1.6454  1.2807 -1.5212
 9076TIP3    H248720   4.664   6.452  12.136 -1.3814  1.0565  1.1944
 9077TIP3   OH248721   2.150   5.867   2.520 -0.4543 -0.6181 -0.3861
 9077TIP3    H148722   2.118   5.798   2.462  1.8252 -0.5586 -1.8641
 9077TIP3    H248723   2.217   5.823   2.573 -1.8181 -0.4307  1.5681
 9078TIP3   OH248724   0.359   4.580  10.875  0.0556  0.1236  0.1010
 9078TIP3    H148725   0.437   4.622  10.910 -0.4034  0.4104  0.7839
 9078TIP3    H248726   0.370   4.586  10.780  0.7227  0.4211  0.1893
 9079TIP3   OH248727   0.417   0.648   1.149 -0.3611 -0.6346  0.5064
 9079TIP3    H148728   0.360   0.659   1.225 -1.1260 -0.8223 -0.0226
 9079TIP3    H248729   0.376   0.701   1.081  1.6306  1.5316  0.8753
 9080TIP3   OH248730   2.151   4.878   5.017  0.1574  0.2756 -0.2125
 9080TIP3    H148731   2.247   4.879   5.025  0.0081  0.1377  1.9123
 9080TIP3    H248732   2.119   4.890   5.106 -1.8233  0.1585 -0.8720
 9081TIP3   OH248733   6.418   3.847  13.828  0.2402 -0.0156 -0.4070
 9081TIP3    H148734   6.510   3.856  13.801 -0.1238  0.1068 -1.6555
 9081TIP3    H248735   6.369   3.847  13.746 -0.7277 -2.2774  0.1160
 9082TIP3   OH248736   0.496   1.419   5.181  0.9970  0.4843  0.6364
 9082TIP3    H148737   0.432   1.391   5.247 -0.6968  0.8441 -0.7778
 9082TIP3    H248738   0.538   1.338   5.152  1.0082  0.2077  1.4121
 9083TIP3   OH248739   5.256   0.633  14.517 -0.4045 -0.0908  0.0713
 9083TIP3    H148740   5.333   0.586  14.548 -0.6578 -0.0062  0.8841
 9083TIP3    H248741   5.285   0.723  14.505 -0.1168 -0.2799 -0.6926
 9084TIP3   OH248742   2.333   5.502   3.872 -0.3659  0.0032  1.1162
 9084TIP3    H148743   2.340   5.478   3.779  1.8684  1.1521  0.9261
 9084TIP3    H248744   2.340   5.419   3.919 -1.2935 -0.5689  0.2877
 9085TIP3   OH248745   0.989   5.784   3.273 -0.3297 -0.2580 -0.3883
 9085TIP3    H148746   1.067   5.832   3.302 -1.4898  0.5063  1.7370
 9085TIP3    H248747   1.005   5.694   3.299 -0.1137 -0.1224 -0.0427
 9086TIP3   OH248748   0.468   4.986   2.451  0.0497 -0.2253 -0.0986
 9086TIP3    H148749   0.483   5.076   2.422  0.0850 -0.4973 -0.9408
 9086TIP3    H248750   0.401   4.994   2.519 -0.9172  0.3202 -1.0822
 9087TIP3   OH248751   3.559   0.124   5.070  0.2567  0.5686  0.3412
 9087TIP3    H148752   3.569   0.197   5.008  0.4429 -0.5311 -0.9628
 9087TIP3    H248753   3.467   0.100   5.064  0.5644 -0.4547 -0.6070
 9088TIP3   OH248754   2.722   4.883   4.892  0.2226 -0.3614  0.6947
 9088TIP3    H148755   2.770   4.817   4.942  1.4895  0.4594  0.5893
 9088TIP3    H248756   2.787   4.922   4.835 -0.4310  1.2131  0.9829
 9089TIP3   OH248757   4.384   2.042   2.937 -0.6767 -0.4231  0.1352
 9089TIP3    H148758   4.479   2.044   2.929 -0.6968  0.6048  0.1269
 9089TIP3    H248759   4.361   1.951   2.918  0.4026 -0.9965  1.3689
 9090TIP3   OH248760   3.691   0.413  16.819  0.0923  0.5085 -0.1931
 9090TIP3    H148761   3.713   0.475  16.888  0.3001  1.3650 -1.0196
 9090TIP3    H248762   3.596   0.406  16.822  0.2144 -1.4681  1.8858
 9091TIP3   OH248763   0.653   4.669  17.087  0.4988 -0.3057 -0.2365
 9091TIP3    H148764   0.579   4.659  17.028  2.0227 -2.4077 -1.9558
 9091TIP3    H248765   0.615   4.703  17.168 -2.1145 -0.0884 -1.4525
 9092TIP3   OH248766   3.575   4.053  14.649  0.5868  0.7359 -0.4274
 9092TIP3    H148767   3.524   4.002  14.712  1.9385 -0.6029 -0.3643
 9092TIP3    H248768   3.532   4.139  14.647  0.0648  0.5765  1.7638
 9093TIP3   OH248769   3.303   1.008  15.386  0.0554 -0.5304  0.0508
 9093TIP3    H148770   3.332   1.034  15.474  0.4350 -2.4892  0.5588
 9093TIP3    H248771   3.335   0.919  15.376 -0.1272 -0.3993 -2.0474
 9094TIP3   OH248772   6.673   4.071  15.934 -0.5132 -0.3974  0.4095
 9094TIP3    H148773   6.683   3.976  15.933  1.5780 -0.2045 -0.1038
 9094TIP3    H248774   6.639   4.093  15.848  0.4847 -0.5461 -0.0254
 9095TIP3   OH248775   2.227   2.559  15.401  0.0607 -0.4010  0.3687
 9095TIP3    H148776   2.308   2.513  15.424  0.0895 -0.8126 -0.4995
 9095TIP3    H248777   2.256   2.639  15.357  0.0756 -1.8022 -2.4186
 9096TIP3   OH248778   6.651   5.984   6.825 -0.4078  0.7544  0.3299
 9096TIP3    H148779   6.723   6.011   6.768 -0.1853  1.0913  0.7635
 9096TIP3    H248780   6.694   5.955   6.905 -0.7372  0.5950  0.4511
 9097TIP3   OH248781   0.997   1.412  14.506  0.1713 -0.3142  0.1891
 9097TIP3    H148782   0.994   1.331  14.454  1.5933 -0.4267  0.2413
 9097TIP3    H248783   0.968   1.386  14.593 -4.8005  0.3654 -0.9561
 9098TIP3   OH248784   3.941   4.411  11.610  0.4736 -0.5038 -0.3504
 9098TIP3    H148785   3.856   4.385  11.644  0.5711  0.3169  0.5644
 9098TIP3    H248786   3.956   4.498  11.645  0.6648  0.3517 -2.3895
 9099TIP3   OH248787   0.616   6.571  10.803 -0.3184 -0.1642 -1.0488
 9099TIP3    H148788   0.673   6.640  10.837  0.5733 -1.7775  0.9427
 9099TIP3    H248789   0.665   6.491  10.816 -3.0321 -1.6803  0.8508
 9100TIP3   OH248790   6.016   0.781   3.447 -0.2800 -0.0743 -0.0546
 9100TIP3    H148791   6.098   0.736   3.464 -0.8580 -0.8551  0.7310
 9100TIP3    H248792   5.968   0.724   3.388  0.0280  0.7234 -1.1054
 9101TIP3   OH248793   5.002   6.597  11.467 -0.1708 -0.4367  0.1159
 9101TIP3    H148794   4.992   6.650  11.547 -1.1284 -2.4273  1.4014
 9101TIP3    H248795   5.076   6.540  11.485  1.1754  0.7251 -1.4594
 9102TIP3   OH248796   0.321   1.638  11.386 -0.7173  0.4289 -0.0837
 9102TIP3    H148797   0.357   1.549  11.394 -1.1830  0.2150 -0.3356
 9102TIP3    H248798   0.392   1.695  11.416 -0.1039  0.0240 -0.7278
 9103TIP3   OH248799   3.416   2.920  12.464  0.4021 -0.1579 -0.0792
 9103TIP3    H148800   3.337   2.941  12.414  1.1814  2.0774 -0.4706
 9103TIP3    H248801   3.384   2.873  12.540 -1.3710  0.9810 -0.0655
 9104TIP3   OH248802   1.366   4.040  14.882  0.6209 -0.2289  0.0143
 9104TIP3    H148803   1.432   4.093  14.926  3.6098 -4.0397  0.7054
 9104TIP3    H248804   1.325   4.099  14.820  3.4760  2.8638  0.7690
 9105TIP3   OH248805   4.769   3.927   4.669 -0.2182  0.4778  0.0315
 9105TIP3    H148806   4.765   3.833   4.687 -0.2825  0.6869  1.1829
 9105TIP3    H248807   4.680   3.951   4.643 -0.1303  0.1702 -0.5693
 9106TIP3   OH248808   6.247   6.141  16.722 -0.0120 -0.1695 -0.1289
 9106TIP3    H148809   6.209   6.145  16.634 -0.1971 -0.5699 -0.0678
 9106TIP3    H248810   6.232   6.051  16.751 -1.5223  0.4003  1.0039
 9107TIP3   OH248811   6.697   2.539   2.268 -0.4057 -0.3357  0.1527
 9107TIP3    H148812   6.772   2.511   2.320  1.1546  0.9505 -1.2848
 9107TIP3    H248813   6.715   2.504   2.180 -0.4539  1.6096 -0.6867
 9108TIP3   OH248814   5.699   1.255   0.034 -0.2918 -0.7329  0.2670
 9108TIP3    H148815   5.791   1.230   0.036 -0.4874 -1.6344 -0.6434
 9108TIP3    H248816   5.666   1.233   0.121  0.4390  0.0328  0.7567
 9109TIP3   OH248817   4.649   3.280  16.973 -0.2996 -0.2197 -0.3520
 9109TIP3    H148818   4.662   3.251  17.063  2.4811  0.1751 -0.5275
 9109TIP3    H248819   4.626   3.200  16.925  0.4078 -0.8628  0.3490
 9110TIP3   OH248820   2.860   5.338  13.585 -0.3746  0.2741 -0.1914
 9110TIP3    H148821   2.864   5.271  13.653  0.7086 -0.9672 -1.3969
 9110TIP3    H248822   2.931   5.315  13.525 -1.4035  1.1933 -1.8494
 9111TIP3   OH248823   4.702   2.682   0.335 -0.1883 -0.0960  0.1086
 9111TIP3    H148824   4.743   2.662   0.251  0.3552  1.6791 -0.0950
 9111TIP3    H248825   4.772   2.724   0.386 -0.2570 -1.8913  1.7914
 9112TIP3   OH248826   1.487   2.703   4.331 -0.3364  0.6636 -0.4508
 9112TIP3    H148827   1.533   2.621   4.313 -1.0813  0.1963 -0.2697
 9112TIP3    H248828   1.556   2.765   4.354  0.1363 -0.3314  0.9820
 9113TIP3   OH248829   3.690   1.106  16.221  0.4918 -0.3431 -0.4308
 9113TIP3    H148830   3.660   1.070  16.304 -0.8164  2.6789  0.5608
 9113TIP3    H248831   3.647   1.052  16.154 -2.4482  0.0739  0.9544
 9114TIP3   OH248832   0.454   5.917   1.933 -0.2910 -0.3253  0.1220
 9114TIP3    H148833   0.381   5.922   1.871 -0.4328  0.0358  0.3166
 9114TIP3    H248834   0.512   5.989   1.907 -0.2899 -0.2507  0.3302
 9115TIP3   OH248835   1.304   3.313   1.267 -0.3686  0.0900 -0.3277
 9115TIP3    H148836   1.354   3.352   1.339  1.5298 -1.6906 -0.5728
 9115TIP3    H248837   1.282   3.387   1.211  0.9097  1.1281  0.4540
 9116TIP3   OH248838   6.503   6.488  14.144  0.0040 -0.3151  0.0002
 9116TIP3    H148839   6.413   6.484  14.177 -0.0148 -2.0422 -0.1688
 9116TIP3    H248840   6.551   6.424  14.197  0.6400 -0.9197 -1.2573
 9117TIP3   OH248841   2.491   4.180   4.391 -0.0543 -0.1772  0.3305
 9117TIP3    H148842   2.410   4.231   4.399  0.4194  0.6867 -0.1877
 9117TIP3    H248843   2.464   4.089   4.404 -0.9583  0.1830  1.0408
 9118TIP3   OH248844   3.860   4.093   1.919  0.2875  0.1392 -0.5460
 9118TIP3    H148845   3.866   4.139   1.836 -0.0696  1.1486 -0.0331
 9118TIP3    H248846   3.794   4.142   1.969  0.2563 -0.6399  0.2081
 9119TIP3   OH248847   5.995   4.925   5.501 -0.1277  0.1404  0.0906
 9119TIP3    H148848   5.973   4.970   5.582 -0.3835 -0.7425  0.5237
 9119TIP3    H248849   5.970   4.834   5.516  0.0574 -0.0887 -0.8875
 9120TIP3   OH248850   0.695   4.703  12.350  0.2805  0.4179  0.2707
 9120TIP3    H148851   0.706   4.727  12.258  0.0913 -0.8546 -0.0944
 9120TIP3    H248852   0.600   4.701  12.363  0.2936 -0.0153  0.3209
 9121TIP3   OH248853   2.483   0.143   2.860  0.1470 -0.3275 -0.1617
 9121TIP3    H148854   2.534   0.190   2.926 -0.6931  1.0097 -0.4204
 9121TIP3    H248855   2.545   0.081   2.821  1.7456  1.5419 -0.7673
 9122TIP3   OH248856   3.487   3.824  12.766  0.7303 -0.2600  0.5721
 9122TIP3    H148857   3.536   3.742  12.774 -1.6250 -1.6757  1.6609
 9122TIP3    H248858   3.414   3.814  12.827 -0.1577  2.2919  0.0443
 9123TIP3   OH248859   0.175   0.105  16.191  0.2560  0.1743  0.0030
 9123TIP3    H148860   0.121   0.076  16.265  2.6223 -2.1533  1.0110
 9123TIP3    H248861   0.238   0.166  16.230  0.2778  0.4758 -0.5046
 9124TIP3   OH248862   3.409   2.728   1.185  1.0664  0.0755  0.1699
 9124TIP3    H148863   3.352   2.651   1.192  0.1967  0.6878 -0.0597
 9124TIP3    H248864   3.495   2.691   1.162  0.7975 -0.8674  0.6109
 9125TIP3   OH248865   0.384   6.295  10.920 -0.7080  0.3343  0.0945
 9125TIP3    H148866   0.373   6.386  10.947 -0.1933  0.7603 -1.0757
 9125TIP3    H248867   0.308   6.276  10.866 -0.7646  0.1010  0.2542
 9126TIP3   OH248868   6.077   4.503  17.248 -0.0798 -0.4362  0.4354
 9126TIP3    H148869   6.061   4.561  17.323  0.1134 -1.0160  0.9305
 9126TIP3    H248870   6.035   4.420  17.272 -1.5662 -0.0957 -0.8543
 9127TIP3   OH248871   5.178   5.345  13.483  0.3354 -0.3259  0.3461
 9127TIP3    H148872   5.213   5.397  13.410 -1.1455 -0.5312 -0.5492
 9127TIP3    H248873   5.225   5.262  13.478 -0.0847 -0.5146 -0.6943
 9128TIP3   OH248874   5.357   3.446   5.844  0.6593  0.3266 -0.2987
 9128TIP3    H148875   5.292   3.451   5.774  0.8928 -1.1771 -0.6681
 9128TIP3    H248876   5.398   3.532   5.846  0.6178  0.4062 -1.9912
 9129TIP3   OH248877   2.984   3.850  11.432 -0.0188 -0.2870 -0.7874
 9129TIP3    H148878   2.889   3.845  11.420  0.0566 -2.0222 -0.9270
 9129TIP3    H248879   2.996   3.916  11.501 -1.2948  0.2334 -1.0486
 9130TIP3   OH248880   3.012   0.629   4.661  0.6614 -0.1080 -0.0646
 9130TIP3    H148881   3.039   0.579   4.738 -0.3078 -1.5620 -0.6176
 9130TIP3    H248882   3.091   0.676   4.634  1.4097 -0.7329  0.9555
 9131TIP3   OH248883   4.109   2.522   5.238  0.2621  0.6631 -0.0939
 9131TIP3    H148884   4.093   2.592   5.175 -0.5687  1.1196  0.6069
 9131TIP3    H248885   4.133   2.447   5.185  0.2382  1.2250 -0.9149
 9132TIP3   OH248886   6.267   6.780  12.246  0.0462  0.3681 -0.6083
 9132TIP3    H148887   6.172   6.786  12.254 -0.0448 -0.3246 -1.0760
 9132TIP3    H248888   6.292   6.708  12.304  0.2621  0.4286 -0.6233
 9133TIP3   OH248889   6.225   1.117  16.241 -0.1835 -0.0969 -0.4299
 9133TIP3    H148890   6.309   1.157  16.219 -0.2248 -0.1566 -0.7034
 9133TIP3    H248891   6.205   1.149  16.328  0.8549 -1.2533  0.2629
 9134TIP3   OH248892   1.859   5.582   2.817 -0.1224 -0.2115 -0.2995
 9134TIP3    H148893   1.883   5.674   2.813 -0.3616 -0.1248  0.1376
 9134TIP3    H248894   1.938   5.537   2.847 -0.8907  0.2692  2.7392
 9135TIP3   OH248895   1.791   6.738  12.122  0.2573 -0.3080 -0.3303
 9135TIP3    H148896   1.729   6.758  12.052  1.0473 -1.9542 -1.5660
 9135TIP3    H248897   1.875   6.769  12.088  0.3446  0.7532  0.7952
 9136TIP3   OH248898   1.360   5.826  13.592 -0.4233 -0.6449  0.6838
 9136TIP3    H148899   1.419   5.813  13.518 -0.2481  1.6228  0.3431
 9136TIP3    H248900   1.287   5.768  13.576  0.1080 -0.9592 -0.7225
 9137TIP3   OH248901   4.858   5.623   0.155  0.0291  0.2839 -0.1163
 9137TIP3    H148902   4.909   5.704   0.157 -0.4030  0.5451  1.1471
 9137TIP3    H248903   4.911   5.560   0.204  0.5497 -0.3380 -1.4290
 9138TIP3   OH248904   5.582   4.060   0.185 -0.1771 -0.0303  0.4070
 9138TIP3    H148905   5.575   4.098   0.273  0.6438  2.0576 -0.3465
 9138TIP3    H248906   5.627   3.977   0.198 -0.2904  0.1224  1.9869
 9139TIP3   OH248907   1.695   1.861   1.099  0.0677  0.0398 -0.0780
 9139TIP3    H148908   1.755   1.795   1.133 -0.4920 -0.4409  0.0132
 9139TIP3    H248909   1.742   1.943   1.106  1.7340 -0.6053 -2.3827
 9140TIP3   OH248910   6.369   4.017   0.694  0.0936 -0.6650 -0.2312
 9140TIP3    H148911   6.351   4.003   0.787  0.7550 -0.7503 -0.1145
 9140TIP3    H248912   6.290   4.059   0.661  0.0121 -0.2640  0.4559
 9141TIP3   OH248913   1.556   6.605  11.592  0.0502  0.2559  0.2631
 9141TIP3    H148914   1.646   6.607  11.625 -0.1039  0.1306  0.6992
 9141TIP3    H248915   1.532   6.512  11.595 -0.1020  0.2914  0.1613
 9142TIP3   OH248916   1.778   4.023  16.359  0.1163  0.1875  0.0923
 9142TIP3    H148917   1.832   4.011  16.281 -0.7413  0.3260 -0.5311
 9142TIP3    H248918   1.836   4.066  16.422  0.5617  0.8584 -0.7570
 9143TIP3   OH248919   2.664   5.729  17.119 -0.2946  0.3396  0.1141
 9143TIP3    H148920   2.714   5.668  17.172 -0.2383  0.2947  0.0087
 9143TIP3    H248921   2.730   5.785  17.078 -0.1888 -1.0663 -1.7149
 9144TIP3   OH248922   0.895   3.279   6.302 -0.2034  0.7566 -0.1936
 9144TIP3    H148923   0.869   3.187   6.296  1.2802  0.3880 -2.1898
 9144TIP3    H248924   0.813   3.327   6.292 -1.0441 -0.3175  1.1643
 9145TIP3   OH248925   0.683   1.192   5.912  0.3068 -0.1483  0.7539
 9145TIP3    H148926   0.588   1.188   5.925  0.5053  1.0327  2.8873
 9145TIP3    H248927   0.697   1.272   5.861  0.1292 -0.7578 -0.2872
 9146TIP3   OH248928   0.061   3.890   3.516 -0.1663 -0.1997 -0.7840
 9146TIP3    H148929  -0.016   3.936   3.549  0.4695 -0.0060  0.5313
 9146TIP3    H248930   0.082   3.933   3.434 -0.1619  1.2583 -0.0533
 9147TIP3   OH248931   5.465   5.658  15.404 -0.5778  0.2311 -0.0909
 9147TIP3    H148932   5.442   5.565  15.406 -2.1534  0.6076  0.9906
 9147TIP3    H248933   5.382   5.704  15.409  0.2151  1.7208  0.0837
 9148TIP3   OH248934   0.920   3.369  15.507  0.0716  0.1728  0.1605
 9148TIP3    H148935   0.878   3.308  15.567 -1.2989  0.6732 -0.2392
 9148TIP3    H248936   0.847   3.412  15.462  1.0423  0.4442 -1.2193
 9149TIP3   OH248937   0.797   1.463  12.203  0.3679  0.2943 -0.4628
 9149TIP3    H148938   0.720   1.413  12.229 -0.2079  0.4865 -1.7588
 9149TIP3    H248939   0.869   1.400  12.206 -0.5621 -1.0387 -3.3962
 9150TIP3   OH248940   4.022   0.993   6.116 -0.1303 -0.3666  0.1056
 9150TIP3    H148941   4.033   0.938   6.038 -1.4978  0.6327 -0.8178
 9150TIP3    H248942   4.017   1.082   6.083 -0.6763  0.0862  1.3389
 9151TIP3   OH248943   1.361   5.479   4.243  0.4915  0.0087  0.0427
 9151TIP3    H148944   1.333   5.513   4.158  0.8290  0.2542  0.0284
 9151TIP3    H248945   1.309   5.529   4.306 -0.3490 -0.7317 -0.0384
 9152TIP3   OH248946   6.511   3.272  16.266 -0.4048  0.2645  0.1835
 9152TIP3    H148947   6.590   3.249  16.316  0.3453 -0.3055 -1.2253
 9152TIP3    H248948   6.450   3.201  16.282 -0.5168  0.5293  0.9905
 9153TIP3   OH248949   6.624   1.264  10.865 -0.0634 -0.7203  0.2270
 9153TIP3    H148950   6.667   1.346  10.839 -0.1359  0.2255  2.7867
 9153TIP3    H248951   6.662   1.198  10.808 -1.2715  1.2793 -3.1769
 9154TIP3   OH248952   0.731   3.155  12.077 -0.3719 -0.7659 -0.0424
 9154TIP3    H148953   0.672   3.080  12.078 -0.6122 -0.5834 -0.5610
 9154TIP3    H248954   0.683   3.225  12.121 -0.4515 -0.6897 -0.2482
 9155TIP3   OH248955   1.935   3.709  17.181  0.3002  0.1489 -0.8076
 9155TIP3    H148956   1.962   3.766  17.253  1.2948 -0.4603 -0.6765
 9155TIP3    H248957   2.016   3.664  17.155 -0.2516 -0.3822 -1.6307
 9156TIP3   OH248958   5.458   2.087  11.826  0.5122  0.2117  0.1537
 9156TIP3    H148959   5.526   2.154  11.820 -1.2663  2.2238  1.2142
 9156TIP3    H248960   5.399   2.119  11.894 -1.3935 -1.5516 -0.5799
 9157TIP3   OH248961   2.317   1.339   6.053 -0.5827  0.2128  0.2443
 9157TIP3    H148962   2.342   1.308   5.966  0.0216  1.6998 -0.1444
 9157TIP3    H248963   2.349   1.271   6.112 -1.2814 -0.9726 -0.6878
 9158TIP3   OH248964   2.516   3.055  15.451  0.3663  0.2721  0.0286
 9158TIP3    H148965   2.565   2.999  15.391 -0.7270 -0.6305 -0.0592
 9158TIP3    H248966   2.473   3.119  15.395  0.4108  0.2614 -0.0182
 9159TIP3   OH248967   0.920   4.247  13.543  0.3694  0.2077 -1.1239
 9159TIP3    H148968   0.875   4.164  13.551 -0.7277  0.6404 -2.4275
 9159TIP3    H248969   0.863   4.310  13.587  1.4168  0.2305  0.2651
 9160TIP3   OH248970   3.624   6.274  15.202  0.1246 -0.2526 -0.0564
 9160TIP3    H148971   3.588   6.188  15.226 -2.1939  0.9909  1.2759
 9160TIP3    H248972   3.686   6.293  15.273  0.2560 -0.5679 -0.0800
 9161TIP3   OH248973   2.958   1.420   3.808 -0.4464  0.1938  0.2700
 9161TIP3    H148974   3.045   1.414   3.769 -0.2511  0.3576  0.6767
 9161TIP3    H248975   2.964   1.369   3.888 -1.2944 -1.5088 -0.6831
 9162TIP3   OH248976   0.647   6.095  13.535 -0.0838  0.1662  0.0071
 9162TIP3    H148977   0.727   6.042  13.528  0.5206  1.1112 -0.4166
 9162TIP3    H248978   0.675   6.183  13.510 -0.2952  1.4602  3.6689
 9163TIP3   OH248979   0.410   3.520  14.969 -0.2234  0.0486  0.3762
 9163TIP3    H148980   0.380   3.459  14.901 -1.2636  0.1239  0.7470
 9163TIP3    H248981   0.505   3.523  14.959 -0.3722  0.1643 -1.1633
 9164TIP3   OH248982   3.523   2.517   5.646  0.1802 -0.8261  0.6259
 9164TIP3    H148983   3.540   2.465   5.725 -0.6525 -0.8315  0.8104
 9164TIP3    H248984   3.605   2.511   5.596  1.1322  0.1202  1.9941
 9165TIP3   OH248985   5.560   4.606   5.685 -0.7397 -0.2910 -0.4131
 9165TIP3    H148986   5.648   4.609   5.721 -0.6647  0.7823 -0.6513
 9165TIP3    H248987   5.557   4.523   5.637 -0.0512 -0.5927  0.0486
 9166TIP3   OH248988   6.022   0.141  16.034 -0.0304  0.1792  0.4388
 9166TIP3    H148989   5.982   0.219  16.073 -0.0187  1.2252 -1.5557
 9166TIP3    H248990   5.962   0.116  15.963  0.8235 -0.6382 -0.0145
 9167TIP3   OH248991   5.014   5.766  11.130 -0.4086 -0.1796  0.1811
 9167TIP3    H148992   4.979   5.820  11.200  2.0117 -0.3323  1.6213
 9167TIP3    H248993   4.944   5.703  11.110 -0.6804 -1.1060  3.5138
 9168TIP3   OH248994   4.879   0.402   0.186  0.0636 -0.1084  0.0779
 9168TIP3    H148995   4.813   0.447   0.239 -0.5925 -0.3698 -0.4939
 9168TIP3    H248996   4.953   0.462   0.185 -1.8063  2.5101 -3.1502
 9169TIP3   OH248997   4.472   6.486   3.765  0.0674  0.3230 -0.3018
 9169TIP3    H148998   4.506   6.399   3.742 -0.2116 -0.2070  1.1755
 9169TIP3    H248999   4.377   6.477   3.757 -0.5323 -1.2389  4.7895
 9170TIP3   OH249000   2.152   2.953   1.161 -0.2041 -0.1776 -0.1916
 9170TIP3    H149001   2.078   2.914   1.113  0.2119 -0.1743 -0.8556
 9170TIP3    H249002   2.226   2.895   1.141  0.5577  1.2274 -1.6543
 9171TIP3   OH249003   2.087   3.576   0.135 -0.2429 -0.2177  0.1564
 9171TIP3    H149004   2.177   3.601   0.154 -0.5194  0.5790  0.4785
 9171TIP3    H249005   2.059   3.527   0.212  0.4464 -2.0280 -0.6651
 9172TIP3   OH249006   6.752   4.812   0.129  0.1783  0.1506  0.2993
 9172TIP3    H149007   6.665   4.772   0.135  0.4710 -0.7139 -0.7825
 9172TIP3    H249008   6.744   4.877   0.059  0.7443 -0.9913 -0.8844
 9173TIP3   OH249009   4.808   6.344   4.400  0.3123 -0.6608  0.2979
 9173TIP3    H149010   4.882   6.308   4.352  0.0122 -0.8480 -0.0284
 9173TIP3    H249011   4.847   6.405   4.463  0.8008 -1.3259  0.6440
 9174TIP3   OH249012   6.635   0.318  14.291  0.3205 -0.0453 -0.0061
 9174TIP3    H149013   6.542   0.320  14.269 -0.0933  1.3058  1.6488
 9174TIP3    H249014   6.637   0.304  14.385  1.7105  1.6729  0.2633
 9175TIP3   OH249015   0.568   5.358   2.959  0.4939  0.1315 -0.2770
 9175TIP3    H149016   0.552   5.424   3.026 -2.9188 -1.4433  0.6877
 9175TIP3    H249017   0.524   5.393   2.881  1.6209  0.4425 -0.8093
 9176TIP3   OH249018   2.838   3.396  14.644  0.4642  0.1470  0.1080
 9176TIP3    H149019   2.857   3.388  14.738 -0.9082 -1.0857  0.3262
 9176TIP3    H249020   2.921   3.374  14.601  1.6459  2.5264  0.9915
 9177TIP3   OH249021   4.772   6.356  14.407  0.1834  0.0788  0.3223
 9177TIP3    H149022   4.727   6.364  14.491  0.8327  0.0707  0.6742
 9177TIP3    H249023   4.863   6.374  14.427  0.3247  0.1954 -0.4076
 9178TIP3   OH249024   5.128   4.300   0.617 -0.3051  0.2101 -0.2693
 9178TIP3    H149025   5.127   4.367   0.549  1.6229  0.4661 -0.1019
 9178TIP3    H249026   5.179   4.228   0.579 -2.3426 -1.2330 -0.4526
 9179TIP3   OH249027   3.385   0.187   2.731  0.2189 -0.3390 -0.1570
 9179TIP3    H149028   3.321   0.237   2.681  0.3695 -0.2576 -0.2730
 9179TIP3    H249029   3.387   0.101   2.687 -0.1539 -0.5003  0.1395
 9180TIP3   OH249030   5.011   2.438  15.242 -0.6103 -0.1309 -0.0245
 9180TIP3    H149031   5.096   2.471  15.213  0.5996 -1.1592  2.0596
 9180TIP3    H249032   5.014   2.344  15.224 -0.8624 -0.3515  1.0061
 9181TIP3   OH249033   0.012   6.717  12.983  0.1501 -0.5015 -0.6114
 9181TIP3    H149034  -0.068   6.762  13.011 -0.9503 -1.9002 -1.4290
 9181TIP3    H249035   0.082   6.769  13.022 -1.0573  1.6517 -1.1160
 9182TIP3   OH249036   5.069   0.255   4.416  0.5217 -0.5207 -0.1986
 9182TIP3    H149037   5.095   0.329   4.361  0.4575 -0.8447 -0.6614
 9182TIP3    H249038   5.039   0.188   4.355  0.7854 -1.0159  0.2060
 9183TIP3   OH249039   1.852   5.604   4.619  0.1179 -0.4006  0.4551
 9183TIP3    H149040   1.827   5.526   4.667 -2.0592  0.6062  1.0714
 9183TIP3    H249041   1.932   5.635   4.663 -0.1851 -1.1125  1.5463
 9184TIP3   OH249042   1.579   5.131   3.902  0.6220 -0.3399 -0.3333
 9184TIP3    H149043   1.555   5.039   3.915  3.0208 -1.0117 -0.1438
 9184TIP3    H249044   1.596   5.164   3.990 -1.5081  0.7410 -0.2637
 9185TIP3   OH249045   3.535   4.378   0.806 -0.0289 -0.4515 -0.0805
 9185TIP3    H149046   3.623   4.341   0.806 -0.4787 -1.5850 -1.1021
 9185TIP3    H249047   3.478   4.305   0.830 -0.8273 -0.1117 -0.8758
 9186TIP3   OH249048   6.350   6.061   1.779  0.2011  0.1995 -0.9491
 9186TIP3    H149049   6.268   6.048   1.731 -0.5350  0.0344  0.3109
 9186TIP3    H249050   6.393   5.976   1.778 -0.7446 -0.3272  0.3188
 9187TIP3   OH249051   0.507   4.916  15.394  0.1370 -0.1304 -0.1347
 9187TIP3    H149052   0.567   4.988  15.371  0.3448 -0.2912 -0.0981
 9187TIP3    H249053   0.524   4.900  15.486 -0.1139 -0.0360 -0.0719
 9188TIP3   OH249054   3.177   6.677  13.740 -0.3259  0.1287  0.0295
 9188TIP3    H149055   3.166   6.582  13.742 -0.9182  0.1946  0.7755
 9188TIP3    H249056   3.262   6.692  13.781 -1.0022 -0.0034  1.5418
 9189TIP3   OH249057   2.848   5.091  14.620 -0.2428 -0.7299 -0.0961
 9189TIP3    H149058   2.892   5.028  14.678 -0.0581  0.5888  1.2722
 9189TIP3    H249059   2.764   5.107  14.662 -0.6549 -0.7288 -0.9101
 9190TIP3   OH249060   5.587   3.408  15.675 -0.3325 -0.5353 -0.0233
 9190TIP3    H149061   5.594   3.479  15.611  1.4815  0.8063  1.5565
 9190TIP3    H249062   5.645   3.339  15.641 -1.9076 -1.2600 -1.4308
 9191TIP3   OH249063   0.319   6.749   0.927 -0.6091  0.3466  0.0861
 9191TIP3    H149064   0.328   6.712   1.015  0.3213  0.8328  0.2074
 9191TIP3    H249065   0.276   6.833   0.940 -0.6126  0.3492  0.0580
 9192TIP3   OH249066   5.819   0.822   5.171 -0.0021  0.1342  0.5206
 9192TIP3    H149067   5.869   0.746   5.144 -0.2827 -0.0646  0.5586
 9192TIP3    H249068   5.799   0.806   5.263 -0.7316 -0.1158  0.3236
 9193TIP3   OH249069   6.020   3.304   0.486 -0.9108  0.3202 -0.5736
 9193TIP3    H149070   6.084   3.369   0.517 -1.5089  0.3062  0.7527
 9193TIP3    H249071   5.983   3.343   0.407 -0.3366  1.0149 -0.5143
 9194TIP3   OH249072   1.111   1.207   4.971 -0.1214  0.3555  0.2612
 9194TIP3    H149073   1.195   1.246   4.947 -1.2493  2.1010 -1.0733
 9194TIP3    H249074   1.117   1.117   4.937  1.8628 -0.2090  1.8731
 9195TIP3   OH249075   2.645   5.374   2.794  0.4526  0.4546 -0.1666
 9195TIP3    H149076   2.611   5.390   2.882  0.6045  0.1182 -0.0434
 9195TIP3    H249077   2.576   5.322   2.751  0.4356  0.5072 -0.2029
 9196TIP3   OH249078   4.938   3.719  11.624  0.3076 -0.0333 -0.1979
 9196TIP3    H149079   4.918   3.811  11.640  0.5659  0.3771 -1.9625
 9196TIP3    H249080   5.033   3.715  11.622  0.3031 -0.4041  0.1383
 9197TIP3   OH249081   4.007   5.377  14.855  0.1203  0.6930  0.2405
 9197TIP3    H149082   3.980   5.447  14.915  0.2718  0.0384  1.0950
 9197TIP3    H249083   4.058   5.421  14.787 -1.1119  1.6267 -0.1129
 9198TIP3   OH249084   0.199   4.299   3.826 -0.2612  0.3964  0.1841
 9198TIP3    H149085   0.154   4.378   3.855  0.1379  0.8810 -0.4729
 9198TIP3    H249086   0.162   4.280   3.740 -0.1399  0.0424  0.2064
 9199TIP3   OH249087   0.728   3.623  11.286  0.9229 -0.1400 -0.6729
 9199TIP3    H149088   0.737   3.550  11.226  2.6112  0.0143 -0.6471
 9199TIP3    H249089   0.818   3.649  11.307  0.4367  2.7297 -1.6632
 9200TIP3   OH249090   4.843   0.356  12.331  0.3848  0.5935  0.5162
 9200TIP3    H149091   4.791   0.384  12.256 -0.4409  0.4032  0.9943
 9200TIP3    H249092   4.851   0.434  12.385  1.0851  0.7609  0.1730
 9201TIP3   OH249093   0.926   0.801   3.980  0.2171  0.4073 -0.2614
 9201TIP3    H149094   0.852   0.778   4.036 -0.5989  1.9730 -0.6316
 9201TIP3    H249095   0.932   0.728   3.918  0.3534 -0.7460  1.0751
 9202TIP3   OH249096   1.481   1.758  14.564 -0.2274 -0.1976  0.1865
 9202TIP3    H149097   1.422   1.738  14.492 -1.0441 -0.1037  0.8113
 9202TIP3    H249098   1.436   1.727  14.642  0.3150  0.3523  0.7388
 9203TIP3   OH249099   3.941   5.591   0.098 -0.4617 -0.0639  0.0097
 9203TIP3    H149100   3.999   5.667   0.089 -2.1068  1.2385 -0.1452
 9203TIP3    H249101   3.923   5.586   0.192 -1.9742  1.0816 -0.1709
 9204TIP3   OH249102   6.652   0.699  15.215 -0.2197  0.0876 -0.5638
 9204TIP3    H149103   6.588   0.708  15.144 -0.5257 -0.4418 -0.3624
 9204TIP3    H249104   6.647   0.607  15.240  0.5244  0.0721 -0.4491
 9205TIP3   OH249105   2.648   2.124   4.015 -0.5920  0.0468 -0.4877
 9205TIP3    H149106   2.713   2.056   3.993 -0.7131 -0.1615 -0.2095
 9205TIP3    H249107   2.593   2.130   3.937 -1.2321 -0.9357 -0.1246
 9206TIP3   OH249108   4.707   3.328   5.158 -0.2722 -0.0355 -0.2881
 9206TIP3    H149109   4.753   3.356   5.237 -0.5261 -1.6595  0.4577
 9206TIP3    H249110   4.656   3.252   5.184 -1.5009  0.2527 -1.6839
 9207TIP3   OH249111   1.487   2.371   0.454  0.5466  0.0090  0.0608
 9207TIP3    H149112   1.514   2.462   0.444 -0.3123  0.1703 -0.9478
 9207TIP3    H249113   1.398   2.376   0.490  0.3141 -0.4057 -0.4367
 9208TIP3   OH249114   6.029   5.114   5.698  0.1079 -0.2554  0.5267
 9208TIP3    H149115   6.094   5.104   5.767 -0.2930 -0.3917  0.8863
 9208TIP3    H249116   6.015   5.209   5.692 -0.6367 -0.3050  1.3634
 9209TIP3   OH249117   2.351   3.721  12.405  0.0174  0.7059 -0.2278
 9209TIP3    H149118   2.343   3.627  12.417  0.7093  0.7492  0.7734
 9209TIP3    H249119   2.284   3.744  12.341  0.6098 -0.6293 -1.3899
 9210TIP3   OH249120   5.213   6.337  11.142  0.4075  0.6003  0.0561
 9210TIP3    H149121   5.236   6.360  11.052  0.2730 -1.2918 -0.5215
 9210TIP3    H249122   5.285   6.372  11.195  1.2326  0.5168 -0.9619
 9211TIP3   OH249123   0.607   1.406   4.104 -0.2418 -0.8320 -0.5567
 9211TIP3    H149124   0.687   1.366   4.070  0.7703  0.3846  0.3036
 9211TIP3    H249125   0.578   1.346   4.173 -0.6838 -1.8124 -1.5698
 9212TIP3   OH249126   1.764   3.929  13.228 -0.6338  0.2083  0.2752
 9212TIP3    H149127   1.823   4.003  13.211  0.1561 -0.2067  1.1442
 9212TIP3    H249128   1.701   3.963  13.292 -0.8065  0.3848  0.0147
 9213TIP3   OH249129   5.951   4.389   2.596  0.8946 -0.1571  0.1126
 9213TIP3    H149130   6.034   4.345   2.576  2.4685  0.8386  3.7279
 9213TIP3    H249131   5.921   4.348   2.677 -1.5497  0.3995 -0.4274
 9214TIP3   OH249132   3.652   6.122   5.930  0.5591 -0.2686  0.2586
 9214TIP3    H149133   3.666   6.074   5.848  1.1041 -0.4728  0.4645
 9214TIP3    H249134   3.608   6.059   5.988  1.5399 -0.6302  0.6284
 9215TIP3   OH249135   6.530   2.258  10.314  0.5008  0.0249 -0.1376
 9215TIP3    H149136   6.535   2.340  10.362  1.8738 -0.6435  0.9291
 9215TIP3    H249137   6.596   2.202  10.355  1.0478 -0.9124 -2.1858
 9216TIP3   OH249138   1.812   1.299  16.063  0.2240  0.2009  0.0950
 9216TIP3    H149139   1.834   1.385  16.026 -1.8135  0.4148 -0.7718
 9216TIP3    H249140   1.856   1.236  16.006 -0.6808  0.6128 -1.0946
 9217TIP3   OH249141   0.399   1.500  11.703  0.5490  0.1997  0.1259
 9217TIP3    H149142   0.439   1.472  11.621  2.3815  0.3133  0.9376
 9217TIP3    H249143   0.399   1.595  11.700 -3.0302  0.3281 -1.3688
 9218TIP3   OH249144   6.753   4.770  15.164  0.7559  0.1112  0.1927
 9218TIP3    H149145   6.710   4.738  15.243  0.3057  0.8700  0.2557
 9218TIP3    H249146   6.759   4.692  15.107  0.4379 -0.2746  0.6798
 9219TIP3   OH249147   6.245   0.433  16.548 -0.2226  0.3707  0.1837
 9219TIP3    H149148   6.311   0.502  16.537 -1.0937  1.4505  1.4217
 9219TIP3    H249149   6.161   0.479  16.541 -0.8331 -0.5422  1.1451
 9220TIP3   OH249150   2.788   6.740   1.723 -0.4701  0.1971 -0.6228
 9220TIP3    H149151   2.871   6.692   1.726 -1.4114 -1.4508  0.5514
 9220TIP3    H249152   2.813   6.830   1.704  1.8370  0.3056  2.3357
 9221TIP3   OH249153   3.637   3.635  13.888  0.2891  0.4628  0.0719
 9221TIP3    H149154   3.565   3.654  13.828 -1.2206 -0.0467  1.6540
 9221TIP3    H249155   3.671   3.551  13.859  0.0942  0.5923 -0.5430
 9222TIP3   OH249156   4.972   5.801   4.134  0.7973  0.4249  0.3449
 9222TIP3    H149157   5.015   5.886   4.124  2.0924 -0.4196 -2.0008
 9222TIP3    H249158   5.043   5.740   4.154  0.2762 -0.4926 -0.4913
 9223TIP3   OH249159   2.872   4.659   1.152 -0.2251 -0.0500 -0.5548
 9223TIP3    H149160   2.896   4.583   1.206  0.7530  0.4645 -0.2416
 9223TIP3    H249161   2.827   4.621   1.077  1.1308 -1.0447 -0.9042
 9224TIP3   OH249162   4.493   1.046   0.132  0.0592  0.2280 -0.3432
 9224TIP3    H149163   4.463   1.039   0.223 -0.1385  0.1311 -0.4134
 9224TIP3    H249164   4.481   0.958   0.097  0.0716  0.2815 -0.4819
 9225TIP3   OH249165   1.060   2.978   3.297  0.5484  0.3362  0.2305
 9225TIP3    H149166   1.071   3.018   3.384 -0.9554  0.1333  0.5506
 9225TIP3    H249167   1.093   2.889   3.307  1.5155  0.6804  0.2349
 9226TIP3   OH249168   5.985   6.137   2.895 -0.2374  0.0039 -0.1019
 9226TIP3    H149169   5.896   6.139   2.932 -0.2870  2.4632 -0.1946
 9226TIP3    H249170   5.971   6.141   2.801 -0.0449  1.9210 -0.0715
 9227TIP3   OH249171   5.032   2.461   6.677 -0.6337 -0.3910  0.0400
 9227TIP3    H149172   4.992   2.546   6.656 -0.8277 -0.8550 -1.5899
 9227TIP3    H249173   5.121   2.466   6.643 -0.5928 -0.7928  0.0757
 9228TIP3   OH249174   6.732   1.594   5.916 -0.1339  0.2061 -0.3436
 9228TIP3    H149175   6.643   1.565   5.901 -0.0741 -0.3753  0.3373
 9228TIP3    H249176   6.758   1.638   5.835 -0.2293 -1.6419 -1.4214
 9229TIP3   OH249177   0.176   0.536  17.047 -0.1070  0.1592  0.2485
 9229TIP3    H149178   0.176   0.556  16.953 -0.2295  0.8897  0.3980
 9229TIP3    H249179   0.268   0.532  17.071 -0.0692 -0.4017  0.0246
 9230TIP3   OH249180   4.978   1.821   3.737 -0.1054 -0.1748 -0.5353
 9230TIP3    H149181   4.953   1.804   3.646  0.9813 -1.2147 -0.6770
 9230TIP3    H249182   5.065   1.781   3.745 -1.3611 -2.8615  1.7523
 9231TIP3   OH249183   6.381   5.708  12.349 -0.0347  0.1581 -0.5106
 9231TIP3    H149184   6.344   5.719  12.437 -0.0686  1.2801 -0.6473
 9231TIP3    H249185   6.474   5.691  12.365 -0.3022 -1.1323 -0.2205
 9232TIP3   OH249186   1.825   3.666   2.844 -0.7248 -0.2658  0.5893
 9232TIP3    H149187   1.913   3.640   2.815 -0.3532  1.3570  0.1566
 9232TIP3    H249188   1.833   3.675   2.939  0.0461  1.3975  0.4019
 9233TIP3   OH249189   5.109   1.791  13.977 -0.1143 -0.6114 -0.4340
 9233TIP3    H149190   5.021   1.756  13.991 -0.2263 -0.4342 -0.6893
 9233TIP3    H249191   5.098   1.886  13.983  0.0318 -0.5823 -0.6303
 9234TIP3   OH249192   6.263   3.112  11.270  0.0217 -0.0888 -0.0363
 9234TIP3    H149193   6.356   3.104  11.291 -0.0766 -0.7423  0.1904
 9234TIP3    H249194   6.261   3.115  11.174  0.3386  0.9212 -0.0149
 9235TIP3   OH249195   0.082   4.825  13.174 -0.4051  0.6907 -0.1495
 9235TIP3    H149196   0.125   4.904  13.208  3.6233 -1.5446  0.5654
 9235TIP3    H249197   0.049   4.781  13.253 -0.9574  0.7262 -0.3563
 9236TIP3   OH249198   5.555   1.419   2.484  0.1373  0.1539  0.4249
 9236TIP3    H149199   5.493   1.446   2.416 -0.4610  0.0918  0.9335
 9236TIP3    H249200   5.605   1.348   2.444 -0.3688 -0.0420  0.1247
 9237TIP3   OH249201   3.387   2.819   0.914 -0.1758  0.8816 -0.0165
 9237TIP3    H149202   3.397   2.913   0.930 -2.0472  1.0293  0.5493
 9237TIP3    H249203   3.420   2.778   0.994  1.0710  0.9910 -0.4406
 9238TIP3   OH249204   0.025   5.085   1.251 -0.0821  0.4338 -0.2491
 9238TIP3    H149205  -0.042   5.019   1.271  0.4157 -0.1130 -0.3394
 9238TIP3    H249206  -0.004   5.163   1.297 -1.6387  0.7104 -1.6250
 9239TIP3   OH249207   0.431   2.223   5.757  0.0376  0.6596 -0.2426
 9239TIP3    H149208   0.522   2.227   5.728  0.1699  0.6397  0.1676
 9239TIP3    H249209   0.380   2.245   5.678  0.4177  1.3349 -0.3089
 9240TIP3   OH249210   5.084   0.496  11.717 -0.0875  0.5330 -0.0458
 9240TIP3    H149211   5.031   0.462  11.789  0.1237 -0.0423 -0.1567
 9240TIP3    H249212   5.173   0.501  11.753  0.0201  0.2361 -0.2644
 9241TIP3   OH249213   5.210   6.002  13.653  0.0576  0.9510 -0.2925
 9241TIP3    H149214   5.193   6.050  13.735  0.6455 -0.1704  0.5095
 9241TIP3    H249215   5.169   6.056  13.585 -2.0645  0.9967  0.9326
 9242TIP3   OH249216   6.416   4.785   6.020  0.4667  0.0025  0.8062
 9242TIP3    H149217   6.382   4.697   6.037 -0.7394 -0.4511 -2.9927
 9242TIP3    H249218   6.407   4.831   6.103 -2.0759 -2.4963  2.0820
 9243TIP3   OH249219   6.414   5.361   1.352 -0.2278 -0.1755  0.2657
 9243TIP3    H149220   6.358   5.392   1.281 -1.3635  1.1571  1.6703
 9243TIP3    H249221   6.361   5.297   1.399 -0.2110  0.3653  1.0307
 9244TIP3   OH249222   3.530   5.856   4.089  0.0868  0.1396 -0.2145
 9244TIP3    H149223   3.437   5.864   4.068  0.2307 -0.2009 -1.0243
 9244TIP3    H249224   3.541   5.764   4.112  0.0608  0.3679  0.7219
 9245TIP3   OH249225   5.226   2.336  11.399 -0.2788 -0.0444  0.5675
 9245TIP3    H149226   5.252   2.422  11.432 -0.2282 -0.3305  1.2900
 9245TIP3    H249227   5.202   2.287  11.477 -0.0633 -0.7680  0.1857
 9246TIP3   OH249228   5.910   1.335  15.754  0.5930 -0.1669  0.4169
 9246TIP3    H149229   5.826   1.291  15.742  1.4955 -1.9922  0.5797
 9246TIP3    H249230   5.887   1.428  15.759 -1.4654 -0.6614  1.0269
 9247TIP3   OH249231   3.742   2.478   6.312  0.3762 -0.0903  0.3231
 9247TIP3    H149232   3.816   2.457   6.369  1.1270 -1.2115 -1.0110
 9247TIP3    H249233   3.673   2.506   6.373  0.3340 -3.4562  2.0598
 9248TIP3   OH249234   6.102   4.366  15.647  0.9092 -0.4202  0.2190
 9248TIP3    H149235   6.161   4.397  15.716 -0.6391 -0.4840  1.6444
 9248TIP3    H249236   6.115   4.271  15.646  1.3192 -0.3658  0.0327
 9249TIP3   OH249237   5.972   1.318   6.686  0.2221  0.2763 -0.8405
 9249TIP3    H149238   6.032   1.372   6.737  0.1923 -0.1040 -0.4067
 9249TIP3    H249239   6.014   1.310   6.600  1.8354 -1.7553  0.0854
 9250TIP3   OH249240   5.612   3.673   2.151  0.4962  0.3670  0.3333
 9250TIP3    H149241   5.542   3.609   2.144 -0.0577  0.8850  0.9368
 9250TIP3    H249242   5.632   3.698   2.061 -1.1318  1.2904  0.1996
 9251TIP3   OH249243   3.783   2.132  14.005 -0.2102 -0.2028 -0.2647
 9251TIP3    H149244   3.841   2.208  14.005  1.3814 -1.3411  0.9993
 9251TIP3    H249245   3.774   2.108  13.912  3.1225 -1.2190 -0.4365
 9252TIP3   OH249246   1.777   1.903  17.182  0.0652 -0.1197 -0.2079
 9252TIP3    H149247   1.741   1.938  17.264  0.1350  1.3454 -0.7598
 9252TIP3    H249248   1.853   1.852  17.208  0.7028  1.1848  0.5817
 9253TIP3   OH249249   5.715   2.750  12.894 -0.1549  0.0028  0.1793
 9253TIP3    H149250   5.712   2.833  12.942  0.6173  0.4015 -0.4456
 9253TIP3    H249251   5.753   2.772  12.809 -1.2721 -0.7403 -0.5363
 9254TIP3   OH249252   6.613   3.976   6.169 -0.1930  0.4319 -0.3988
 9254TIP3    H149253   6.616   3.978   6.073 -0.4691  2.0547 -0.4001
 9254TIP3    H249254   6.520   3.989   6.190 -0.1182  0.1976  0.0814
 9255TIP3   OH249255   3.288   6.285   2.101  0.1874  0.1652  0.4960
 9255TIP3    H149256   3.323   6.358   2.050  0.6740  0.5737  1.3738
 9255TIP3    H249257   3.329   6.207   2.065 -1.4718  0.1145 -1.4564
 9256TIP3   OH249258   2.915   1.470  14.371  0.6028  0.2757  0.3854
 9256TIP3    H149259   2.981   1.539  14.371  0.4131  0.4593  0.6028
 9256TIP3    H249260   2.950   1.403  14.430  0.9093  0.0637 -0.0307
 9257TIP3   OH249261   5.391   3.166   3.272 -0.1320 -0.0276  0.6065
 9257TIP3    H149262   5.416   3.099   3.336 -0.4148  0.1223  0.8733
 9257TIP3    H249263   5.342   3.231   3.322  0.4889  0.5935  0.4328
 9258TIP3   OH249264   2.926   5.787   5.834 -0.2647  0.0315 -0.0966
 9258TIP3    H149265   2.843   5.740   5.840 -0.4106  0.1607 -0.9993
 9258TIP3    H249266   2.963   5.761   5.750  0.4590  0.2321  0.1505
 9259TIP3   OH249267   4.616   6.551   5.647  0.2948 -0.6632 -0.0296
 9259TIP3    H149268   4.530   6.510   5.653  1.1566 -2.5052  0.6784
 9259TIP3    H249269   4.630   6.593   5.732  0.5355 -1.3500  0.2789
 9260TIP3   OH249270   0.500   6.502  15.525 -0.7529 -0.1058  0.1779
 9260TIP3    H149271   0.421   6.556  15.528 -0.6667  0.1631 -1.6560
 9260TIP3    H249272   0.524   6.489  15.617 -1.6507  1.6839  0.6909
 9261TIP3   OH249273   1.855   0.912  14.417  0.2589 -0.1679 -0.0795
 9261TIP3    H149274   1.760   0.915  14.414  0.2589  0.9207  0.5533
 9261TIP3    H249275   1.882   0.946  14.331  0.0612  2.0170  0.6530
 9262TIP3   OH249276   1.894   5.756  15.551 -0.3438 -0.3340  0.0625
 9262TIP3    H149277   1.957   5.828  15.543 -0.8379  0.0080 -0.8436
 9262TIP3    H249278   1.843   5.776  15.630  1.5035 -1.2915  1.6045
 9263TIP3   OH249279   5.223   5.186   0.977  0.0415 -0.3018 -0.7951
 9263TIP3    H149280   5.229   5.238   0.897  0.7138  0.8395 -0.0480
 9263TIP3    H249281   5.235   5.250   1.047  0.5218 -1.4240  0.1858
 9264TIP3   OH249282   3.120   5.641  11.882  0.3135  0.3971  0.2891
 9264TIP3    H149283   3.100   5.733  11.866 -0.3140  0.2708  0.3441
 9264TIP3    H249284   3.163   5.641  11.968  1.1761  0.7416 -0.1302
 9265TIP3   OH249285   5.642   5.130  12.882 -0.2336  0.3686  0.1892
 9265TIP3    H149286   5.594   5.060  12.926  1.0485  0.1513  1.2822
 9265TIP3    H249287   5.712   5.153  12.943  0.6102  1.1752 -1.0560
 9266TIP3   OH249288   6.197   1.530  15.513  0.2778  0.9310  0.3418
 9266TIP3    H149289   6.277   1.578  15.533 -0.2781  0.7454  3.5373
 9266TIP3    H249290   6.144   1.538  15.592 -2.9921  1.2146 -1.7254
 9267TIP3   OH249291   5.356   1.841   6.053 -0.6018 -0.0705 -0.0879
 9267TIP3    H149292   5.327   1.788   6.127 -1.5100 -0.0335 -0.4020
 9267TIP3    H249293   5.429   1.892   6.088 -1.1246  0.0724  0.8412
 9268TIP3   OH249294   2.059   5.813   5.744 -0.3055 -0.4718 -0.1883
 9268TIP3    H149295   2.131   5.790   5.686 -0.4745  1.1213 -1.0927
 9268TIP3    H249296   1.981   5.808   5.689 -0.4553  1.1411 -0.1844
 9269TIP3   OH249297   1.918   4.623   2.541  0.3871  0.2533 -0.0160
 9269TIP3    H149298   1.871   4.596   2.620 -1.2963  1.3515 -0.5933
 9269TIP3    H249299   1.975   4.549   2.521  1.0144  0.0207  2.3250
 9270TIP3   OH249300   0.945   6.425  11.839  0.7119 -0.3993 -0.7918
 9270TIP3    H149301   1.027   6.376  11.835  1.0092 -0.1772  1.3730
 9270TIP3    H249302   0.967   6.506  11.885 -0.4486  0.3000 -1.4070
 9271TIP3   OH249303   1.349   5.495   3.451 -0.3071  0.3143 -0.6102
 9271TIP3    H149304   1.391   5.411   3.471 -2.0475 -0.1698  1.3589
 9271TIP3    H249305   1.268   5.470   3.406 -0.8064  0.9300 -0.0659
 9272TIP3   OH249306   0.416   3.633  16.265 -0.4292  0.2842 -0.3007
 9272TIP3    H149307   0.420   3.723  16.233  0.6914 -0.7036 -3.3467
 9272TIP3    H249308   0.348   3.591  16.211 -0.6630 -0.8158  0.7834
 9273TIP3   OH249309   2.120   1.651  10.742  0.3932  0.4243  0.3622
 9273TIP3    H149310   2.186   1.719  10.729  2.2694 -1.3646  0.0021
 9273TIP3    H249311   2.159   1.592  10.806 -1.0327 -0.5179  0.4074
 9274TIP3   OH249312   1.169   2.436  14.123  0.2774  1.4939 -0.1495
 9274TIP3    H149313   1.187   2.527  14.150  0.5180  1.4995 -0.3315
 9274TIP3    H249314   1.087   2.442  14.075  1.0063  1.8468 -1.4077
 9275TIP3   OH249315   1.858   5.638   3.616  0.2210 -0.6482  0.0515
 9275TIP3    H149316   1.855   5.564   3.555 -1.1088 -1.6771  1.2896
 9275TIP3    H249317   1.925   5.612   3.680  0.5170 -0.2759 -0.1046
 9276TIP3   OH249318   2.730   5.726  11.502 -0.5102  0.4004  0.6291
 9276TIP3    H149319   2.820   5.716  11.531 -0.6464  1.1756  1.3422
 9276TIP3    H249320   2.715   5.821  11.500 -0.6652  0.3786 -1.5088
 9277TIP3   OH249321   2.006   2.601  12.860 -0.3447 -0.9760  0.2822
 9277TIP3    H149322   1.916   2.626  12.880 -0.2532 -0.8625  0.5554
 9277TIP3    H249323   2.012   2.608  12.765  0.0999  1.5007  0.4350
 9278TIP3   OH249324   1.268   0.751   5.296  0.5406 -0.2144  0.3594
 9278TIP3    H149325   1.302   0.672   5.337  2.0699  1.0731  1.7473
 9278TIP3    H249326   1.319   0.760   5.216  0.0696 -0.8320 -0.0187
 9279TIP3   OH249327   0.469   1.324  10.975  0.0390  0.1396  0.6006
 9279TIP3    H149328   0.389   1.283  10.943  1.8342 -2.4731 -0.8994
 9279TIP3    H249329   0.472   1.303  11.069 -2.2747  2.6619  1.3606
 9280TIP3   OH249330   1.130   3.236   3.602 -0.1171 -0.0938  0.0144
 9280TIP3    H149331   1.123   3.141   3.614 -0.5688 -0.0497  0.1186
 9280TIP3    H249332   1.051   3.271   3.642 -0.3412  0.2637 -0.7267
 9281TIP3   OH249333   4.966   4.410  10.931  0.2799 -0.4250  0.4284
 9281TIP3    H149334   4.949   4.389  11.022 -1.7549  0.6142  0.3588
 9281TIP3    H249335   4.985   4.504  10.931  0.1921 -0.4027 -0.2058
 9282TIP3   OH249336   2.931   3.840  16.017  0.6175  0.1902 -0.5689
 9282TIP3    H149337   2.878   3.894  15.958 -1.2237  0.7754  1.5122
 9282TIP3    H249338   2.990   3.901  16.059  0.3565  0.1602 -0.1533
 9283TIP3   OH249339   2.739   1.848  13.119  0.1284 -0.7047  0.1952
 9283TIP3    H149340   2.826   1.863  13.080  0.5872 -0.4275  1.2715
 9283TIP3    H249341   2.687   1.922  13.089  1.0672  0.6449  1.7105
 9284TIP3   OH249342   4.464   4.388   1.164 -0.0291  0.1710 -0.1796
 9284TIP3    H149343   4.484   4.404   1.256  1.3797 -1.2406 -0.1950
 9284TIP3    H249344   4.545   4.409   1.118  1.0859 -4.0424 -0.4708
 9285TIP3   OH249345   1.858   0.417   5.293 -0.0561  0.2866 -0.4298
 9285TIP3    H149346   1.790   0.481   5.311  1.2905  1.5953  0.1697
 9285TIP3    H249347   1.940   0.466   5.299  1.1905 -1.8271  1.9734
 9286TIP3   OH249348   0.350   3.156   5.998  0.4055 -0.1693  0.5021
 9286TIP3    H149349   0.294   3.180   6.071  0.2557  0.5485  0.1588
 9286TIP3    H249350   0.403   3.233   5.981  0.0417 -0.1115 -0.5037
 9287TIP3   OH249351   0.706   5.222   4.804 -0.1806  0.2391 -0.4387
 9287TIP3    H149352   0.763   5.177   4.867 -1.2421 -0.6113 -0.0539
 9287TIP3    H249353   0.759   5.228   4.724  0.2255 -1.1444 -0.2988
 9288TIP3   OH249354   2.079   2.226  14.791  0.1524 -0.0612 -0.3850
 9288TIP3    H149355   2.098   2.258  14.879  0.3800 -1.4089  0.0739
 9288TIP3    H249356   2.008   2.163  14.803 -1.5110  1.5154 -1.5027
 9289TIP3   OH249357   4.977   3.338  11.734  0.1784  0.0654 -0.7705
 9289TIP3    H149358   5.028   3.276  11.787 -1.8622 -1.3931 -0.3953
 9289TIP3    H249359   5.030   3.352  11.656  1.5961 -0.6089  0.0323
 9290TIP3   OH249360   0.180   3.725   0.847 -0.2641 -0.3175 -0.4993
 9290TIP3    H149361   0.115   3.795   0.840 -0.9022 -0.7622  0.6836
 9290TIP3    H249362   0.175   3.680   0.762 -1.0052  0.0857 -0.6845
 9291TIP3   OH249363   0.387   1.366   0.307  0.1046  0.8494 -0.2750
 9291TIP3    H149364   0.419   1.308   0.375  0.9260  0.0565 -1.3098
 9291TIP3    H249365   0.397   1.454   0.343  1.7704  0.5187  0.1359
 9292TIP3   OH249366   2.880   6.546   2.526  0.3497 -0.5089 -1.2443
 9292TIP3    H149367   2.839   6.564   2.441 -0.0479 -0.0012 -0.9562
 9292TIP3    H249368   2.882   6.451   2.532 -1.6557 -0.5718 -0.8860
 9293TIP3   OH249369   0.598   5.766  10.411 -0.3789 -0.0238  0.3506
 9293TIP3    H149370   0.582   5.844  10.359 -2.3147 -0.3773  0.3422
 9293TIP3    H249371   0.641   5.705  10.351 -0.4883  0.3885 -0.1539
 9294TIP3   OH249372   6.768   1.633  14.369 -0.3483  0.2325 -0.0371
 9294TIP3    H149373   6.814   1.634  14.285  0.0162  0.7011  0.1610
 9294TIP3    H249374   6.733   1.545  14.376 -0.3324  0.1740 -0.6563
 9295TIP3   OH249375   1.224   1.863   5.043  0.4155  0.2520 -0.2082
 9295TIP3    H149376   1.315   1.832   5.039  0.1238 -0.6789  0.0387
 9295TIP3    H249377   1.205   1.893   4.954  0.7997 -0.0423 -0.3941
 9296TIP3   OH249378   3.711   3.836   1.100  0.2857  0.0364 -0.8110
 9296TIP3    H149379   3.679   3.773   1.164 -0.3331  1.7895  0.6872
 9296TIP3    H249380   3.674   3.806   1.017 -0.7443 -1.0611  0.0018
 9297TIP3   OH249381   0.847   6.111  12.927  0.5234 -0.0700 -0.1199
 9297TIP3    H149382   0.814   6.197  12.902 -2.8411 -0.1851  2.9955
 9297TIP3    H249383   0.899   6.128  13.006 -0.2219 -0.7990  0.5547
 9298TIP3   OH249384   2.156   0.587  12.716  0.2446  0.0340  0.0812
 9298TIP3    H149385   2.172   0.590  12.621  0.2511  0.5077  0.0955
 9298TIP3    H249386   2.087   0.651  12.731  0.9314  0.6870  0.5261
 9299TIP3   OH249387   5.933   1.177   4.171  0.0787 -0.2463 -0.0195
 9299TIP3    H149388   5.931   1.131   4.255  2.0591 -0.1583  0.1311
 9299TIP3    H249389   5.843   1.208   4.158 -0.3419 -0.5183  1.9131
 9300TIP3   OH249390   3.513   0.272   3.233  0.1525 -0.2777  0.5058
 9300TIP3    H149391   3.539   0.205   3.170 -1.1597  0.5090 -0.9393
 9300TIP3    H249392   3.473   0.223   3.305  0.5300 -1.1272  0.1500
 9301TIP3   OH249393   1.087   4.963  12.212 -0.0155  0.1010  0.0832
 9301TIP3    H149394   1.169   4.919  12.237 -0.0471  0.0812  0.1524
 9301TIP3    H249395   1.020   4.918  12.263  0.1077  1.1182  1.1997
 9302TIP3   OH249396   4.183   4.492  16.498 -0.0391  0.0962 -0.5121
 9302TIP3    H149397   4.162   4.508  16.590 -2.0398 -1.0433 -0.7027
 9302TIP3    H249398   4.098   4.473  16.458  0.9587 -0.7601 -2.3079
 9303TIP3   OH249399   3.985   5.310  13.463  0.2082  0.0697  1.1109
 9303TIP3    H149400   3.899   5.351  13.454  0.5853  0.5832 -0.5693
 9303TIP3    H249401   4.042   5.378  13.498  0.6312  0.8037 -0.8512
 9304TIP3   OH249402   2.198   1.374  13.032 -0.2454  0.1853  0.6115
 9304TIP3    H149403   2.265   1.306  13.032 -0.9417 -0.5144 -0.1181
 9304TIP3    H249404   2.243   1.452  12.999  0.0475 -0.4608 -0.5838
 9305TIP3   OH249405   3.064   5.028  12.487  0.0860  0.2572  0.2777
 9305TIP3    H149406   3.050   5.059  12.576 -0.6467  0.9051 -0.0455
 9305TIP3    H249407   3.123   4.954  12.496  0.2290  0.4783  1.2755
 9306TIP3   OH249408   0.409   6.665   5.899 -0.2299 -0.3339  0.2286
 9306TIP3    H149409   0.370   6.749   5.872  0.1673  0.5394  2.1535
 9306TIP3    H249410   0.503   6.683   5.904 -0.3743  0.1857  3.7449
 9307TIP3   OH249411   0.869   2.273  12.181 -0.4555  0.3563 -0.1589
 9307TIP3    H149412   0.931   2.201  12.170 -2.2110 -1.3989  0.7219
 9307TIP3    H249413   0.913   2.335  12.239  0.0853 -1.3650  1.3377
 9308TIP3   OH249414   6.299   1.209   2.347 -0.5484  0.5407 -0.3038
 9308TIP3    H149415   6.323   1.243   2.433  1.3928 -1.5736  0.0628
 9308TIP3    H249416   6.203   1.215   2.345 -0.6128  1.0124  1.8041
 9309TIP3   OH249417   5.440   6.326  12.336  0.0838  0.1336  0.2378
 9309TIP3    H149418   5.489   6.400  12.372 -0.2109  0.5285 -0.1610
 9309TIP3    H249419   5.369   6.312  12.399  0.6943 -0.4289  0.8074
 9310TIP3   OH249420   2.374   3.274  15.325  0.0121  0.4569  0.2612
 9310TIP3    H149421   2.360   3.362  15.290  1.1708  0.7622  0.5216
 9310TIP3    H249422   2.289   3.249  15.362 -0.4228  1.3216 -0.1296
 9311TIP3   OH249423   5.442   0.500   3.254 -0.4302 -0.4245 -0.7579
 9311TIP3    H149424   5.508   0.551   3.207 -0.9222 -0.7844 -1.8772
 9311TIP3    H249425   5.471   0.502   3.346  2.1285 -1.9772 -1.4019
 9312TIP3   OH249426   1.550   5.624  11.801  0.0608 -0.5787 -0.3762
 9312TIP3    H149427   1.501   5.569  11.862  1.7565  0.3084  1.9424
 9312TIP3    H249428   1.636   5.582  11.795 -0.3933 -1.3684 -3.3035
 9313TIP3   OH249429   5.634   6.654  15.883  0.3947  0.3272 -0.1433
 9313TIP3    H149430   5.592   6.637  15.799  2.0080 -0.0295 -0.9152
 9313TIP3    H249431   5.563   6.648  15.947 -0.6735 -0.4535 -1.3598
 9314TIP3   OH249432   3.021   3.166  16.165 -0.4810 -0.0495  0.5381
 9314TIP3    H149433   2.961   3.185  16.237 -0.2525 -0.4518  0.8424
 9314TIP3    H249434   3.094   3.119  16.206 -1.0455 -1.6197 -0.1466
 9315TIP3   OH249435   0.474   0.468   3.102 -0.1534  0.1751  0.2886
 9315TIP3    H149436   0.505   0.404   3.037 -0.6464  0.1340  0.0939
 9315TIP3    H249437   0.497   0.553   3.065 -2.3283  0.2801 -0.9866
 9316TIP3   OH249438   0.072   4.521   1.800  0.4206  0.2219  0.5679
 9316TIP3    H149439   0.157   4.500   1.839  0.9095 -2.0429 -1.4909
 9316TIP3    H249440   0.094   4.573   1.722 -0.1632  0.3456  0.4809
 9317TIP3   OH249441   2.475   5.502   4.284 -0.1750  0.2390 -0.6244
 9317TIP3    H149442   2.469   5.494   4.379 -0.3240 -1.7373 -0.7494
 9317TIP3    H249443   2.566   5.484   4.264  0.1184  1.8372 -0.7889
 9318TIP3   OH249444   4.860   1.409  12.031 -0.5243  0.5092 -0.3116
 9318TIP3    H149445   4.883   1.489  12.079  0.4821 -0.3003  0.6154
 9318TIP3    H249446   4.849   1.343  12.099 -0.9657 -0.2459 -1.0933
 9319TIP3   OH249447   3.675   5.790  13.866  0.1403  0.5410  0.1423
 9319TIP3    H149448   3.667   5.731  13.791 -0.2380  1.3755 -0.5056
 9319TIP3    H249449   3.724   5.741  13.932  0.5065 -0.2004 -0.6692
 9320TIP3   OH249450   4.532   5.964  10.248 -0.1247  1.0134  0.4038
 9320TIP3    H149451   4.441   5.961  10.220 -0.6693  0.6526  2.1094
 9320TIP3    H249452   4.528   5.964  10.344  1.6780  0.5301  0.5157
 9321TIP3   OH249453   6.566   5.888   2.882 -0.2081 -0.4096 -0.0099
 9321TIP3    H149454   6.561   5.908   2.976  1.4229 -2.6201  0.6564
 9321TIP3    H249455   6.476   5.896   2.851 -0.5704  1.8405  1.3607
 9322TIP3   OH249456   2.216   0.827  10.781 -0.4496  0.0302 -0.3043
 9322TIP3    H149457   2.153   0.777  10.729 -0.7799  0.6028 -0.4545
 9322TIP3    H249458   2.273   0.869  10.716 -0.3318  0.0577 -0.1836
 9323TIP3   OH249459   3.278   0.183   2.086  0.0690 -0.2151 -0.5674
 9323TIP3    H149460   3.223   0.105   2.096  1.0877 -0.7709  1.1673
 9323TIP3    H249461   3.339   0.160   2.016 -0.0999 -0.7009 -0.5651
 9324TIP3   OH249462   5.975   5.916   4.712  0.2776 -0.2304  0.4047
 9324TIP3    H149463   5.970   5.912   4.807  0.4270 -1.4202  0.3750
 9324TIP3    H249464   5.934   5.835   4.682  0.6640 -0.0937 -0.5321
 9325TIP3   OH249465   4.020   4.509   1.341  0.2969 -0.1577  0.0951
 9325TIP3    H149466   3.996   4.528   1.432  1.4417 -0.7447  0.5384
 9325TIP3    H249467   4.067   4.425   1.346 -1.2818 -1.1784 -1.2962
 9326TIP3   OH249468   2.518   6.146   5.473  0.4638 -0.2038  0.2060
 9326TIP3    H149469   2.607   6.126   5.443  0.1402 -0.1540 -0.8368
 9326TIP3    H249470   2.495   6.073   5.531  0.5491 -1.1302 -0.8996
 9327TIP3   OH249471   2.947   6.265   3.816 -0.5820 -0.1101 -0.8857
 9327TIP3    H149472   2.884   6.305   3.876 -0.2796 -0.6198 -0.2059
 9327TIP3    H249473   2.944   6.319   3.737 -2.5756 -0.6771 -1.2430
 9328TIP3   OH249474   2.524   3.103  12.822  1.0308 -1.0854 -0.9052
 9328TIP3    H149475   2.551   3.074  12.909 -2.2465 -0.3771  0.4824
 9328TIP3    H249476   2.446   3.051  12.802  1.5395 -1.0331 -3.3468
 9329TIP3   OH249477   1.114   4.226  13.010  0.9037 -0.1443 -0.8164
 9329TIP3    H149478   1.202   4.207  12.977  0.8325  0.0140 -1.1002
 9329TIP3    H249479   1.069   4.267  12.936 -0.0338 -1.9922 -1.3241
 9330TIP3   OH249480   4.101   2.220   6.726  0.0083  0.0839  0.2876
 9330TIP3    H149481   4.082   2.311   6.702 -0.0238  0.2693  0.9892
 9330TIP3    H249482   4.147   2.227   6.809  3.0800 -0.3351 -1.2287
 9331TIP3   OH249483   3.153   4.601  11.021  0.1808  0.0410  0.4962
 9331TIP3    H149484   3.207   4.630  10.947  0.7388  0.1753  0.9577
 9331TIP3    H249485   3.079   4.556  10.979 -0.0161  0.9612 -0.1898
 9332TIP3   OH249486   4.424   6.689  15.002 -0.0744 -0.1011  0.2450
 9332TIP3    H149487   4.396   6.718  14.916  0.0741 -0.8847 -0.0747
 9332TIP3    H249488   4.344   6.657  15.044 -0.3581  1.3118  0.8390
 9333TIP3   OH249489   2.677   5.025  14.316  0.0717 -0.3118  0.5524
 9333TIP3    H149490   2.588   4.997  14.296  0.9732 -2.2718 -0.9561
 9333TIP3    H249491   2.695   4.988  14.403 -0.9999  1.2544  1.4927
 9334TIP3   OH249492   0.522   0.420   3.775 -0.3537  0.0993 -0.1072
 9334TIP3    H149493   0.527   0.358   3.702  1.6020 -0.5487  0.5359
 9334TIP3    H249494   0.560   0.501   3.741 -0.3168  0.0875 -0.0940
 9335TIP3   OH249495   1.068   5.548  11.614 -0.1129  0.0373  0.0105
 9335TIP3    H149496   1.094   5.464  11.652 -3.8797 -0.9296  0.8561
 9335TIP3    H249497   1.128   5.611  11.654  2.2535 -2.0551  0.0500
 9336TIP3   OH249498   3.941   4.321  11.332  0.3390  0.5465 -0.0365
 9336TIP3    H149499   3.916   4.360  11.416 -2.5961  2.5068 -1.6340
 9336TIP3    H249500   3.991   4.389  11.287 -2.7926  1.8505 -1.9016
 9337TIP3   OH249501   3.163   6.246  11.875 -0.1275  0.2080  0.2240
 9337TIP3    H149502   3.222   6.184  11.832 -0.0693  0.6550 -0.3478
 9337TIP3    H249503   3.220   6.315  11.909 -0.3124  0.6416 -0.3317
 9338TIP3   OH249504   0.725   6.508   1.760 -0.2315  0.9161 -0.3459
 9338TIP3    H149505   0.762   6.517   1.848  0.9465 -1.3873 -0.5278
 9338TIP3    H249506   0.797   6.532   1.701  0.1798 -0.9649 -0.6756
 9339TIP3   OH249507   0.162   3.628  11.750  0.4191 -0.0047 -0.1171
 9339TIP3    H149508   0.151   3.715  11.789 -0.7291 -0.8042  1.4369
 9339TIP3    H249509   0.234   3.589  11.799 -0.9665 -0.9793  1.2156
 9340TIP3   OH249510   3.249   2.122   5.905 -0.0299  0.2229  0.1238
 9340TIP3    H149511   3.340   2.149   5.911 -0.4528  1.8168 -0.1720
 9340TIP3    H249512   3.199   2.203   5.903 -1.4517 -0.6025  0.0310
 9341TIP3   OH249513   4.772   3.774   2.794 -0.1715  0.1242  0.1595
 9341TIP3    H149514   4.833   3.796   2.724 -0.6185 -0.2057 -0.3473
 9341TIP3    H249515   4.749   3.682   2.777 -0.3335  0.0620  0.7032
 9342TIP3   OH249516   5.372   5.130   0.328  0.0878  0.1012  0.1187
 9342TIP3    H149517   5.419   5.104   0.249  0.9554  0.8654  0.3636
 9342TIP3    H249518   5.342   5.048   0.367  2.3765 -0.5476  0.6605
 9343TIP3   OH249519   0.535   2.552   0.841 -0.0942  0.3903 -0.0948
 9343TIP3    H149520   0.494   2.638   0.841  0.4001  0.6396  0.6444
 9343TIP3    H249521   0.547   2.532   0.934 -0.7807 -0.7525 -0.2360
 9344TIP3   OH249522   2.378   3.463   0.854  0.3236 -0.0308  0.0176
 9344TIP3    H149523   2.392   3.378   0.896 -0.1910 -0.2023 -0.1519
 9344TIP3    H249524   2.466   3.500   0.843  0.7290 -1.4039 -1.7242
 9345TIP3   OH249525   5.918   5.353   1.627  0.0292 -0.8583  0.3534
 9345TIP3    H149526   5.858   5.400   1.684  1.7275  0.1683  1.3552
 9345TIP3    H249527   5.947   5.418   1.563  0.7232 -1.1075  0.4011
 9346TIP3   OH249528   1.100   4.860  11.433  0.5282  0.6311  0.2016
 9346TIP3    H149529   1.096   4.943  11.480 -1.2258  0.7834 -0.1332
 9346TIP3    H249530   1.168   4.810  11.478  0.4674  1.6154  1.4499
 9347TIP3   OH249531   5.042   3.233  12.526 -0.1538 -0.0103 -0.0430
 9347TIP3    H149532   5.042   3.328  12.513 -0.5692 -0.0188 -0.1051
 9347TIP3    H249533   4.950   3.210  12.536  0.0022 -0.2912  0.8301
 9348TIP3   OH249534   5.179   3.799   3.588  0.5873 -0.4052  0.3908
 9348TIP3    H149535   5.189   3.889   3.621 -2.0011 -0.2016  0.8555
 9348TIP3    H249536   5.152   3.810   3.497  0.0247 -0.6823  0.5195
 9349TIP3   OH249537   0.146   4.915  15.088 -0.0151  0.2002 -0.1109
 9349TIP3    H149538   0.078   4.849  15.100  0.6827 -0.3569  0.9154
 9349TIP3    H249539   0.204   4.904  15.163  0.9555  0.9718 -0.7214
 9350TIP3   OH249540   6.157   4.685  13.321  0.4073  0.9500 -0.1349
 9350TIP3    H149541   6.230   4.635  13.284  0.7696  1.6872 -0.4345
 9350TIP3    H249542   6.079   4.634  13.298  0.7662  0.5331 -0.4523
 9351TIP3   OH249543   1.259   1.070   4.252  0.2316 -0.0013 -0.0182
 9351TIP3    H149544   1.221   1.117   4.326  0.2859  0.5457 -0.3392
 9351TIP3    H249545   1.292   0.988   4.291 -2.0498 -0.9343  0.1178
 9352TIP3   OH249546   2.487   4.375  16.126  0.3148  0.3803 -0.0704
 9352TIP3    H149547   2.440   4.354  16.045 -1.4279  0.6963  0.7999
 9352TIP3    H249548   2.579   4.372  16.102 -0.0992 -1.0942 -1.6920
 9353TIP3   OH249549   2.381   0.462   5.091  0.1385 -0.2756 -0.0668
 9353TIP3    H149550   2.410   0.386   5.141 -0.6475  0.1952  1.1440
 9353TIP3    H249551   2.449   0.528   5.107  0.4175 -0.4516 -0.4864
 9354TIP3   OH249552   2.689   5.983  14.709  0.3906 -0.1107  0.9707
 9354TIP3    H149553   2.607   6.024  14.683  0.2024 -0.7555  0.5214
 9354TIP3    H249554   2.668   5.935  14.789 -0.1529 -1.8081 -0.1486
 9355TIP3   OH249555   3.700   2.584  14.267 -0.1465 -0.0021  0.0270
 9355TIP3    H149556   3.684   2.590  14.173 -3.4045 -0.0763  0.4367
 9355TIP3    H249557   3.738   2.669  14.290 -0.1398  0.3503 -1.2130
 9356TIP3   OH249558   0.745   0.757   5.242 -0.2377 -0.2288  0.3745
 9356TIP3    H149559   0.663   0.715   5.270  0.3824 -1.1479  0.8990
 9356TIP3    H249560   0.813   0.706   5.287  0.5549  1.5558  1.2745
 9357TIP3   OH249561   0.216   0.667   6.103 -1.2161  0.6499  0.0472
 9357TIP3    H149562   0.151   0.736   6.090 -0.5315  1.4557  0.7704
 9357TIP3    H249563   0.300   0.712   6.098 -0.7572 -0.1047  0.6623
 9358TIP3   OH249564   0.127   5.893  15.684  0.1363  0.0572  0.0923
 9358TIP3    H149565   0.097   5.839  15.757  2.0420  0.0081  0.8927
 9358TIP3    H249566   0.092   5.980  15.703  0.4796  0.0099  1.0111
 9359TIP3   OH249567   2.404   1.428   1.967 -0.1534  0.7052 -0.1187
 9359TIP3    H149568   2.465   1.464   2.032 -1.2286 -0.2371  1.4864
 9359TIP3    H249569   2.361   1.355   2.012  0.1901 -1.0575 -2.4428
 9360TIP3   OH249570   1.845   4.616  12.898 -0.0194 -0.5299  0.0829
 9360TIP3    H149571   1.920   4.557  12.894  1.8891  1.7798 -0.3723
 9360TIP3    H249572   1.847   4.664  12.815 -1.1295  0.5774  0.6565
 9361TIP3   OH249573   4.840   2.533  13.879 -0.3514  0.3993 -0.2257
 9361TIP3    H149574   4.832   2.547  13.974  0.2448  0.9770 -0.2543
 9361TIP3    H249575   4.789   2.454  13.862  1.1902 -0.8930  0.8973
 9362TIP3   OH249576   1.727   4.168   1.124 -0.0873  0.5064  0.1019
 9362TIP3    H149577   1.712   4.247   1.071 -2.1841 -0.8301 -1.4692
 9362TIP3    H249578   1.821   4.156   1.122  0.0236  1.1806 -2.4272
 9363TIP3   OH249579   2.244   1.440  10.862 -0.3465  1.1715  0.3225
 9363TIP3    H149580   2.332   1.475  10.847  0.9712 -1.9752  0.0280
 9363TIP3    H249581   2.249   1.396  10.946 -0.5956 -1.7436 -1.0558
 9364TIP3   OH249582   2.131   5.357  13.700  0.0652 -0.1372  0.0159
 9364TIP3    H149583   2.044   5.365  13.741 -0.2025  0.0559 -0.5783
 9364TIP3    H249584   2.117   5.297  13.626  0.8587 -1.6756  1.0693
 9365TIP3   OH249585   1.120   0.820  17.095 -0.7462 -0.4560 -0.4436
 9365TIP3    H149586   1.118   0.913  17.116 -2.1484 -0.8802  1.6744
 9365TIP3    H249587   1.206   0.806  17.055  0.7158  1.2670  1.8106
 9366TIP3   OH249588   4.813   5.443   2.040  0.3928  0.2582  0.0160
 9366TIP3    H149589   4.771   5.521   2.076  1.5709  1.1897 -0.5506
 9366TIP3    H249590   4.780   5.438   1.950  1.2718  0.8572 -0.3547
 9367TIP3   OH249591   5.232   2.541  14.340 -0.1907 -0.0162 -0.1694
 9367TIP3    H149592   5.236   2.617  14.282 -0.9745 -0.9084 -1.4448
 9367TIP3    H249593   5.307   2.551  14.399  1.5559  0.1598 -2.3093
 9368TIP3   OH249594   3.610   5.758   5.401  0.3642 -0.0142 -0.4045
 9368TIP3    H149595   3.646   5.847   5.398  0.7093 -0.1717 -1.1476
 9368TIP3    H249596   3.646   5.715   5.324 -0.2018 -0.6503 -0.3231
 9369TIP3   OH249597   2.504   1.251   2.351  0.0911  0.2353 -0.2793
 9369TIP3    H149598   2.454   1.232   2.272  0.8034  1.2986 -1.0057
 9369TIP3    H249599   2.564   1.177   2.361 -1.6676 -1.1579  0.7060
 9370TIP3   OH249600   2.005   2.622   2.550  0.4823 -0.1832  0.0537
 9370TIP3    H149601   1.937   2.686   2.573  2.1520  2.2690 -1.3756
 9370TIP3    H249602   1.977   2.589   2.464 -0.4383 -1.5914  0.8397
 9371TIP3   OH249603   0.469   5.609  14.436 -0.5094 -0.3570 -0.1662
 9371TIP3    H149604   0.542   5.578  14.382 -0.0799 -2.0088  1.2456
 9371TIP3    H249605   0.504   5.686  14.482 -0.3106  0.0177 -0.9378
 9372TIP3   OH249606   2.491   6.461   4.775 -0.1042 -0.0947  0.1192
 9372TIP3    H149607   2.413   6.483   4.827  0.1935  2.9910 -0.5201
 9372TIP3    H249608   2.550   6.418   4.837 -0.1926  2.4862  2.2104
 9373TIP3   OH249609   6.633   1.953   1.462 -0.2657 -0.1684  0.4699
 9373TIP3    H149610   6.695   1.929   1.532  0.5989  0.6024 -0.0083
 9373TIP3    H249611   6.549   1.917   1.491 -0.1361  0.9697  2.3925
 9374TIP3   OH249612   1.394   0.895  14.944 -0.3582 -0.2444  0.3255
 9374TIP3    H149613   1.389   0.896  15.040  0.2261  3.6114  0.4695
 9374TIP3    H249614   1.355   0.978  14.917  1.8717  0.0126 -2.6022
 9375TIP3   OH249615   3.638   4.033  12.852 -0.3274 -0.1885  0.3220
 9375TIP3    H149616   3.664   4.114  12.808  0.4131 -0.4193  0.3221
 9375TIP3    H249617   3.593   3.982  12.784  0.2091 -0.2554  0.0128
 9376TIP3   OH249618   5.549   3.884   2.433  0.9502  0.1467  0.3508
 9376TIP3    H149619   5.563   3.979   2.435  0.5778  0.1964  0.6692
 9376TIP3    H249620   5.522   3.866   2.343 -1.9091  0.7808  0.9730
 9377TIP3   OH249621   6.346   4.723  15.627  0.0208 -0.1076  0.0077
 9377TIP3    H149622   6.322   4.794  15.686  0.6586  0.0205  0.1169
 9377TIP3    H249623   6.398   4.765  15.559  1.4747 -0.6449  0.7448
 9378TIP3   OH249624   4.081   1.227  15.433  0.0296 -0.3635 -0.0075
 9378TIP3    H149625   4.160   1.280  15.420  0.9191 -1.4712  0.6756
 9378TIP3    H249626   4.028   1.277  15.494 -0.7932  1.3768 -2.0190
 9379TIP3   OH249627   3.621   5.139  13.538 -0.5944 -0.2152 -0.1473
 9379TIP3    H149628   3.561   5.074  13.575 -0.6708 -0.1123 -0.0887
 9379TIP3    H249629   3.590   5.153  13.449  0.5076 -1.6058 -0.7931
 9380TIP3   OH249630   5.704   0.861  11.580  0.2594  0.3735  0.0469
 9380TIP3    H149631   5.742   0.942  11.613 -0.8450  0.8857  0.0618
 9380TIP3    H249632   5.760   0.837  11.505  1.1344  0.6389  0.5985
 9381TIP3   OH249633   0.060   4.863  13.457  0.4416 -0.0276 -0.0057
 9381TIP3    H149634   0.147   4.840  13.488 -0.4488  0.8661  3.7321
 9381TIP3    H249635   0.008   4.784  13.470  0.7868 -0.9337 -3.3155
 9382TIP3   OH249636   0.989   6.634  13.996  0.0991  0.0805 -0.2206
 9382TIP3    H149637   1.035   6.561  13.956 -0.0704  1.0434 -2.2956
 9382TIP3    H249638   1.037   6.712  13.968 -0.5594  0.8643  0.7476
 9383TIP3   OH249639   3.731   0.610  17.004 -0.1662  0.4262 -0.3330
 9383TIP3    H149640   3.711   0.703  16.992 -0.4590  0.2288 -1.4127
 9383TIP3    H249641   3.677   0.584  17.079 -0.4583  1.0042 -0.3373
 9384TIP3   OH249642   2.869   5.555   5.067 -0.1659  0.5916 -0.1148
 9384TIP3    H149643   2.880   5.475   5.016  0.8924  0.9704 -0.5066
 9384TIP3    H249644   2.776   5.556   5.091 -0.6886  0.3539 -1.9819
 9385TIP3   OH249645   0.968   1.643  12.106  0.3441  0.4992  0.3511
 9385TIP3    H149646   0.918   1.568  12.139  0.9857  0.0738  0.3724
 9385TIP3    H249647   0.918   1.720  12.135  0.0152  0.0968  0.8706
 9386TIP3   OH249648   1.727   4.095   5.074  0.0521 -0.7114 -0.2800
 9386TIP3    H149649   1.695   4.062   5.158 -0.9784  1.2054  0.1424
 9386TIP3    H249650   1.652   4.085   5.015  0.5695 -1.4711 -0.8216
 9387TIP3   OH249651   1.460   6.527  10.486  0.3871 -0.1749 -0.6790
 9387TIP3    H149652   1.496   6.584  10.418  0.9106  0.1906 -0.1095
 9387TIP3    H249653   1.367   6.546  10.487  0.2046 -0.8750 -1.9334
 9388TIP3   OH249654   1.771   2.254   4.402 -0.4295 -0.2023  1.0969
 9388TIP3    H149655   1.800   2.271   4.492  0.8034  1.2829  0.4769
 9388TIP3    H249656   1.846   2.280   4.348 -1.5680  0.0457 -0.4216
 9389TIP3   OH249657   1.000   3.420  16.736 -0.2268  0.4049 -0.5885
 9389TIP3    H149658   1.047   3.484  16.682  0.0194 -0.7724 -1.8407
 9389TIP3    H249659   0.907   3.443  16.725 -0.0608  2.6941  1.8413
 9390TIP3   OH249660   2.671   0.169  13.529  0.0226  0.4210  0.2081
 9390TIP3    H149661   2.604   0.196  13.466  0.0526 -0.8298 -0.3977
 9390TIP3    H249662   2.644   0.081  13.556  1.7756 -0.4044 -0.5977
 9391TIP3   OH249663   2.968   4.103   5.636  0.2143  0.2760 -0.5362
 9391TIP3    H149664   2.873   4.095   5.631  0.2666 -1.1210  0.2389
 9391TIP3    H249665   2.992   4.156   5.561 -1.1717  0.5950 -0.7743
 9392TIP3   OH249666   2.505   3.080   2.211 -0.0516 -0.5268  0.2860
 9392TIP3    H149667   2.464   3.004   2.170  0.0199 -0.9969  1.0611
 9392TIP3    H249668   2.599   3.062   2.207  0.0173 -0.0688 -0.3028
 9393TIP3   OH249669   2.435   3.989   6.273 -0.6287 -0.1746  0.2411
 9393TIP3    H149670   2.500   4.039   6.323  1.5372  0.1146 -2.6173
 9393TIP3    H249671   2.468   3.899   6.273 -1.4149 -0.4673  0.5617
 9394TIP3   OH249672   6.691   5.018   0.664 -0.2130 -0.5285 -0.8386
 9394TIP3    H149673   6.677   4.986   0.575 -1.2458  0.3463 -1.0223
 9394TIP3    H249674   6.781   5.050   0.665  0.1406 -1.4912 -1.2560
 9395TIP3   OH249675   3.069   0.672   2.692 -0.3512  0.6673  0.5874
 9395TIP3    H149676   3.140   0.628   2.739 -0.5003 -0.5171 -0.2400
 9395TIP3    H249677   3.113   0.722   2.624 -0.2277  1.0941  0.9810
 9396TIP3   OH249678   1.678   2.541   2.593 -0.2496 -0.1059  0.3454
 9396TIP3    H149679   1.729   2.487   2.653  0.6762  1.0755  0.6641
 9396TIP3    H249680   1.682   2.629   2.631  0.1805  0.6361 -1.3149
 9397TIP3   OH249681   2.341   6.344  10.953 -0.0137 -0.0606 -0.2187
 9397TIP3    H149682   2.415   6.283  10.963  0.4171  0.0633 -2.2903
 9397TIP3    H249683   2.275   6.294  10.905 -0.8021  0.2236  0.5554
 9398TIP3   OH249684   4.658   0.410   0.021  0.7340  0.2773 -0.5016
 9398TIP3    H149685   4.681   0.503   0.017  1.6597  0.2963  2.4811
 9398TIP3    H249686   4.732   0.369   0.065 -0.2473 -1.6408 -0.5351
 9399TIP3   OH249687   2.920   4.972  17.059 -0.2407 -0.3113  0.1215
 9399TIP3    H149688   2.894   4.933  16.976  0.1300 -0.4719  0.0800
 9399TIP3    H249689   2.991   5.032  17.036 -1.3192  0.9880  0.0660
 9400TIP3   OH249690   1.114   1.452  12.462  0.8131 -0.0952 -0.2302
 9400TIP3    H149691   1.101   1.546  12.468  1.4241 -0.0121 -0.0787
 9400TIP3    H249692   1.127   1.435  12.369  1.3500  0.0730 -0.1941
 9401TIP3   OH249693   3.121   2.671   0.516  0.0433 -0.7193 -0.1999
 9401TIP3    H149694   3.106   2.760   0.546  0.5020 -0.5944 -0.3434
 9401TIP3    H249695   3.042   2.649   0.466 -0.5373 -0.7729  0.6988
 9402TIP3   OH249696   3.693   5.162  16.077  0.8218 -0.1143  0.2973
 9402TIP3    H149697   3.752   5.115  16.018  1.3388  1.3497 -0.4006
 9402TIP3    H249698   3.741   5.241  16.100 -0.6820  0.8906  0.0989
 9403TIP3   OH249699   5.387   5.814   3.987 -0.2629 -0.1052  0.5265
 9403TIP3    H149700   5.469   5.847   3.951 -0.1159 -0.7513  0.2422
 9403TIP3    H249701   5.328   5.810   3.912 -0.5572  0.3537  0.7301
 9404TIP3   OH249702   2.393   6.680   5.969  0.0896  0.5112  0.2455
 9404TIP3    H149703   2.371   6.637   5.886 -0.2023  1.3271 -0.1102
 9404TIP3    H249704   2.489   6.689   5.967  0.2785 -1.1509  0.8492
 9405TIP3   OH249705   0.182   6.491  15.280 -0.1236  0.3364 -0.0391
 9405TIP3    H149706   0.090   6.504  15.255 -0.2449 -1.2902 -0.5690
 9405TIP3    H249707   0.182   6.410  15.330  1.0169  0.4251  0.1297
 9406TIP3   OH249708   6.323   0.455  13.986  0.1456  0.1194  0.3039
 9406TIP3    H149709   6.384   0.397  14.031  0.3563  0.5512  0.5781
 9406TIP3    H249710   6.243   0.452  14.039  0.3785  0.5924  0.6840
 9407TIP3   OH249711   3.646   4.990   0.490 -0.7502 -0.0491  0.0066
 9407TIP3    H149712   3.709   4.936   0.537 -1.2486  0.0582  0.8044
 9407TIP3    H249713   3.645   4.953   0.401  0.2219 -0.2232  0.0577
 9408TIP3   OH249714   2.556   4.016   5.941 -0.0668  0.2875 -0.1428
 9408TIP3    H149715   2.492   4.085   5.924 -0.7651 -0.1591  0.5883
 9408TIP3    H249716   2.635   4.063   5.967 -0.0485  0.8458 -1.1706
 9409TIP3   OH249717   5.470   5.011  14.279 -0.3252  0.3306 -0.7669
 9409TIP3    H149718   5.542   4.975  14.227 -0.3509 -1.5816  0.4675
 9409TIP3    H249719   5.511   5.081  14.331  1.3948 -2.5023  1.9907
 9410TIP3   OH249720   5.963   2.372  12.313 -0.5221 -0.1012  0.1517
 9410TIP3    H149721   5.869   2.360  12.322 -0.3419 -1.6235  0.2350
 9410TIP3    H249722   5.988   2.315  12.241  0.3768  0.0990  0.2871
 9411TIP3   OH249723   0.954   1.031  10.886 -0.5229  0.4715 -0.1780
 9411TIP3    H149724   0.906   1.068  10.811  0.7132  0.1751 -1.1479
 9411TIP3    H249725   0.937   1.093  10.957 -1.3554  1.0105 -0.8172
 9412TIP3   OH249726   0.170   1.328  11.684 -0.2372 -0.1778  0.5421
 9412TIP3    H149727   0.186   1.306  11.592 -1.1893  1.1860  0.0182
 9412TIP3    H249728   0.235   1.395  11.704 -0.1214 -0.3723  0.8218
 9413TIP3   OH249729   4.286   3.087  11.380 -0.1895  0.6030  0.6087
 9413TIP3    H149730   4.279   3.147  11.454  0.2419  0.7803  0.5083
 9413TIP3    H249731   4.312   3.003  11.418  0.3194  0.7674  0.6292
 9414TIP3   OH249732   4.206   6.486   0.604 -0.1425  0.6562  0.2074
 9414TIP3    H149733   4.286   6.434   0.589 -0.4788  0.4984 -1.2171
 9414TIP3    H249734   4.192   6.482   0.698  1.1015  0.0311  0.3891
 9415TIP3   OH249735   1.568   5.655  12.624  0.0510 -0.3171  0.0181
 9415TIP3    H149736   1.495   5.699  12.581  1.9457  0.6248 -2.4543
 9415TIP3    H249737   1.643   5.668  12.565  1.6336 -3.5712  1.0770
 9416TIP3   OH249738   5.137   0.918  16.265 -0.6215 -0.0184 -0.4745
 9416TIP3    H149739   5.119   0.824  16.268  0.5444 -0.2715  3.0184
 9416TIP3    H249740   5.231   0.925  16.281 -0.7768  1.7707 -0.1629
 9417TIP3   OH249741   3.721   6.761   2.292  0.7568 -0.2828 -0.0905
 9417TIP3    H149742   3.772   6.717   2.361  0.6107 -1.2353 -0.5738
 9417TIP3    H249743   3.754   6.851   2.292  1.6595 -0.5972  0.3632
 9418TIP3   OH249744   2.723   1.976  16.997 -0.5343  0.4962 -0.0092
 9418TIP3    H149745   2.777   1.932  17.063  0.5611 -1.5753 -2.1212
 9418TIP3    H249746   2.730   2.069  17.017  1.0804  0.0409  1.7803
 9419TIP3   OH249747   5.501   3.092   5.622 -0.0466 -0.4857 -0.1365
 9419TIP3    H149748   5.471   3.058   5.537 -0.5047  0.4185 -0.3513
 9419TIP3    H249749   5.422   3.094   5.676 -0.2873  1.3670 -0.5194
 9420TIP3   OH249750   1.544   3.842  11.932 -0.2597  0.1165 -0.2743
 9420TIP3    H149751   1.456   3.834  11.968 -0.8278 -2.4090 -1.9799
 9420TIP3    H249752   1.597   3.781  11.984 -0.0082  0.0098 -0.6515
 9421TIP3   OH249753   2.554   3.817   4.913  0.1365  0.2408  0.5251
 9421TIP3    H149754   2.597   3.741   4.951  1.1442  0.9083  0.7655
 9421TIP3    H249755   2.554   3.882   4.984 -1.5720  0.1661  0.6377
 9422TIP3   OH249756   6.377   6.415   6.135  0.3061 -0.2405 -0.1596
 9422TIP3    H149757   6.450   6.476   6.142  1.0513 -1.1401  0.2782
 9422TIP3    H249758   6.328   6.428   6.216 -0.5723  1.0185 -0.8674
 9423TIP3   OH249759   5.152   5.002  14.505  0.1954 -0.0910  0.0792
 9423TIP3    H149760   5.169   4.908  14.490  0.4198 -0.0250 -0.0963
 9423TIP3    H249761   5.060   5.013  14.481  0.7192  0.1479 -2.0359
 9424TIP3   OH249762   4.312   6.271   3.728  0.2650 -0.0753  0.0949
 9424TIP3    H149763   4.219   6.297   3.732 -0.5350 -2.8380  1.6120
 9424TIP3    H249764   4.311   6.188   3.681  1.9857 -0.2498  0.3217
 9425TIP3   OH249765   3.837   6.416  13.148 -0.0242 -0.4037  0.3411
 9425TIP3    H149766   3.763   6.360  13.173 -1.4518  0.8812 -0.8434
 9425TIP3    H249767   3.882   6.366  13.079 -0.3987 -0.7232  0.3239
 9426TIP3   OH249768   4.246   1.509  12.808  0.8344 -0.0771 -0.3141
 9426TIP3    H149769   4.195   1.450  12.752 -0.5974  0.9787 -0.1793
 9426TIP3    H249770   4.182   1.548  12.867  1.7664  1.3652 -0.1830
 9427TIP3   OH249771   0.197   2.148   4.884  0.3302 -0.4025 -0.2184
 9427TIP3    H149772   0.196   2.162   4.979 -1.0482 -0.6950 -0.1804
 9427TIP3    H249773   0.273   2.091   4.869  0.5002 -0.4311  0.7104
 9428TIP3   OH249774   3.403   1.750   1.054 -0.4653 -0.2871  0.1548
 9428TIP3    H149775   3.361   1.664   1.061  0.4348 -0.7574 -0.0164
 9428TIP3    H249776   3.452   1.746   0.972 -0.8142  0.5851 -0.1146
 9429TIP3   OH249777   2.427   2.106  13.212 -0.3236  0.4037 -0.5929
 9429TIP3    H149778   2.346   2.109  13.161 -0.1620 -0.0902 -0.8839
 9429TIP3    H249779   2.405   2.053  13.288  0.0523 -0.7521 -1.2715
 9430TIP3   OH249780   1.963   3.596   3.391 -0.6165  0.0211  0.5797
 9430TIP3    H149781   1.946   3.684   3.422 -1.4482 -0.0698  0.4083
 9430TIP3    H249782   2.058   3.593   3.376 -0.7578  1.3617 -0.8634
 9431TIP3   OH249783   0.646   5.850   5.980  0.0769 -0.0468 -0.5310
 9431TIP3    H149784   0.599   5.904   6.044 -0.4185 -0.5704 -0.4458
 9431TIP3    H249785   0.724   5.901   5.959  0.5099 -0.0802  0.8625
 9432TIP3   OH249786   4.139   4.308   5.809  0.5233 -0.3421  0.0397
 9432TIP3    H149787   4.082   4.320   5.885  2.2183 -0.7671  1.4589
 9432TIP3    H249788   4.082   4.320   5.733 -1.1104  0.7089  1.3717
 9433TIP3   OH249789   0.403   0.786  13.838  0.3388  0.0812  0.0361
 9433TIP3    H149790   0.469   0.834  13.888  0.7899  0.4179 -0.8596
 9433TIP3    H249791   0.443   0.774  13.752  0.0667 -1.5451  0.1149
 9434TIP3   OH249792   1.029   0.113   1.242  0.5109  0.7208  0.0925
 9434TIP3    H149793   0.946   0.068   1.224  0.9957 -0.8446  1.6001
 9434TIP3    H249794   1.022   0.141   1.333  1.1922  1.6227 -0.1202
 9435TIP3   OH249795   5.807   1.596   6.267  0.0689  0.2289  0.2917
 9435TIP3    H149796   5.752   1.549   6.329 -1.1802  2.2730  0.8333
 9435TIP3    H249797   5.852   1.527   6.218  0.3653 -1.4898  2.7645
 9436TIP3   OH249798   4.495   1.146   1.350  0.0023  0.0771 -0.4814
 9436TIP3    H149799   4.538   1.222   1.390  0.2085  0.2323 -0.9951
 9436TIP3    H249800   4.478   1.173   1.260 -2.2127  0.4631 -0.0077
 9437TIP3   OH249801   6.725   3.139  16.753  0.2013  0.0293  0.1644
 9437TIP3    H149802   6.726   3.056  16.705 -0.3591  0.2075 -0.1647
 9437TIP3    H249803   6.694   3.115  16.841 -0.0554 -0.0928  0.0414
 9438TIP3   OH249804   0.639   3.802  13.500 -0.4891  0.2666 -0.4039
 9438TIP3    H149805   0.705   3.871  13.496 -2.3034  2.1995  0.8346
 9438TIP3    H249806   0.646   3.768  13.589 -0.7509  0.0719 -0.4586
 9439TIP3   OH249807   2.632   3.539   0.857 -0.2438 -0.2022  0.3392
 9439TIP3    H149808   2.672   3.558   0.772 -0.4452  1.2519  0.5405
 9439TIP3    H249809   2.706   3.522   0.915 -0.0913 -0.8751 -0.0397
 9440TIP3   OH249810   2.760   3.798   0.945  0.0887  0.0311 -0.4070
 9440TIP3    H149811   2.702   3.735   0.988 -0.1566 -0.2433 -1.1186
 9440TIP3    H249812   2.796   3.851   1.016 -0.8530  0.0502  0.0744
 9441TIP3   OH249813   1.971   6.227  14.801 -0.1353 -0.7819  0.1688
 9441TIP3    H149814   2.040   6.165  14.777 -1.0421 -0.9546 -2.2766
 9441TIP3    H249815   2.011   6.313  14.789 -0.4003 -0.8733 -1.6923
 9442TIP3   OH249816   4.344   0.714  14.500 -0.6393  0.6695  0.3490
 9442TIP3    H149817   4.356   0.622  14.475  0.5036  0.3822  1.8378
 9442TIP3    H249818   4.267   0.742  14.450 -0.3266 -0.7491 -1.0126
 9443TIP3   OH249819   0.270   2.885   2.720  0.3683 -0.2179 -0.2628
 9443TIP3    H149820   0.324   2.957   2.688  0.3273 -0.4092 -0.7714
 9443TIP3    H249821   0.269   2.822   2.648 -0.5050 -0.2270 -0.2485
 9444TIP3   OH249822   5.587   2.934  12.218  0.5123  0.5290  0.0591
 9444TIP3    H149823   5.500   2.963  12.245  0.1832 -0.0739 -0.3424
 9444TIP3    H249824   5.647   2.986  12.272 -0.1014  0.4706  0.8140
 9445TIP3   OH249825   0.875   2.792   2.353 -0.0325  0.1871  0.2894
 9445TIP3    H149826   0.796   2.838   2.380 -1.5616 -1.9109 -0.3366
 9445TIP3    H249827   0.917   2.850   2.290 -0.2047  2.0198  1.8013
 9446TIP3   OH249828   5.555   2.628  15.038 -0.5883  0.2948  0.0935
 9446TIP3    H149829   5.568   2.706  14.985 -0.4629 -2.1714 -3.9390
 9446TIP3    H249830   5.529   2.560  14.975 -3.1471 -2.4003  3.6150
 9447TIP3   OH249831   5.238   0.194  14.791 -0.4140 -0.2626  0.7341
 9447TIP3    H149832   5.183   0.210  14.867 -0.2531 -0.0048  0.7970
 9447TIP3    H249833   5.197   0.244  14.720  1.2827  2.2684  1.4271
 9448TIP3   OH249834   6.315   5.225   1.765 -0.1625  0.0878 -0.1738
 9448TIP3    H149835   6.293   5.262   1.679  0.5968  0.3761 -0.2518
 9448TIP3    H249836   6.230   5.208   1.806 -0.5627 -1.0453 -1.3955
 9449TIP3   OH249837   2.147   6.121   6.367 -0.6327  0.0637 -0.1960
 9449TIP3    H149838   2.082   6.131   6.438 -0.0126 -1.4946  0.6398
 9449TIP3    H249839   2.101   6.069   6.301 -0.1032 -1.5957  0.6727
 9450TIP3   OH249840   6.682   2.182  15.267 -0.1023  0.0012 -0.2169
 9450TIP3    H149841   6.654   2.180  15.176  0.8537 -0.6544 -0.5090
 9450TIP3    H249842   6.656   2.268  15.299  1.8487  1.2743 -1.8488
 9451TIP3   OH249843   6.604   3.692   0.771  0.0465 -0.1505  0.2191
 9451TIP3    H149844   6.595   3.597   0.769 -1.3294 -0.0915 -3.0262
 9451TIP3    H249845   6.666   3.712   0.702 -0.6580  1.3660 -0.0228
 9452TIP3   OH249846   2.244   5.599  17.104 -0.2270  1.5916  0.7194
 9452TIP3    H149847   2.202   5.548  17.173  0.0086  1.0356  0.4610
 9452TIP3    H249848   2.246   5.540  17.029  1.4062  1.4393  0.8458
 9453TIP3   OH249849   3.839   3.422   2.798  0.0817  0.2350 -0.5248
 9453TIP3    H149850   3.857   3.390   2.886 -2.5325  0.3518  0.1236
 9453TIP3    H249851   3.890   3.503   2.792  1.1071 -0.3027  0.4562
 9454TIP3   OH249852   1.104   4.648   2.711  0.3427  0.1542 -0.2083
 9454TIP3    H149853   1.035   4.714   2.703 -0.5442 -0.6121  0.9279
 9454TIP3    H249854   1.060   4.565   2.694  0.9646 -0.3548  0.6409
 9455TIP3   OH249855   4.387   6.416   5.620 -0.0290  0.2725 -0.4014
 9455TIP3    H149856   4.322   6.486   5.625  0.7567  0.9748  0.0630
 9455TIP3    H249857   4.335   6.336   5.626 -0.6963  0.8196  2.2068
 9456TIP3   OH249858   6.001   2.811  14.956  0.3968 -0.1217 -0.7450
 9456TIP3    H149859   6.084   2.769  14.934  0.1630 -1.2999  0.5474
 9456TIP3    H249860   5.965   2.838  14.871  1.7250 -0.2895 -1.3823
 9457TIP3   OH249861   2.111   2.313  12.351  0.3330 -0.3318  0.1696
 9457TIP3    H149862   2.114   2.408  12.363  1.1449 -0.4802  1.2300
 9457TIP3    H249863   2.157   2.278  12.426 -1.3805 -1.6613  0.6586
 9458TIP3   OH249864   0.418   2.582  16.295  0.0669 -0.0926 -0.2567
 9458TIP3    H149865   0.492   2.528  16.266  1.6738  0.8703  1.7958
 9458TIP3    H249866   0.440   2.670  16.267 -0.2438  0.2128  0.4394
 9459TIP3   OH249867   4.503   0.200  14.945  0.0620 -0.0112 -0.0581
 9459TIP3    H149868   4.415   0.174  14.974  0.1099 -0.2097 -0.0873
 9459TIP3    H249869   4.499   0.193  14.849 -0.5386  2.0248 -0.2244
 9460TIP3   OH249870   3.993   5.056  15.654 -0.2616 -0.2541 -0.3970
 9460TIP3    H149871   3.940   5.134  15.673 -0.4671 -0.7410  1.1951
 9460TIP3    H249872   3.928   4.987  15.638 -0.0826 -0.3033 -0.9256
 9461TIP3   OH249873   0.413   1.271  12.442 -0.2723  0.1347 -0.2582
 9461TIP3    H149874   0.348   1.210  12.478 -0.9703 -0.2026 -1.9712
 9461TIP3    H249875   0.363   1.348  12.417 -0.0226 -0.0848 -1.4996
 9462TIP3   OH249876   0.556   3.492   4.339  0.1863 -0.4568  0.6629
 9462TIP3    H149877   0.487   3.425   4.343  0.2040 -0.5401 -0.2295
 9462TIP3    H249878   0.592   3.484   4.251  1.5230 -0.5798  1.2047
 9463TIP3   OH249879   1.195   1.870   2.841  0.3400  0.5428 -0.4807
 9463TIP3    H149880   1.123   1.891   2.782 -1.5665 -1.9694  0.7530
 9463TIP3    H249881   1.244   1.801   2.796 -0.3448 -0.4481  0.2441
 9464TIP3   OH249882   6.253   4.434  12.652 -0.6327  0.0747 -0.1345
 9464TIP3    H149883   6.259   4.441  12.747  0.2533  0.0155 -0.1729
 9464TIP3    H249884   6.183   4.371  12.636 -0.3086 -0.4575  0.4965
 9465TIP3   OH249885   1.493   1.466  11.183 -1.1640  0.6269  0.4075
 9465TIP3    H149886   1.400   1.474  11.203 -1.6796 -1.3757 -0.8492
 9465TIP3    H249887   1.500   1.493  11.092 -0.3977  1.2810  0.6485
 9466TIP3   OH249888   2.417   0.074   4.362  0.0093  0.3985 -0.1929
 9466TIP3    H149889   2.477   0.004   4.337 -0.2820  0.8945 -2.5486
 9466TIP3    H249890   2.473   0.148   4.383  0.2693  0.5192 -1.2681
 9467TIP3   OH249891   4.907   6.381   3.905  0.3584 -0.3853  0.4006
 9467TIP3    H149892   4.981   6.324   3.883  0.6381 -0.3190  1.1457
 9467TIP3    H249893   4.940   6.437   3.974 -0.4196 -0.4046  0.7966
 9468TIP3   OH249894   4.413   1.134  12.175 -0.2325  0.2616 -0.0950
 9468TIP3    H149895   4.394   1.194  12.247 -0.2416  0.7267 -0.4725
 9468TIP3    H249896   4.449   1.191  12.106  0.0761 -0.2195 -0.3372
 9469TIP3   OH249897   2.250   2.956  13.886 -0.2252  0.3804  0.4578
 9469TIP3    H149898   2.313   2.885  13.874 -0.1922 -0.0755  2.8576
 9469TIP3    H249899   2.209   2.937  13.970 -0.9861  2.6345  0.6417
 9470TIP3   OH249900   1.897   5.921   3.651 -0.0139  0.1845 -0.4044
 9470TIP3    H149901   1.971   5.906   3.710  0.1353  0.6685 -0.4629
 9470TIP3    H249902   1.870   5.834   3.624  1.5752  0.0467 -1.6698
 9471TIP3   OH249903   0.760   3.569  11.741  0.0028  0.1755  0.1819
 9471TIP3    H149904   0.670   3.536  11.746 -0.3851  1.1680 -0.0065
 9471TIP3    H249905   0.751   3.664  11.750  0.8591  0.4718 -1.7308
 9472TIP3   OH249906   5.243   3.622  11.643 -0.3184  0.2548 -0.3366
 9472TIP3    H149907   5.310   3.561  11.611 -0.3860  0.7474 -1.4946
 9472TIP3    H249908   5.225   3.594  11.732 -0.6339 -1.6664 -0.9530
 9473TIP3   OH249909   6.413   0.292   6.550  0.6167 -0.2417  0.0094
 9473TIP3    H149910   6.333   0.319   6.503  1.5968  2.7022 -0.1659
 9473TIP3    H249911   6.388   0.211   6.594 -2.1539  0.0008 -0.8945
 9474TIP3   OH249912   3.348   3.894  17.021  0.0048 -0.1154 -0.3658
 9474TIP3    H149913   3.326   3.840  17.096 -0.9708 -0.3324 -0.7857
 9474TIP3    H249914   3.372   3.979  17.058 -1.2553  0.0373  0.1686
 9475TIP3   OH249915   3.419   0.520   1.556 -0.1760  0.0519  0.2101
 9475TIP3    H149916   3.469   0.593   1.521  1.1845 -1.4791 -1.2076
 9475TIP3    H249917   3.350   0.561   1.608 -0.1328  2.3676 -1.4074
 9476TIP3   OH249918   4.522   3.502  13.818  0.4974  0.0543 -0.2394
 9476TIP3    H149919   4.569   3.575  13.779 -1.4879  1.7193  0.2939
 9476TIP3    H249920   4.562   3.490  13.904  1.1637  0.1638 -0.5308
 9477TIP3   OH249921   5.936   5.303  13.244  0.0098  0.1661  0.3226
 9477TIP3    H149922   6.020   5.346  13.260  0.6154 -0.7672 -0.2929
 9477TIP3    H249923   5.873   5.376  13.236  0.8408  0.8895  0.2315
 9478TIP3   OH249924   0.051   4.835  13.871 -0.1932 -0.3429 -0.0772
 9478TIP3    H149925   0.135   4.815  13.914 -0.0865  1.4937  0.6393
 9478TIP3    H249926   0.007   4.750  13.866  0.3652 -0.8742  2.4695
 9479TIP3   OH249927   4.386   0.810   3.352 -0.5035 -0.1044  0.2547
 9479TIP3    H149928   4.379   0.867   3.276  0.4414 -0.1820  0.0959
 9479TIP3    H249929   4.481   0.800   3.367 -0.6604 -0.7530  0.9352
 9480TIP3   OH249930   0.655   1.470   6.519  0.1604  0.2202  0.1486
 9480TIP3    H149931   0.618   1.491   6.605  0.7370  1.2942  0.1567
 9480TIP3    H249932   0.591   1.503   6.457 -0.0019 -0.0591  0.1688
 9481TIP3   OH249933   6.251   4.649   1.447 -0.9081 -0.4728  0.1229
 9481TIP3    H149934   6.260   4.731   1.495  2.1049 -0.8943  0.4802
 9481TIP3    H249935   6.329   4.598   1.471 -2.6715 -3.5062 -0.0139
 9482TIP3   OH249936   3.089   6.523  13.194  0.4869 -0.2029  0.5692
 9482TIP3    H149937   3.097   6.618  13.206  0.8534 -0.3344  1.3950
 9482TIP3    H249938   3.081   6.512  13.099  0.5681  0.6433  0.4530
 9483TIP3   OH249939   5.160   5.947   4.880  0.2666 -0.1951  0.1077
 9483TIP3    H149940   5.174   5.925   4.788  0.7650 -0.9979  0.3744
 9483TIP3    H249941   5.194   6.036   4.889 -0.7580  0.3065 -0.7204
 9484TIP3   OH249942   1.132   6.798   4.854  0.1479  0.3019  0.2059
 9484TIP3    H149943   1.105   6.804   4.763 -0.0785 -1.3425  0.1428
 9484TIP3    H249944   1.095   6.716   4.886  1.0669  0.3468  1.4933
 9485TIP3   OH249945   5.001   4.341   3.445 -0.2133  0.4711  0.0194
 9485TIP3    H149946   4.959   4.260   3.417 -0.6567  0.7828 -0.2374
 9485TIP3    H249947   5.045   4.319   3.527  1.0120 -0.4337 -0.8569
 9486TIP3   OH249948   3.834   3.407  15.066  0.7542  0.0304 -0.0190
 9486TIP3    H149949   3.779   3.337  15.101  0.8121  0.1678  0.3451
 9486TIP3    H249950   3.824   3.480  15.127  1.0619  0.1798 -0.1419
 9487TIP3   OH249951   4.770   2.640   2.505  0.1437  0.1411 -0.4579
 9487TIP3    H149952   4.796   2.687   2.584 -0.8303 -1.1961  0.7383
 9487TIP3    H249953   4.846   2.644   2.448  1.4935 -0.2158  1.2238
 9488TIP3   OH249954   4.125   3.349  12.731 -0.4305 -0.0354 -0.6021
 9488TIP3    H149955   4.208   3.396  12.731  2.5536 -4.5732  1.4751
 9488TIP3    H249956   4.111   3.323  12.822 -3.6642 -0.4144 -1.0603
 9489TIP3   OH249957   0.233   3.876   0.149 -0.1225 -0.2188 -0.2372
 9489TIP3    H149958   0.173   3.932   0.100 -0.1813  1.2862  1.4460
 9489TIP3    H249959   0.177   3.835   0.215 -0.1455 -2.6284 -1.6395
 9490TIP3   OH249960   4.205   2.707   4.143  0.3300  0.4440  0.3031
 9490TIP3    H149961   4.292   2.711   4.104  0.1426 -0.1382 -0.1872
 9490TIP3    H249962   4.152   2.767   4.090 -0.0620 -0.7742 -0.7210
 9491TIP3   OH249963   3.219   2.659  11.472  0.3623 -0.1783 -0.8452
 9491TIP3    H149964   3.261   2.689  11.553 -0.9290  0.0501 -0.2151
 9491TIP3    H249965   3.267   2.703  11.402 -0.3675  2.0578 -0.0356
 9492TIP3   OH249966   6.482   6.061   3.100 -0.0809  0.2357  0.8920
 9492TIP3    H149967   6.401   6.112   3.096 -1.1073 -1.3603 -0.3874
 9492TIP3    H249968   6.552   6.125   3.085 -0.8696  1.9763  3.8509
 9493TIP3   OH249969   1.650   3.232  12.238 -0.0647  0.1102  0.0243
 9493TIP3    H149970   1.592   3.160  12.213 -0.6146  0.9759 -1.2863
 9493TIP3    H249971   1.726   3.189  12.278 -1.0300 -1.1034  0.6256
 9494TIP3   OH249972   1.617   4.335   5.209 -0.5121 -0.2472 -0.4546
 9494TIP3    H149973   1.668   4.324   5.289  1.4768 -0.2402 -1.6674
 9494TIP3    H249974   1.559   4.259   5.206  0.7603 -1.2629  0.0331
 9495TIP3   OH249975   0.247   2.721  10.740  0.3914 -0.0510  0.0296
 9495TIP3    H149976   0.297   2.663  10.798  1.9418  1.5461  0.3753
 9495TIP3    H249977   0.178   2.665  10.704 -0.0420 -1.3426  2.6321
 9496TIP3   OH249978   2.209   6.495  10.515  0.0175  0.7653 -0.0823
 9496TIP3    H149979   2.175   6.428  10.455 -1.1078  0.8953  0.3777
 9496TIP3    H249980   2.137   6.510  10.577  0.9816  0.9564  1.0274
 9497TIP3   OH249981   0.189   2.547   3.284  0.0910 -0.5391 -0.3507
 9497TIP3    H149982   0.237   2.478   3.330 -1.1908 -1.0826  0.2005
 9497TIP3    H249983   0.166   2.508   3.200  0.1724 -0.4513 -0.4142
 9498TIP3   OH249984   3.271   2.403  14.415 -0.1703 -0.1161  0.0051
 9498TIP3    H149985   3.187   2.430  14.453 -1.0126  0.3930 -2.0292
 9498TIP3    H249986   3.288   2.317  14.452 -2.8740 -1.3473 -1.2792
 9499TIP3   OH249987   0.020   3.441  11.335  1.0229  0.4914  0.2865
 9499TIP3    H149988  -0.023   3.505  11.279  0.7368  0.0790  0.0220
 9499TIP3    H249989   0.020   3.360  11.284  0.8811  0.1396  0.8255
 9500TIP3   OH249990   4.142   6.645   6.510  0.5337 -0.2428  0.4188
 9500TIP3    H149991   4.092   6.726   6.503  1.2384  0.0747 -1.7664
 9500TIP3    H249992   4.076   6.576   6.520 -0.1949  0.3870  0.0076
 9501TIP3   OH249993   4.150   5.217  17.229 -0.7903  0.0008  0.3451
 9501TIP3    H149994   4.223   5.205  17.168 -0.7632  1.9429 -0.0484
 9501TIP3    H249995   4.072   5.216  17.174 -0.9303 -0.3103  0.5468
 9502TIP3   OH249996   5.395   0.795  14.222  0.2050 -0.7867  0.2841
 9502TIP3    H149997   5.443   0.851  14.161 -1.0769  0.5040  0.4125
 9502TIP3    H249998   5.459   0.771  14.288  0.7719  0.6302  0.2838
 9503TIP3   OH249999   3.022   0.332   5.429  0.0363 -0.2521  0.2373
 9503TIP3    H150000   3.042   0.271   5.500 -0.7018  0.4817  1.1112
 9503TIP3    H250001   3.025   0.418   5.472 -1.2323  0.1400 -0.4403
 9504TIP3   OH250002   2.215   0.637   2.205  0.1652  0.5233 -0.2389
 9504TIP3    H150003   2.265   0.683   2.138 -0.2952  1.7300  0.2140
 9504TIP3    H250004   2.269   0.642   2.284 -0.5745  1.6994  0.2127
 9505TIP3   OH250005   5.845   3.342  13.108  0.0819  0.0834  0.3013
 9505TIP3    H150006   5.891   3.323  13.190  1.4759 -1.1912 -0.7153
 9505TIP3    H250007   5.762   3.379  13.136  0.4542 -0.4261  2.3017
 9506TIP3   OH250008   5.635   6.463   5.251 -0.1652 -0.0763  0.7073
 9506TIP3    H150009   5.557   6.518   5.243 -0.5517 -0.6390  0.5610
 9506TIP3    H250010   5.617   6.388   5.196  0.5204 -0.1745  0.6074
 9507TIP3   OH250011   4.959   4.900   1.737  0.0091  0.1939 -0.0102
 9507TIP3    H150012   4.980   4.957   1.811  2.4118  1.6175 -1.6561
 9507TIP3    H250013   4.887   4.945   1.693  0.5497  0.9353 -0.1634
 9508TIP3   OH250014   0.827   3.513   6.136  0.0084  0.2850  0.3987
 9508TIP3    H150015   0.735   3.517   6.161  0.2892  0.7699  1.4383
 9508TIP3    H250016   0.873   3.554   6.210  1.0275  0.3068 -0.2302
 9509TIP3   OH250017   2.320   6.335   2.244  0.1213  0.0806  0.0801
 9509TIP3    H150018   2.291   6.407   2.188  0.1322 -0.2660 -0.3797
 9509TIP3    H250019   2.306   6.256   2.191  0.8751 -0.1842  0.2607
 9510TIP3   OH250020   2.138   0.840   4.849  0.3238  0.5323 -0.1146
 9510TIP3    H150021   2.136   0.759   4.900 -0.2789 -0.1859 -1.2570
 9510TIP3    H250022   2.095   0.904   4.906 -1.6303 -0.5908 -0.2276
 9511TIP3   OH250023   1.052   3.688  16.628  0.1690 -0.2326 -0.3748
 9511TIP3    H150024   1.115   3.756  16.604  0.1810 -0.7586 -1.9289
 9511TIP3    H250025   1.057   3.624  16.557 -1.7298 -0.5502 -0.2832
 9512TIP3   OH250026   3.193   6.786   1.049  0.0117  0.0723  0.3739
 9512TIP3    H150027   3.224   6.831   0.970  0.0846  1.2680  1.0501
 9512TIP3    H250028   3.273   6.768   1.098 -0.0523 -0.4708  0.2816
 9513TIP3   OH250029   2.101   3.861   6.287 -0.1482 -0.4592 -0.4739
 9513TIP3    H150030   2.142   3.943   6.313  0.8936 -1.5329  1.4989
 9513TIP3    H250031   2.032   3.846   6.352  0.5140 -1.7416 -0.0301
 9514TIP3   OH250032   6.520   5.111  17.077  0.4788 -0.2467 -0.6444
 9514TIP3    H150033   6.534   5.017  17.071 -1.3763 -0.8235  2.1819
 9514TIP3    H250034   6.425   5.122  17.078  0.6426  1.7167 -1.3074
 9515TIP3   OH250035   0.868   4.755  12.093  0.2190  0.1384 -0.7135
 9515TIP3    H150036   0.947   4.737  12.041 -0.2560 -2.1929 -0.7655
 9515TIP3    H250037   0.827   4.830  12.050  2.2863  1.3138 -0.7790
 9516TIP3   OH250038   3.604   3.472  12.255 -0.2555 -0.1769  0.0701
 9516TIP3    H150039   3.684   3.419  12.264 -0.6715 -0.7753  0.3696
 9516TIP3    H250040   3.628   3.542  12.195  0.3555 -0.6361 -0.2381
 9517TIP3   OH250041   0.631   6.286   0.946  0.2478  1.0789  0.4510
 9517TIP3    H150042   0.544   6.259   0.974 -0.2703  3.3061  1.2097
 9517TIP3    H250043   0.647   6.236   0.866 -1.4880  0.2238  0.5887
 9518TIP3   OH250044   3.151   4.533   1.409 -0.3611 -0.6763 -0.1678
 9518TIP3    H150045   3.192   4.602   1.461  1.5319 -2.5296  0.9334
 9518TIP3    H250046   3.077   4.504   1.462  0.1672 -0.9701  0.4244
 9519TIP3   OH250047   4.208   2.797  13.716  0.8645 -0.2600  0.0709
 9519TIP3    H150048   4.187   2.872  13.772 -1.3911 -0.5693 -0.2713
 9519TIP3    H250049   4.259   2.739  13.772 -1.5849 -0.7203  2.0250
 9520TIP3   OH250050   2.350   0.284  11.158  0.6751  0.7473 -0.1094
 9520TIP3    H150051   2.438   0.261  11.188  1.1567  0.9634 -1.3086
 9520TIP3    H250052   2.363   0.323  11.072 -0.4681  2.2117  0.3377
 9521TIP3   OH250053   2.952   3.344   4.117  0.0208  0.0607 -0.3567
 9521TIP3    H150054   2.887   3.299   4.063 -0.7155  0.4351  0.1885
 9521TIP3    H250055   2.906   3.422   4.148  0.5986  0.1110  0.3934
 9522TIP3   OH250056   0.226   3.366   2.797 -0.8469 -0.2731  0.6909
 9522TIP3    H150057   0.278   3.427   2.849 -1.5426 -0.3272  1.4751
 9522TIP3    H250058   0.227   3.284   2.847 -1.3433 -0.3920  0.5182
 9523TIP3   OH250059   5.442   5.336  14.356 -0.2046 -0.1825  0.3011
 9523TIP3    H150060   5.468   5.376  14.274 -1.0138  3.0388  1.4747
 9523TIP3    H250061   5.358   5.293  14.337  0.6194 -1.3210 -0.9632
 9524TIP3   OH250062   5.022   6.815   5.934 -0.4854  0.5743  0.2329
 9524TIP3    H150063   5.067   6.731   5.928  0.7881  1.1305  1.3392
 9524TIP3    H250064   4.951   6.800   5.997  1.3765  0.9238  2.5546
 9525TIP3   OH250065   5.188   1.198   5.312 -0.6154  0.1932 -0.0083
 9525TIP3    H150066   5.132   1.271   5.286  0.1245  2.4193  3.8893
 9525TIP3    H250067   5.139   1.154   5.381 -0.2097 -1.9393 -0.9859
 9526TIP3   OH250068   4.576   5.255   1.328 -0.0649 -0.1223 -0.5960
 9526TIP3    H150069   4.669   5.234   1.318  0.7238  1.3583  2.4657
 9526TIP3    H250070   4.542   5.257   1.238  2.5654 -1.7851 -1.7448
 9527TIP3   OH250071   5.854   5.565   3.805 -0.5751 -0.1254  0.0981
 9527TIP3    H150072   5.916   5.632   3.775 -0.5379 -0.2998 -0.2188
 9527TIP3    H250073   5.768   5.605   3.792 -0.6057 -0.5322 -1.1127
 9528TIP3   OH250074   2.270   1.700   0.352 -0.6443  0.4279 -0.3891
 9528TIP3    H150075   2.267   1.636   0.422  0.4246  0.3221 -0.4279
 9528TIP3    H250076   2.271   1.785   0.397  2.9042  0.3470 -0.0896
 9529TIP3   OH250077   5.815   5.220  12.374 -0.3569 -0.2250 -0.0276
 9529TIP3    H150078   5.835   5.200  12.282  0.7117 -1.1774  0.3940
 9529TIP3    H250079   5.822   5.316  12.379 -0.7135 -0.1338 -0.9925
 9530TIP3   OH250080   1.056   3.326  11.508  0.6592 -0.1594 -0.4574
 9530TIP3    H150081   1.125   3.351  11.570 -0.6848  0.8686  0.6795
 9530TIP3    H250082   1.090   3.353  11.422  1.8071  0.0106  0.0327
 9531TIP3   OH250083   0.068   1.999  15.742  0.1026  0.1788 -0.2280
 9531TIP3    H150084   0.009   1.969  15.812 -0.3339  0.7260 -0.3617
 9531TIP3    H250085   0.011   2.011  15.666  0.4429  0.3744 -0.4518
 9532TIP3   OH250086   5.838   3.714   4.075  0.1110 -0.2164 -0.0677
 9532TIP3    H150087   5.880   3.790   4.035 -0.2530  0.0794  0.1055
 9532TIP3    H250088   5.906   3.676   4.131  0.3329 -0.0876 -0.2495
 9533TIP3   OH250089   2.840   6.101   4.818 -0.7376 -0.6152 -0.2424
 9533TIP3    H150090   2.855   6.028   4.878 -0.5260 -1.0892 -0.8675
 9533TIP3    H250091   2.791   6.063   4.745  0.8926 -0.5436 -1.4328
 9534TIP3   OH250092   5.337   1.544   4.124 -0.4717  0.2987  0.1511
 9534TIP3    H150093   5.342   1.518   4.032 -4.7522  1.2897 -0.5905
 9534TIP3    H250094   5.299   1.468   4.168  3.3675 -0.9592  1.7504
 9535TIP3   OH250095   4.778   5.011   1.563  0.6862 -0.7281  0.8483
 9535TIP3    H150096   4.767   5.105   1.553 -3.5269 -1.1423 -0.1455
 9535TIP3    H250097   4.844   4.988   1.498  0.1599  1.2752 -0.4781
 9536TIP3   OH250098   0.228   1.719   3.411 -0.2081  0.0663  0.4260
 9536TIP3    H150099   0.281   1.745   3.335 -0.3928 -1.9909 -0.4678
 9536TIP3    H250100   0.288   1.728   3.485  0.1237  1.6498  0.0112
 9537TIP3   OH250101   5.645   0.858  16.389  0.2060  0.3783 -0.3206
 9537TIP3    H150102   5.703   0.928  16.360 -0.5689  0.1970 -2.5041
 9537TIP3    H250103   5.648   0.794  16.318  0.1681 -1.3906  1.1985
 9538TIP3   OH250104   3.859   3.715  14.536  0.2731  0.3067  0.2261
 9538TIP3    H150105   3.796   3.769  14.487 -0.3519  0.6967  1.4315
 9538TIP3    H250106   3.900   3.776  14.597  0.7901 -0.2531  0.4447
 9539TIP3   OH250107   4.699   6.767  14.155 -0.4946 -0.3071  0.0189
 9539TIP3    H150108   4.640   6.789  14.227 -0.2194  0.4406  0.0191
 9539TIP3    H250109   4.652   6.699  14.106  0.0782 -2.2001  1.9231
 9540TIP3   OH250110   6.652   0.520  16.576  0.0612  0.4039 -0.2599
 9540TIP3    H150111   6.700   0.569  16.643  1.5451 -0.4393 -0.6455
 9540TIP3    H250112   6.655   0.429  16.606  0.1726  0.1060 -1.1306
 9541TIP3   OH250113   2.321   2.244  11.946 -0.1090 -0.2171 -0.1794
 9541TIP3    H150114   2.340   2.176  11.882  2.5689  0.5836 -0.3668
 9541TIP3    H250115   2.379   2.317  11.921  0.9911  0.1662  3.0501
 9542TIP3   OH250116   0.834   6.518   1.426 -0.3883 -0.1353  0.5103
 9542TIP3    H150117   0.925   6.491   1.440 -0.0305  0.3248 -0.7734
 9542TIP3    H250118   0.836   6.567   1.344 -1.9639 -0.8983 -0.0265
 9543TIP3   OH250119   4.318   3.193  14.681 -0.4118  0.4305 -0.8936
 9543TIP3    H150120   4.393   3.149  14.720 -1.4664  0.6006  1.5133
 9543TIP3    H250121   4.272   3.123  14.633 -1.0668 -0.7756  1.3438
 9544TIP3   OH250122   6.583   6.634   1.939 -0.0369 -0.1840  0.0869
 9544TIP3    H150123   6.611   6.562   1.883  0.9303 -0.2916  0.6843
 9544TIP3    H250124   6.488   6.625   1.944 -0.2619  0.3308 -2.1807
 9545TIP3   OH250125   3.032   0.564  15.245  0.2857  0.1884 -0.3788
 9545TIP3    H150126   3.030   0.657  15.267  2.6630 -0.0376  1.0493
 9545TIP3    H250127   3.111   0.553  15.193  1.0300 -1.3111  0.9887
 9546TIP3   OH250128   5.966   0.774   2.855 -0.5413 -0.4755  0.1031
 9546TIP3    H150129   6.011   0.805   2.933 -1.6212  1.4126  0.0622
 9546TIP3    H250130   5.918   0.696   2.883  1.6538 -1.7837  0.4450
 9547TIP3   OH250131   5.807   1.972   2.321  0.5079  0.2858  0.2427
 9547TIP3    H150132   5.880   2.002   2.267  1.1081  0.4831  1.1393
 9547TIP3    H250133   5.736   2.033   2.302  1.0328  0.9616  0.4324
 9548TIP3   OH250134   3.078   2.143   2.369  0.3609  0.2933  0.0681
 9548TIP3    H150135   3.138   2.073   2.342  0.3399  0.4163 -0.2903
 9548TIP3    H250136   3.124   2.188   2.439 -0.3001 -1.1339  1.5094
 9549TIP3   OH250137   0.318   0.129  10.856  0.7569  0.4648  0.3836
 9549TIP3    H150138   0.321   0.035  10.842  0.3296  0.6183 -0.7746
 9549TIP3    H250139   0.235   0.145  10.900  0.8361  0.3063  0.5927
 9550TIP3   OH250140   0.905   1.014   3.762  0.3285 -0.1412 -0.0042
 9550TIP3    H150141   0.971   1.021   3.693  1.0070  1.2730  0.7535
 9550TIP3    H250142   0.953   0.991   3.841 -0.4083 -1.4468  0.1013
 9551TIP3   OH250143   0.645   3.266  14.848 -0.5071 -0.2196  0.4178
 9551TIP3    H150144   0.653   3.360  14.862 -0.1229 -0.4417  1.9730
 9551TIP3    H250145   0.574   3.256  14.785  1.3430  1.1980 -2.0347
 9552TIP3   OH250146   3.447   6.454   1.890  0.5073  0.1430 -0.0545
 9552TIP3    H150147   3.417   6.424   1.804 -1.5128  1.6548  0.0515
 9552TIP3    H250148   3.519   6.395   1.912  1.3325 -0.0815 -2.9273
 9553TIP3   OH250149   0.683   3.365   1.823 -0.2830  0.1341 -0.3595
 9553TIP3    H150150   0.593   3.381   1.851 -0.5230 -2.1899  0.4362
 9553TIP3    H250151   0.675   3.325   1.736 -0.2121 -1.6867  0.4129
 9554TIP3   OH250152   1.518   5.442   2.116  0.4956  0.3988 -0.2698
 9554TIP3    H150153   1.594   5.466   2.169 -0.0412  0.2732  0.5825
 9554TIP3    H250154   1.458   5.401   2.178 -0.6231  1.2443 -0.7554
 9555TIP3   OH250155   1.067   0.065  15.757 -0.9876 -0.0413 -0.6112
 9555TIP3    H150156   1.066   0.160  15.749 -2.8099  0.0167 -0.2221
 9555TIP3    H250157   0.987   0.044  15.806  0.5645 -1.6205  1.4071
 9556TIP3   OH250158   4.789   4.807   5.112  0.2814 -0.0070  0.4547
 9556TIP3    H150159   4.863   4.865   5.127  0.2470  0.5071 -1.1995
 9556TIP3    H250160   4.801   4.736   5.175  2.3954 -0.1268 -0.0153
 9557TIP3   OH250161   5.439   4.538   6.037 -0.3681 -0.3923 -0.1640
 9557TIP3    H150162   5.523   4.538   6.084 -0.1978  0.2129 -0.4558
 9557TIP3    H250163   5.424   4.446   6.014  0.1758 -0.5147 -0.0427
 9558TIP3   OH250164   4.558   6.809  12.510  0.6027 -0.1875 -0.2952
 9558TIP3    H150165   4.487   6.853  12.557  0.4791 -0.1769 -0.4929
 9558TIP3    H250166   4.566   6.724  12.555  0.6312 -0.0893 -0.1148
 9559TIP3   OH250167   5.379   0.395   4.620  0.1256 -0.1495  0.3228
 9559TIP3    H150168   5.359   0.479   4.662 -1.4398 -0.6729  0.6799
 9559TIP3    H250169   5.472   0.381   4.638  1.0139  2.5241 -1.5771
 9560TIP3   OH250170   3.378   5.578  16.227  0.7063  0.6027 -0.1013
 9560TIP3    H150171   3.299   5.620  16.261 -0.1294  0.6795 -1.9861
 9560TIP3    H250172   3.429   5.556  16.304 -1.9583 -1.0920  1.3238
 9561TIP3   OH250173   5.599   3.031   2.995 -0.2407  0.4411  0.7448
 9561TIP3    H150174   5.536   3.102   2.984  0.3395  0.8344 -0.1374
 9561TIP3    H250175   5.651   3.032   2.915 -1.7561 -2.5154 -0.4536
 9562TIP3   OH250176   1.206   6.687  15.868 -0.2275  0.5962  0.0282
 9562TIP3    H150177   1.224   6.737  15.947 -0.7275  1.1754 -0.2186
 9562TIP3    H250178   1.156   6.746  15.812 -2.2987 -0.7092  0.3973
 9563TIP3   OH250179   1.923   3.777   5.546  0.0404 -0.1394 -0.5120
 9563TIP3    H150180   1.911   3.871   5.559 -1.0709 -0.4346  0.8275
 9563TIP3    H250181   1.848   3.751   5.492 -0.1017 -0.3833 -0.2003
 9564TIP3   OH250182   0.455   1.887   5.639 -0.1988  0.2732 -0.4250
 9564TIP3    H150183   0.466   1.795   5.613  1.9244  0.2459  0.4233
 9564TIP3    H250184   0.388   1.884   5.707 -0.3653 -0.6008 -0.6154
 9565TIP3   OH250185   3.980   5.035  11.480  0.1728 -0.4864 -0.1011
 9565TIP3    H150186   3.937   4.953  11.503 -1.2354  0.3235  0.2765
 9565TIP3    H250187   3.938   5.063  11.399 -1.0710  1.0057  0.9864
 9566TIP3   OH250188   3.074   3.972   3.919 -0.4904 -0.4110  0.6644
 9566TIP3    H150189   3.002   4.033   3.932 -1.1052 -0.8609 -0.4381
 9566TIP3    H250190   3.095   3.940   4.007 -1.6469 -0.2747  1.0082
 9567TIP3   OH250191   3.835   2.834   5.936 -0.2407 -0.0997  0.3815
 9567TIP3    H150192   3.750   2.845   5.978  0.2698  0.7901  1.2027
 9567TIP3    H250193   3.898   2.873   5.997  0.7759 -0.8438 -0.1579
 9568TIP3   OH250194   5.621   1.331  13.524  0.4122 -0.0221 -0.0612
 9568TIP3    H150195   5.672   1.349  13.444  2.0786 -1.4007  0.6312
 9568TIP3    H250196   5.668   1.376  13.593  1.3091 -2.0654  0.7432
 9569TIP3   OH250197   0.735   3.017  16.694  0.5192 -0.1265 -0.4067
 9569TIP3    H150198   0.755   2.925  16.706  0.6487 -0.1987 -1.1331
 9569TIP3    H250199   0.821   3.059  16.684  0.4613  0.0743 -0.0941
 9570TIP3   OH250200   5.177   2.694  13.001 -0.0494  0.6823 -0.2109
 9570TIP3    H150201   5.256   2.646  13.027 -0.6135 -0.1056  0.0910
 9570TIP3    H250202   5.130   2.708  13.083 -0.6076  0.4387 -0.4887
 9571TIP3   OH250203   4.284   5.118  12.717 -0.1099 -0.6211 -0.1762
 9571TIP3    H150204   4.325   5.204  12.720 -2.0714  0.4108 -1.3699
 9571TIP3    H250205   4.191   5.134  12.730 -0.4263 -2.6950  0.6222
 9572TIP3   OH250206   5.395   0.019   1.805 -0.0135  0.2011 -0.2651
 9572TIP3    H150207   5.437  -0.018   1.883 -0.0922 -1.1242 -0.8079
 9572TIP3    H250208   5.301   0.021   1.827 -0.1723 -1.1841 -0.6583
 9573TIP3   OH250209   3.452   6.464  10.992  0.4378  0.3870  0.1884
 9573TIP3    H150210   3.527   6.451  10.934 -0.0018  1.6196 -0.7079
 9573TIP3    H250211   3.478   6.423  11.074  1.2501 -1.0389 -0.7345
 9574TIP3   OH250212   2.638   4.002  14.028 -0.1500  0.4463 -0.0009
 9574TIP3    H150213   2.570   4.070  14.032 -0.2644  0.4921 -1.7734
 9574TIP3    H250214   2.678   4.002  14.115 -0.0332  2.9029 -0.0033
 9575TIP3   OH250215   3.950   0.959  11.903  0.8938 -0.4125 -0.5885
 9575TIP3    H150216   3.977   1.032  11.847  2.2146 -1.3083 -1.1469
 9575TIP3    H250217   3.871   0.924  11.860 -1.4919  2.3452  1.1709
 9576TIP3   OH250218   4.613   6.596   4.583  0.3346  0.2394 -0.3853
 9576TIP3    H150219   4.579   6.506   4.583  0.0247  0.3474  0.5635
 9576TIP3    H250220   4.695   6.591   4.631  0.1870  0.5088 -0.1022
 9577TIP3   OH250221   5.715   5.902  13.843 -0.4331  0.5764 -0.3331
 9577TIP3    H150222   5.680   5.834  13.901 -0.3435  1.3851  0.6940
 9577TIP3    H250223   5.754   5.853  13.771 -1.6524 -0.4206 -0.3584
 9578TIP3   OH250224   4.174   0.081  16.188 -0.5711 -0.1760 -0.1419
 9578TIP3    H150225   4.243   0.085  16.254 -0.9710  1.0931  0.2223
 9578TIP3    H250226   4.117   0.010  16.217  0.4476 -1.0889 -0.3250
 9579TIP3   OH250227   4.921   5.469   4.725 -0.2646 -0.8058  0.0854
 9579TIP3    H150228   4.859   5.506   4.788  0.3818  0.0720  0.2199
 9579TIP3    H250229   4.914   5.526   4.648  1.0374 -0.1273  0.4434
 9580TIP3   OH250230   1.656   1.990  14.961 -0.2250 -0.3197  0.8756
 9580TIP3    H150231   1.739   2.039  14.960 -0.3882 -0.0465  0.4921
 9580TIP3    H250232   1.590   2.055  14.937 -0.6443 -0.3692  1.8196
 9581TIP3   OH250233   4.456   5.369   6.006  0.2202  0.1205 -0.6762
 9581TIP3    H150234   4.417   5.304   6.065 -2.0394  0.1400 -2.0178
 9581TIP3    H250235   4.411   5.451   6.027 -0.8513  0.0729 -2.5172
 9582TIP3   OH250236   3.056   6.039   2.203 -0.4427 -0.5843 -0.0159
 9582TIP3    H150237   3.028   5.952   2.177 -0.5632 -1.0050  1.4346
 9582TIP3    H250238   3.094   6.027   2.290  2.2817  0.3250 -0.9998
 9583TIP3   OH250239   5.445   2.549  11.699  0.7866  0.2678 -0.3176
 9583TIP3    H150240   5.462   2.593  11.782 -0.8688 -0.0727  0.2310
 9583TIP3    H250241   5.516   2.486  11.690  0.0430 -0.9561  1.7606
 9584TIP3   OH250242   3.531   5.611   3.451  0.3396 -0.3626 -0.0481
 9584TIP3    H150243   3.625   5.598   3.463  0.7947  0.6002 -2.1270
 9584TIP3    H250244   3.520   5.706   3.445 -0.7522 -0.4689 -0.0661
 9585TIP3   OH250245   1.691   0.294  10.829  0.2959 -1.0234  0.1931
 9585TIP3    H150246   1.650   0.209  10.842 -1.0793 -0.4274 -0.0144
 9585TIP3    H250247   1.620   0.351  10.799  0.7879  0.6224  1.9213
 9586TIP3   OH250248   4.121   0.778  17.063  0.0659  0.0003  0.3589
 9586TIP3    H150249   4.197   0.837  17.059  0.4441 -0.5121 -2.5586
 9586TIP3    H250250   4.067   0.813  17.133  1.7893  1.9082  0.8341
 9587TIP3   OH250251   1.977   2.020  11.492 -0.4664  0.3024  0.2558
 9587TIP3    H150252   1.886   2.047  11.477 -0.4268  0.4737  0.3187
 9587TIP3    H250253   2.019   2.028  11.406 -0.1868  1.4862  0.4845
 9588TIP3   OH250254   5.017   5.990   5.576  0.0611 -0.4265  0.7916
 9588TIP3    H150255   5.052   6.077   5.557 -0.4044 -0.1258  1.2804
 9588TIP3    H250256   5.050   5.969   5.663  0.3880 -0.8590  0.5680
 9589TIP3   OH250257   5.894   4.007   0.232  0.0873  0.2309 -0.4684
 9589TIP3    H150258   5.817   3.967   0.193 -1.0714  1.2824  0.6693
 9589TIP3    H250259   5.904   3.963   0.316  1.4014 -0.6529 -1.0561
 9590TIP3   OH250260   5.795   5.475  10.785  0.4319  0.0286  0.2292
 9590TIP3    H150261   5.835   5.521  10.711  3.2826 -1.0984  0.9249
 9590TIP3    H250262   5.835   5.516  10.862 -2.1675  0.9081  1.2084
 9591TIP3   OH250263   4.277   2.718  13.328 -0.4828 -0.0462  0.0691
 9591TIP3    H150264   4.257   2.653  13.260 -1.9127  0.8198 -0.3921
 9591TIP3    H250265   4.369   2.705  13.347 -0.0046 -0.2505 -2.1326
 9592TIP3   OH250266   5.588   2.602   1.228  0.1539 -0.1523 -0.4000
 9592TIP3    H150267   5.629   2.684   1.201 -1.8292  0.7010 -1.0243
 9592TIP3    H250268   5.506   2.599   1.178  0.7265 -3.1523 -1.3652
 9593TIP3   OH250269   1.232   5.909   3.214  0.7222  0.2928  0.3550
 9593TIP3    H150270   1.224   5.863   3.130  0.9132 -0.0349  0.5093
 9593TIP3    H250271   1.199   5.997   3.197 -0.5265 -0.1731  0.2902
 9594TIP3   OH250272   1.983   6.362  14.446 -0.4001 -0.0566 -0.1007
 9594TIP3    H150273   2.032   6.280  14.446 -1.7058 -0.8700  0.2539
 9594TIP3    H250274   1.945   6.367  14.359  1.1390  1.1267 -0.7549
 9595TIP3   OH250275   1.291   0.114  13.464  0.0289  0.0363 -0.1977
 9595TIP3    H150276   1.213   0.084  13.415  0.0871  3.1256 -2.4763
 9595TIP3    H250277   1.259   0.185  13.519  0.7428 -0.8083  1.3896
 9596TIP3   OH250278   1.880   0.077  14.437  0.0650 -0.0739  0.3925
 9596TIP3    H150279   1.831   0.060  14.357  2.1383  2.2417 -1.5402
 9596TIP3    H250280   1.841   0.158  14.473  2.4182  2.0001 -1.3595
 9597TIP3   OH250281   5.019   0.166  11.630 -0.0802  0.0011 -0.0836
 9597TIP3    H150282   4.986   0.245  11.589 -0.1595  0.3018  0.5461
 9597TIP3    H250283   4.947   0.103  11.623 -0.7470  0.5960  1.1229
 9598TIP3   OH250284   1.267   3.698   2.772 -0.2162  0.0643 -0.2398
 9598TIP3    H150285   1.234   3.612   2.796 -1.3680  0.3523 -0.7176
 9598TIP3    H250286   1.192   3.743   2.734  0.8824  0.5188 -2.0163
 9599TIP3   OH250287   4.898   1.762   1.270 -0.3694  0.0598  0.0954
 9599TIP3    H150288   4.811   1.756   1.309 -1.1318  1.3803 -1.2824
 9599TIP3    H250289   4.903   1.688   1.210 -0.2490 -0.4389  0.7207
 9600TIP3   OH250290   3.907   0.551   0.512 -0.3789 -0.3994 -0.4639
 9600TIP3    H150291   3.974   0.483   0.505  2.4117  2.1506 -0.7424
 9600TIP3    H250292   3.885   0.573   0.422  0.7563  0.7991 -0.4866
 9601TIP3   OH250293   1.438   2.302  13.435 -0.3763  0.0920 -0.1598
 9601TIP3    H150294   1.533   2.312  13.441 -0.5199  1.4966  0.1874
 9601TIP3    H250295   1.404   2.364  13.500 -1.5505  0.3841 -1.0333
 9602TIP3   OH250296   3.594   4.444  13.511  0.3580 -0.0885 -0.3392
 9602TIP3    H150297   3.564   4.425  13.422  0.0313 -2.0101  0.1530
 9602TIP3    H250298   3.541   4.519  13.539  1.3191  1.3568 -2.1628
 9603TIP3   OH250299   4.565   5.399  15.839  0.4015  0.1932 -0.1432
 9603TIP3    H150300   4.572   5.378  15.746 -0.6005  2.4909 -0.8180
 9603TIP3    H250301   4.485   5.354  15.868 -0.6495  1.3963 -1.0540
 9604TIP3   OH250302   6.775   6.580   0.246 -0.1809 -0.1089 -0.0255
 9604TIP3    H150303   6.788   6.601   0.153  0.1358  1.9609  0.4457
 9604TIP3    H250304   6.858   6.605   0.288 -0.4184 -0.7661  0.8636
 9605TIP3   OH250305   0.251   1.352   5.315  0.0482 -0.2871 -0.2102
 9605TIP3    H150306   0.244   1.324   5.406  0.5440 -0.2128 -0.1435
 9605TIP3    H250307   0.245   1.271   5.264 -1.0989 -0.2453 -0.1671
 9606TIP3   OH250308   2.372   2.822   5.462  0.1372  0.8674 -0.4978
 9606TIP3    H150309   2.333   2.861   5.540 -2.4671  1.5122 -1.9940
 9606TIP3    H250310   2.323   2.741   5.448  1.8134 -0.1875 -0.4853
 9607TIP3   OH250311   6.553   4.819  15.468 -0.4782  0.5386 -0.0148
 9607TIP3    H150312   6.556   4.900  15.417  0.0326  1.3173  1.2007
 9607TIP3    H250313   6.629   4.825  15.527  0.6286 -1.6376 -1.0690
 9608TIP3   OH250314   3.519   1.940  13.561  0.3388  0.4716  0.2024
 9608TIP3    H150315   3.504   1.864  13.617 -1.3251 -0.1928 -1.0664
 9608TIP3    H250316   3.453   2.004  13.588  2.5514  2.1140  2.1721
 9609TIP3   OH250317   1.459   4.572  14.490  0.0041 -0.1494 -0.4664
 9609TIP3    H150318   1.526   4.561  14.422 -1.6180 -1.8116 -1.9006
 9609TIP3    H250319   1.468   4.494  14.544 -2.7960 -2.1824 -2.6458
 9610TIP3   OH250320   0.572   3.098  14.026 -0.0308 -0.0809 -0.0148
 9610TIP3    H150321   0.601   3.019  14.070  0.0068  0.5955  1.2278
 9610TIP3    H250322   0.654   3.146  14.006 -0.1262  0.4441  0.8126
 9611TIP3   OH250323   4.312   2.738  12.071 -0.1023 -0.4380 -0.0860
 9611TIP3    H150324   4.309   2.709  12.162 -0.6242  1.2711  0.4893
 9611TIP3    H250325   4.405   2.756  12.055 -0.1103  0.0732  0.4033
 9612TIP3   OH250326   0.137   6.492   1.362 -0.1984 -0.2841 -0.1616
 9612TIP3    H150327   0.177   6.524   1.443  0.7722  0.5740 -0.9499
 9612TIP3    H250328   0.046   6.475   1.385  0.1423 -0.4026  1.1958
 9613TIP3   OH250329   1.890   4.150  13.122  0.9544 -0.2483  0.6687
 9613TIP3    H150330   1.962   4.207  13.149  0.4477  1.5902 -1.5196
 9613TIP3    H250331   1.906   4.133  13.030 -1.2234 -0.0212  0.1828
 9614TIP3   OH250332   4.969   0.643  14.121 -0.0010  0.7741 -0.1345
 9614TIP3    H150333   4.886   0.682  14.095  0.3757  0.9018 -1.1652
 9614TIP3    H250334   4.968   0.555  14.083  0.4574  0.8802 -0.4015
 9615TIP3   OH250335   2.255   1.950   0.058 -0.3794 -0.5990  0.3873
 9615TIP3    H150336   2.212   2.020   0.009 -0.6948 -0.8754  0.2680
 9615TIP3    H250337   2.334   1.930   0.007  0.0496  0.1138  0.7673
 9616TIP3   OH250338   1.340   5.482   2.555  0.0737 -0.1729 -0.0131
 9616TIP3    H150339   1.366   5.573   2.547 -0.3521 -0.1621 -1.4228
 9616TIP3    H250340   1.305   5.458   2.469 -0.0742 -1.5846  0.4042
 9617TIP3   OH250341   5.160   3.370   6.235 -0.1845 -0.1344 -0.1189
 9617TIP3    H150342   5.223   3.437   6.262 -0.9039  0.5654 -0.1182
 9617TIP3    H250343   5.162   3.305   6.306  3.2654 -2.1370 -1.8311
 9618TIP3   OH250344   3.925   6.647  15.940  0.1573  0.3448 -0.1764
 9618TIP3    H150345   3.921   6.603  15.855 -1.6747 -0.4494  0.2639
 9618TIP3    H250346   3.995   6.603  15.987  2.2897  1.8283 -1.7543
 9619TIP3   OH250347   3.662   0.768   0.531 -0.6864 -0.3498 -0.1897
 9619TIP3    H150348   3.609   0.815   0.466  0.0443 -1.2753 -1.5078
 9619TIP3    H250349   3.690   0.688   0.486  0.7754 -0.4905  0.9031
 9620TIP3   OH250350   5.976   6.352   2.692  0.6222 -0.6306 -0.5129
 9620TIP3    H150351   5.995   6.349   2.599  1.3886  0.2273 -0.3946
 9620TIP3    H250352   6.060   6.374   2.733 -0.1457  1.0649  0.2039
 9621TIP3   OH250353   6.367   5.710  16.833  0.1518 -0.1162  0.6205
 9621TIP3    H150354   6.400   5.766  16.904 -0.7125 -1.1998  1.9388
 9621TIP3    H250355   6.304   5.765  16.786  0.5952  0.5622  0.8047
 9622TIP3   OH250356   2.783   4.140   0.358  0.5640  0.3721  0.6126
 9622TIP3    H150357   2.757   4.136   0.450  2.1982  1.9171  1.1989
 9622TIP3    H250358   2.702   4.162   0.311 -0.0247  0.9623  1.8523
 9623TIP3   OH250359   2.896   4.347   4.522 -0.1119 -0.0228 -0.2281
 9623TIP3    H150360   2.969   4.400   4.551 -1.8267  1.2430  2.0364
 9623TIP3    H250361   2.921   4.257   4.545  0.0050  0.5853  2.3013
 9624TIP3   OH250362   0.867   0.732   2.817 -0.4282  0.0609 -0.6298
 9624TIP3    H150363   0.888   0.811   2.867 -1.0364  0.2753 -0.7146
 9624TIP3    H250364   0.781   0.706   2.849 -0.7223  0.0689 -1.4181
 9625TIP3   OH250365   1.173   3.619   4.779  0.1221 -0.0129 -0.2483
 9625TIP3    H150366   1.113   3.682   4.739  0.6963 -0.3112 -1.6161
 9625TIP3    H250367   1.221   3.582   4.706  0.3299 -1.5064  0.6145
 9626TIP3   OH250368   5.037   6.022   2.916 -0.2243  0.3869  0.4992
 9626TIP3    H150369   4.982   6.095   2.886  0.1480 -0.0168 -1.3307
 9626TIP3    H250370   5.018   6.014   3.009 -0.7674  2.3921  0.6193
 9627TIP3   OH250371   6.066   1.712  14.617  0.2715  0.1251 -0.4896
 9627TIP3    H150372   6.124   1.636  14.614 -0.3737 -0.3899 -0.1024
 9627TIP3    H250373   6.066   1.739  14.709  0.4464  0.5533 -0.6137
 9628TIP3   OH250374   3.177   0.125  16.528 -0.2252 -0.0502  0.4381
 9628TIP3    H150375   3.198   0.159  16.614  1.1380 -1.5102  0.7187
 9628TIP3    H250376   3.150   0.202  16.478  1.9076  1.3320  1.2715
 9629TIP3   OH250377   5.312   0.231  15.876  0.0622 -0.0500 -0.3541
 9629TIP3    H150378   5.370   0.188  15.813  1.6549  0.2685  0.8194
 9629TIP3    H250379   5.259   0.291  15.824  0.2459 -0.9082 -1.5692
 9630TIP3   OH250380   6.608   5.173  10.749  0.3768 -0.6502 -0.4995
 9630TIP3    H150381   6.520   5.202  10.724  0.3921 -0.3028 -0.1637
 9630TIP3    H250382   6.596   5.129  10.833  1.0313  2.9778  1.7196
 9631TIP3   OH250383   0.839   1.401   5.801 -0.2180 -0.3864 -0.3472
 9631TIP3    H150384   0.789   1.456   5.741  0.3765  0.9931  0.3661
 9631TIP3    H250385   0.914   1.455   5.827  0.5230 -1.6286  0.2087
 9632TIP3   OH250386   2.470   3.515   2.917  0.2511  0.0991  0.0376
 9632TIP3    H150387   2.547   3.464   2.895  0.2580 -0.0547  0.4061
 9632TIP3    H250388   2.469   3.587   2.854 -1.3296 -1.8857 -2.3987
 9633TIP3   OH250389   6.658   0.242  16.643 -0.0612 -0.1863  0.4739
 9633TIP3    H150390   6.726   0.236  16.711  0.5723  0.6352 -0.0710
 9633TIP3    H250391   6.577   0.219  16.689  0.1440  1.6638  1.8536
 9634TIP3   OH250392   2.051   6.311   1.863 -0.1545 -0.1927 -0.1433
 9634TIP3    H150393   2.028   6.294   1.954 -1.7395  0.3964 -0.3921
 9634TIP3    H250394   2.072   6.404   1.861  1.7575 -0.5956 -0.0488
 9635TIP3   OH250395   0.871   2.793   3.964  0.4648 -0.3835  0.6511
 9635TIP3    H150396   0.821   2.718   3.996 -2.1993  1.4429  1.0555
 9635TIP3    H250397   0.850   2.797   3.871  3.5891 -2.2206 -0.2876
 9636TIP3   OH250398   4.719   2.572   4.030  0.0192  0.0216 -0.1337
 9636TIP3    H150399   4.763   2.490   4.007 -1.3236 -0.6714 -0.3536
 9636TIP3    H250400   4.635   2.568   3.984  0.2011  1.8558 -0.7062
 9637TIP3   OH250401   6.272   5.048   5.583 -0.1763  0.1581  0.0359
 9637TIP3    H150402   6.244   5.019   5.496 -0.7682 -0.9297  0.5666
 9637TIP3    H250403   6.193   5.087   5.621  0.1146  0.7488  0.0422
 9638TIP3   OH250404   0.275   3.068   4.452 -0.2642 -0.2929 -0.4481
 9638TIP3    H150405   0.260   3.024   4.536  0.4062  0.0437 -0.1430
 9638TIP3    H250406   0.265   3.000   4.386  0.4017 -0.8281 -0.0039
 9639TIP3   OH250407   2.632   1.164  16.027  0.6363 -0.2791  0.5245
 9639TIP3    H150408   2.611   1.189  15.937  0.8359 -0.7680  0.3342
 9639TIP3    H250409   2.566   1.207  16.081 -0.1849 -0.9030  0.0384
 9640TIP3   OH250410   0.507   4.035  12.247 -0.0847  0.1289 -0.7348
 9640TIP3    H150411   0.530   3.957  12.298  1.3827  1.3638  0.5917
 9640TIP3    H250412   0.438   4.078  12.298  0.6860  0.8384 -0.2488
 9641TIP3   OH250413   2.378   1.227  11.809  0.2822  0.1266 -0.1014
 9641TIP3    H150414   2.321   1.173  11.862  1.0226 -0.9475 -0.3578
 9641TIP3    H250415   2.384   1.181  11.725 -1.5745  2.2192 -1.5109
 9642TIP3   OH250416   1.914   6.303   1.605 -0.4794 -0.9113 -0.6397
 9642TIP3    H150417   1.968   6.261   1.672 -1.4963 -0.5571  0.4431
 9642TIP3    H250418   1.836   6.248   1.600 -1.8617  0.7657  0.8468
 9643TIP3   OH250419   3.820   4.279  16.000  0.1105  0.1782  0.1439
 9643TIP3    H150420   3.899   4.327  16.026  1.0578 -1.1457 -0.2010
 9643TIP3    H250421   3.843   4.187  16.009 -0.5450 -0.3112 -2.3722
 9644TIP3   OH250422   5.845   4.692  17.039  0.2456  0.2729 -0.3730
 9644TIP3    H150423   5.799   4.614  17.009  0.4219  0.2203 -0.5085
 9644TIP3    H250424   5.858   4.745  16.960  0.7861  0.0934 -0.4072
 9645TIP3   OH250425   5.607   4.008   6.423  0.2745 -0.1166 -0.0441
 9645TIP3    H150426   5.691   4.048   6.401  0.2797  0.1217  0.3895
 9645TIP3    H250427   5.551   4.082   6.445 -0.2630 -0.2250 -1.0096
 9646TIP3   OH250428   1.022   6.565  12.087  0.6879 -0.0743 -0.1642
 9646TIP3    H150429   0.994   6.523  12.168 -0.6391  0.7786 -0.1359
 9646TIP3    H250430   1.114   6.543  12.078  0.3266 -1.9562  0.4466
 9647TIP3   OH250431   3.131   4.099  15.401 -0.3470  0.7726  0.0094
 9647TIP3    H150432   3.106   4.065  15.315 -2.3681  2.9554 -0.3644
 9647TIP3    H250433   3.129   4.022  15.458 -2.2781 -0.1965 -1.2459
 9648TIP3   OH250434   0.372   5.664   4.522 -0.1343 -0.1351  0.6635
 9648TIP3    H150435   0.357   5.758   4.527  0.0010 -0.0553 -0.3465
 9648TIP3    H250436   0.467   5.655   4.515 -0.2612 -0.1928 -1.8154
 9649TIP3   OH250437   0.826   1.247   4.931  0.1753  0.1549 -0.3969
 9649TIP3    H150438   0.811   1.226   4.839  0.0677 -1.3735 -0.0636
 9649TIP3    H250439   0.920   1.266   4.936  0.1102  0.6135 -0.8816
 9650TIP3   OH250440   3.739   3.393   1.448  0.2964 -0.5152 -0.4396
 9650TIP3    H150441   3.834   3.399   1.454  0.1623  0.8223  1.9702
 9650TIP3    H250442   3.709   3.417   1.536 -2.3293  1.2016 -1.6801
 9651TIP3   OH250443   3.859   0.730   4.431 -0.6121  0.2374 -0.0060
 9651TIP3    H150444   3.948   0.719   4.467 -0.5999 -0.4975 -0.2494
 9651TIP3    H250445   3.862   0.815   4.388  0.5296 -0.5184 -1.5423
 9652TIP3   OH250446   5.693   6.367   1.902  0.1147  0.0262 -0.3133
 9652TIP3    H150447   5.643   6.439   1.864 -0.9837 -0.4069  0.2797
 9652TIP3    H250448   5.783   6.383   1.873 -0.2009  1.3217 -0.6493
 9653TIP3   OH250449   1.119   3.639  12.832  0.3060 -0.2646 -0.3687
 9653TIP3    H150450   1.117   3.650  12.737 -1.4500 -1.5139 -0.5200
 9653TIP3    H250451   1.067   3.711  12.867  2.4351  1.2637 -0.1701
 9654TIP3   OH250452   5.343   0.107  15.492 -0.0544  0.4208 -0.0678
 9654TIP3    H150453   5.318   0.053  15.417 -0.5469 -0.8895  1.0030
 9654TIP3    H250454   5.287   0.184  15.485 -0.9236 -0.2196 -0.4231
 9655TIP3   OH250455   6.278   6.208  10.933  0.1074 -0.2785  0.4672
 9655TIP3    H150456   6.245   6.297  10.920  0.6956  0.2066  1.9887
 9655TIP3    H250457   6.201   6.152  10.923 -0.4600  0.4926  0.4156
 9656TIP3   OH250458   3.889   5.080   0.676  0.4133 -0.2048  0.2691
 9656TIP3    H150459   3.835   5.005   0.698 -0.6144  0.1871 -0.8146
 9656TIP3    H250460   3.845   5.155   0.717  2.3043 -0.3099  2.7571
 9657TIP3   OH250461   0.159   4.619  15.845  0.1095 -0.1979 -0.4433
 9657TIP3    H150462   0.198   4.696  15.885 -0.8495  0.3326 -0.4913
 9657TIP3    H250463   0.211   4.546  15.877  1.3235  0.5086 -0.7742
 9658TIP3   OH250464   1.956   4.240  11.082 -0.5026  0.2893  0.9293
 9658TIP3    H150465   2.028   4.260  11.023 -1.5742  0.0116 -0.5398
 9658TIP3    H250466   1.928   4.326  11.115  0.1552  0.4395  1.1122
 9659TIP3   OH250467   4.750   2.881  14.218 -0.2350 -0.0364  0.1581
 9659TIP3    H150468   4.832   2.927  14.197 -0.4207  0.5524  0.7132
 9659TIP3    H250469   4.684   2.924  14.163 -0.3077 -0.0191  0.2603
 9660TIP3   OH250470   0.033   3.145  13.446 -0.5336 -0.0502 -0.4322
 9660TIP3    H150471   0.125   3.125  13.431 -0.2131  1.1272 -0.1431
 9660TIP3    H250472   0.025   3.155  13.540 -0.7895  0.6058 -0.5199
 9661TIP3   OH250473   2.547   5.029   2.535  0.1389  0.1555 -0.1351
 9661TIP3    H150474   2.497   4.947   2.539 -0.1477  0.3733  1.0888
 9661TIP3    H250475   2.497   5.090   2.588  2.0467  0.1860  1.7556
 9662TIP3   OH250476   2.054   1.905  14.893  0.0237  0.4722  0.1670
 9662TIP3    H150477   1.989   1.935  14.829  0.9316  2.4970  0.1353
 9662TIP3    H250478   2.137   1.909  14.846  0.4064 -0.5358  0.7147
 9663TIP3   OH250479   2.518   4.705   2.270 -0.3132 -0.8124 -0.6103
 9663TIP3    H150480   2.492   4.739   2.355 -0.0698 -2.7497  0.2970
 9663TIP3    H250481   2.438   4.705   2.218 -0.4303  0.5274 -0.4683
 9664TIP3   OH250482   2.584   6.266  12.018  0.4348 -0.1503 -0.3790
 9664TIP3    H150483   2.635   6.346  12.011 -0.7274  0.4703 -2.8324
 9664TIP3    H250484   2.543   6.270  12.105  0.4439  1.8774 -0.4383
 9665TIP3   OH250485   5.708   3.169   6.125 -0.0845 -0.1928  0.1233
 9665TIP3    H150486   5.705   3.190   6.218 -2.0815 -2.3207  0.6139
 9665TIP3    H250487   5.631   3.213   6.088  0.0217 -0.3518 -0.2951
 9666TIP3   OH250488   2.383   4.442   4.642  0.2181  0.1553 -0.2554
 9666TIP3    H150489   2.456   4.464   4.584  0.9705  0.7821  0.9012
 9666TIP3    H250490   2.367   4.349   4.625  1.8961 -0.2360  0.1150
 9667TIP3   OH250491   5.831   2.728   1.762  0.0707  0.3016 -0.4373
 9667TIP3    H150492   5.923   2.707   1.775  0.1860  0.1845 -1.3933
 9667TIP3    H250493   5.798   2.658   1.704 -0.6899  0.1780  0.1187
 9668TIP3   OH250494   3.998   4.778   3.872 -0.2630 -0.4348  0.1998
 9668TIP3    H150495   4.009   4.815   3.784  1.4503  0.2455  0.6442
 9668TIP3    H250496   4.020   4.685   3.862 -1.5434 -0.6966 -0.3474
 9669TIP3   OH250497   0.938   2.121  15.075 -0.9838 -0.2827  0.1944
 9669TIP3    H150498   0.880   2.192  15.104 -0.2913  0.1864  0.4651
 9669TIP3    H250499   0.958   2.142  14.984 -1.3656 -0.5368  0.0492
 9670TIP3   OH250500   0.758   3.009  14.852  0.6390  0.1172  0.3751
 9670TIP3    H150501   0.799   2.976  14.772 -0.9229 -2.4998  0.5437
 9670TIP3    H250502   0.693   3.072  14.822 -0.2354 -1.1616 -0.5272
 9671TIP3   OH250503   3.210   3.252  14.053 -0.8987  0.5381 -0.0010
 9671TIP3    H150504   3.201   3.312  14.127  0.3064  0.3954  0.2751
 9671TIP3    H250505   3.187   3.305  13.977 -0.4506  1.1829  0.3010
 9672TIP3   OH250506   4.579   5.218   0.315  0.2967 -0.1968  0.0278
 9672TIP3    H150507   4.518   5.288   0.337  1.3126  1.2315 -1.4330
 9672TIP3    H250508   4.648   5.262   0.265  0.9110 -2.2755 -1.0516
 9673TIP3   OH250509   2.233   4.165   6.184  0.6482  0.3147 -0.5304
 9673TIP3    H150510   2.293   4.092   6.201  3.9284  2.6936 -0.8595
 9673TIP3    H250511   2.223   4.207   6.269 -1.5706 -0.6107 -0.2553
 9674TIP3   OH250512   0.947   5.811  15.808 -0.3921 -0.1862 -0.1383
 9674TIP3    H150513   0.905   5.837  15.727  0.4575  0.6184 -0.3327
 9674TIP3    H250514   0.875   5.804  15.871 -0.7555  2.0874 -0.2233
 9675TIP3   OH250515   4.974   1.089  12.552  0.9091  0.3512 -0.4501
 9675TIP3    H150516   5.006   1.080  12.642 -0.3633  0.2237  0.0176
 9675TIP3    H250517   5.044   1.134  12.505  1.4612  0.7009  0.6840
 9676TIP3   OH250518   3.669   3.786  16.397  0.0918  0.0102 -0.8729
 9676TIP3    H150519   3.709   3.788  16.310 -1.5396  0.9061 -1.6487
 9676TIP3    H250520   3.578   3.762  16.381  0.0870 -1.2545  0.7604
 9677TIP3   OH250521   6.346   5.805  11.733  0.1542  0.3304 -0.0036
 9677TIP3    H150522   6.335   5.740  11.803 -0.8977  0.9598  0.4219
 9677TIP3    H250523   6.305   5.764  11.657 -2.2397  1.2176  0.7205
 9678TIP3   OH250524   3.045   6.001   3.425  0.1156  0.2572  0.2914
 9678TIP3    H150525   3.038   5.917   3.380  2.0463 -0.1229  0.5846
 9678TIP3    H250526   2.989   5.992   3.503  2.3682 -1.8838  1.8379
 9679TIP3   OH250527   6.603   5.276  11.137  0.1054  0.6383 -0.3039
 9679TIP3    H150528   6.584   5.367  11.113  0.6794  0.1606 -2.7906
 9679TIP3    H250529   6.698   5.273  11.146  0.1065  0.2363 -0.4414
 9680TIP3   OH250530   3.618   2.908  13.517  0.3434  0.5908  0.0076
 9680TIP3    H150531   3.617   2.998  13.549 -1.2025  0.5069  0.2639
 9680TIP3    H250532   3.711   2.884  13.518  0.9032  2.4842 -0.9850
 9681TIP3   OH250533   1.967   4.676   4.153 -0.2814 -0.2077  0.3483
 9681TIP3    H150534   1.888   4.648   4.107  0.1811  1.4360 -1.5944
 9681TIP3    H250535   1.979   4.610   4.221 -3.1478 -0.6636  0.5518
 9682TIP3   OH250536   4.558   5.756  15.005  0.9358 -0.0959  0.3178
 9682TIP3    H150537   4.494   5.820  14.975  1.4831  1.0673  1.5302
 9682TIP3    H250538   4.561   5.768  15.100  1.7929 -1.2306  0.4486
 9683TIP3   OH250539   0.507   5.270   2.498 -0.0376  0.4163  0.7091
 9683TIP3    H150540   0.460   5.313   2.569  0.6410  3.1867 -0.3754
 9683TIP3    H250541   0.442   5.257   2.430 -0.2006 -0.1036  0.9609
 9684TIP3   OH250542   1.851   3.926  10.679 -0.1433 -0.0731 -0.3571
 9684TIP3    H150543   1.911   3.905  10.750 -0.5917 -0.7271 -0.1616
 9684TIP3    H250544   1.902   3.981  10.620  0.8495 -1.1054 -0.4975
 9685TIP3   OH250545   0.073   4.339   5.314 -0.2698  0.4670  0.2102
 9685TIP3    H150546   0.040   4.256   5.281 -2.8559  0.7643  1.7613
 9685TIP3    H250547   0.058   4.402   5.243  1.9118 -0.3470 -1.0580
 9686TIP3   OH250548   4.520   2.174  14.015  0.1596 -0.1252 -0.4926
 9686TIP3    H150549   4.527   2.266  14.042 -0.6428 -0.2109  0.0478
 9686TIP3    H250550   4.428   2.152  14.029  0.3965 -1.0866 -0.3813
 9687TIP3   OH250551   1.465   6.139   2.607  0.3591  0.4722  0.2087
 9687TIP3    H150552   1.494   6.064   2.555  1.4938  1.5843 -0.8081
 9687TIP3    H250553   1.529   6.207   2.590  0.6590  0.9849  2.9165
 9688TIP3   OH250554   2.720   4.362   5.690  0.3119 -0.2894  0.3764
 9688TIP3    H150555   2.689   4.448   5.661 -1.4889 -0.4565  1.6032
 9688TIP3    H250556   2.671   4.299   5.637  0.4090 -0.5628  0.6093
 9689TIP3   OH250557   3.134   2.689   2.710 -0.5966 -0.2352  0.3401
 9689TIP3    H150558   3.069   2.679   2.640  0.1287 -1.1632 -0.2362
 9689TIP3    H250559   3.192   2.758   2.679 -0.7135 -0.1168  0.3829
 9690TIP3   OH250560   4.620   1.241   0.002  0.1589  0.5020  0.3212
 9690TIP3    H150561   4.538   1.206   0.040 -0.5314  1.5042 -0.2045
 9690TIP3    H250562   4.601   1.333  -0.015  1.3842  0.7294  0.0956
 9691TIP3   OH250563   0.503   3.251   5.155 -0.5553 -0.1404  0.3487
 9691TIP3    H150564   0.411   3.229   5.172 -0.0547 -0.8163  2.5075
 9691TIP3    H250565   0.551   3.213   5.229  1.5241 -0.0924 -0.8961
 9692TIP3   OH250566   3.429   3.554   0.749  0.0631  0.0508 -0.3378
 9692TIP3    H150567   3.415   3.591   0.662 -0.4833 -1.2953 -0.8479
 9692TIP3    H250568   3.472   3.624   0.799 -2.1150  1.8547 -0.8427
 9693TIP3   OH250569   6.026   0.297  17.270  0.0002 -0.2344 -0.1876
 9693TIP3    H150570   5.954   0.329  17.216  0.3350  1.3143  0.2389
 9693TIP3    H250571   5.986   0.230  17.325 -0.7818 -0.4418 -0.9849
 9694TIP3   OH250572   2.003   5.344  14.504 -0.3439  0.7149 -0.2766
 9694TIP3    H150573   2.077   5.383  14.551  0.1405  0.2377 -0.6245
 9694TIP3    H250574   1.974   5.414  14.445 -0.8937  1.2768  0.6530
 9695TIP3   OH250575   4.905   1.790   4.652 -0.2625  0.1604 -0.0388
 9695TIP3    H150576   4.900   1.747   4.567 -0.8338 -0.3124  0.2219
 9695TIP3    H250577   4.886   1.882   4.633 -3.6544 -0.3973 -0.0804
 9696TIP3   OH250578   0.406   1.735   3.214  0.0909  0.3148  0.4566
 9696TIP3    H150579   0.465   1.788   3.160  0.6747 -0.5449  0.2424
 9696TIP3    H250580   0.461   1.667   3.252 -0.5826  0.0623  1.0154
 9697TIP3   OH250581   2.762   1.610  11.945  0.3526 -0.0693  0.3518
 9697TIP3    H150582   2.789   1.584  12.034 -2.2705  1.8180  1.8593
 9697TIP3    H250583   2.686   1.554  11.927  0.3524  0.1535 -0.3425
 9698TIP3   OH250584   2.241   1.928  12.341  0.1931  0.5703 -0.2123
 9698TIP3    H150585   2.262   1.961  12.253 -1.0041  1.6405 -0.1226
 9698TIP3    H250586   2.221   1.836  12.328  1.1625  0.4347 -0.8691
 9699TIP3   OH250587   0.321   3.604   2.246 -0.7473  0.0183  0.7621
 9699TIP3    H150588   0.377   3.550   2.302 -1.0028  0.3540  1.3635
 9699TIP3    H250589   0.278   3.543   2.187  0.5382 -0.2086  0.0198
 9700TIP3   OH250590   4.234   6.548  16.606  0.6729 -0.1868  0.5658
 9700TIP3    H150591   4.280   6.548  16.523 -0.5853  0.8185 -0.1648
 9700TIP3    H250592   4.204   6.458  16.617 -0.4776  0.0009 -0.8547
 9701TIP3   OH250593   0.020   4.461  13.758 -0.3192 -0.0400 -0.8903
 9701TIP3    H150594  -0.050   4.396  13.754 -0.3951  0.0474 -1.0146
 9701TIP3    H250595   0.024   4.487  13.850 -1.4094  0.9904 -1.1087
 9702TIP3   OH250596   0.877   3.922  13.852 -0.1303  0.2203 -0.2787
 9702TIP3    H150597   0.810   3.989  13.835 -1.1771 -0.6767  0.2244
 9702TIP3    H250598   0.831   3.839  13.845  1.2042 -0.4903 -1.1151
 9703TIP3   OH250599   4.662   6.578  13.469  1.2456 -0.5807  0.3233
 9703TIP3    H150600   4.599   6.612  13.531 -0.5200  0.9261 -2.1384
 9703TIP3    H250601   4.707   6.655  13.435 -0.5717 -0.7982 -2.9930
 9704TIP3   OH250602   4.467   0.044  15.238 -0.0115 -0.4045  0.5196
 9704TIP3    H150603   4.518  -0.025  15.279  1.1508  0.6667  0.9170
 9704TIP3    H250604   4.452   0.013  15.148  0.8035 -1.0129  0.5849
 9705TIP3   OH250605   4.661   4.129   4.058  0.2363  0.1275 -0.3008
 9705TIP3    H150606   4.613   4.212   4.056  1.7388  1.0687  0.6704
 9705TIP3    H250607   4.687   4.118   4.149  0.9270 -0.8975 -0.6046
 9706TIP3   OH250608   0.233   1.447  13.039 -0.1125  0.3795 -0.0266
 9706TIP3    H150609   0.165   1.464  13.104 -1.2137 -3.4994  0.1139
 9706TIP3    H250610   0.309   1.419  13.090  0.5356  1.5856 -0.3023
 9707TIP3   OH250611   3.655   6.187   0.500 -0.1795 -0.4310 -0.7243
 9707TIP3    H150612   3.589   6.231   0.553  1.3162  2.1135 -0.8127
 9707TIP3    H250613   3.694   6.122   0.558 -1.3973 -0.6107 -0.0777
 9708TIP3   OH250614   4.317   5.631  16.368 -0.1621  0.0133 -0.1415
 9708TIP3    H150615   4.391   5.671  16.413 -0.9278  1.7502 -0.3176
 9708TIP3    H250616   4.355   5.563  16.313  1.1317 -0.0189  0.7722
 9709TIP3   OH250617   6.248   3.064  13.893  0.3260 -0.2461  0.1806
 9709TIP3    H150618   6.310   3.048  13.823  0.4621  0.5887  0.1004
 9709TIP3    H250619   6.280   3.143  13.936 -0.5121  0.0337  0.3166
 9710TIP3   OH250620   0.068   0.164   0.681  0.4577  0.2141  0.0035
 9710TIP3    H150621   0.083   0.087   0.735 -0.6144  0.1701  0.2612
 9710TIP3    H250622   0.114   0.235   0.725  1.2785 -0.2281 -0.1252
 9711TIP3   OH250623   1.381   3.286  16.858  0.3780  1.1053  0.3382
 9711TIP3    H150624   1.345   3.210  16.813  0.1170  0.9376  0.8258
 9711TIP3    H250625   1.381   3.262  16.951 -1.4171  2.3818  0.7246
 9712TIP3   OH250626   0.117   6.288  10.728  0.6367  0.5654  0.0388
 9712TIP3    H150627   0.029   6.277  10.765  1.3061 -2.3402  1.0794
 9712TIP3    H250628   0.119   6.228  10.653  1.9621 -0.1123  0.5810
 9713TIP3   OH250629   2.722   2.596   5.315  0.2812 -0.2711  1.0104
 9713TIP3    H150630   2.695   2.573   5.226 -0.7292  0.8750  1.0063
 9713TIP3    H250631   2.695   2.520   5.368 -0.4016 -0.3529  0.5595
 9714TIP3   OH250632   1.938   6.207  12.808  0.0957 -0.4591 -0.5462
 9714TIP3    H150633   1.957   6.301  12.806 -0.0818 -0.4329 -1.3346
 9714TIP3    H250634   1.892   6.190  12.726  0.4271 -1.3001 -0.5702
 9715TIP3   OH250635   2.001   5.146  13.272  0.1541 -0.2242  0.1094
 9715TIP3    H150636   2.036   5.227  13.234  1.5942  0.0537  1.8881
 9715TIP3    H250637   2.055   5.076  13.233 -0.9097 -0.3429 -1.2181
 9716TIP3   OH250638   2.334   5.474   1.655  0.1317 -0.0897 -0.6692
 9716TIP3    H150639   2.242   5.501   1.657  0.2164  0.2034 -0.5665
 9716TIP3    H250640   2.371   5.512   1.735  0.2567 -0.5155 -0.5235
 9717TIP3   OH250641   4.583   0.535   4.438  0.1930  0.1240  0.1249
 9717TIP3    H150642   4.527   0.611   4.421 -1.0436 -0.5513  1.0915
 9717TIP3    H250643   4.605   0.502   4.351 -1.5119 -0.0286 -0.2754
 9718TIP3   OH250644   3.431   1.218  10.769 -0.4338  0.7197  0.0486
 9718TIP3    H150645   3.398   1.222  10.859  0.6277  1.1786  0.4402
 9718TIP3    H250646   3.489   1.142  10.769  0.4742  1.3951  0.0919
 9719TIP3   OH250647   5.481   2.192   3.486 -0.2922  0.4122 -0.4555
 9719TIP3    H150648   5.505   2.284   3.500 -1.5456  0.3020  3.5601
 9719TIP3    H250649   5.396   2.182   3.528 -0.6989 -2.4082 -1.6874
 9720TIP3   OH250650   2.291   2.046   5.813 -0.4640  0.4629  0.1254
 9720TIP3    H150651   2.250   1.974   5.765  1.1066 -0.4324  0.0706
 9720TIP3    H250652   2.304   2.011   5.901  1.4523  0.1620 -0.2236
 9721TIP3   OH250653   4.624   4.163  15.072  0.3222  0.2204 -0.4620
 9721TIP3    H150654   4.601   4.141  14.981  0.4556  1.1968 -0.7487
 9721TIP3    H250655   4.592   4.252  15.083  1.3954  0.5525  0.0617
 9722TIP3   OH250656   1.249   3.076  13.534  0.1566 -0.8733 -0.0945
 9722TIP3    H150657   1.163   3.117  13.547  0.2100 -0.5146 -0.7842
 9722TIP3    H250658   1.233   2.982  13.547 -0.4682 -0.8732 -0.7518
 9723TIP3   OH250659   1.158   6.448   2.613 -0.0405 -0.3628  0.4061
 9723TIP3    H150660   1.180   6.440   2.520  0.7072 -0.5294  0.5869
 9723TIP3    H250661   1.243   6.450   2.657 -0.2833  2.4323  0.9059
 9724TIP3   OH250662   2.053   6.713  12.959 -0.0982 -0.2015  0.0902
 9724TIP3    H150663   2.078   6.796  12.917 -0.3827  0.0716  0.4539
 9724TIP3    H250664   2.135   6.676  12.990  0.1300 -0.4458 -0.7644
 9725TIP3   OH250665   5.038   0.742   4.693  0.2652  0.3162 -0.2413
 9725TIP3    H150666   5.093   0.682   4.643  1.5769  1.8541 -0.7316
 9725TIP3    H250667   4.986   0.787   4.626 -0.6703 -0.1978  0.1181
 9726TIP3   OH250668   1.065   1.124  15.772 -0.2432 -0.2819 -0.1705
 9726TIP3    H150669   1.009   1.201  15.781  1.8799  1.2669  0.8035
 9726TIP3    H250670   1.147   1.158  15.738  1.1192 -1.9182  1.2696
 9727TIP3   OH250671   2.993   4.077  16.266 -0.2916 -0.2620  0.8848
 9727TIP3    H150672   3.032   4.153  16.309 -0.8842 -0.1410  1.2275
 9727TIP3    H250673   3.066   4.034  16.221  0.1842  0.0845  1.3154
 9728TIP3   OH250674   6.502   3.375   1.468 -0.0252  0.0514  0.7651
 9728TIP3    H150675   6.427   3.379   1.409  0.1370  1.0529  0.6197
 9728TIP3    H250676   6.477   3.428   1.543  1.4496  2.4825 -0.3559
 9729TIP3   OH250677   1.672   3.766  12.606  0.5073  0.4977  0.4604
 9729TIP3    H150678   1.732   3.692  12.619  0.9662  1.1852  2.5695
 9729TIP3    H250679   1.683   3.820  12.684 -2.0510  1.2443  0.3934
 9730TIP3   OH250680   1.097   5.811  13.059 -0.0149  0.6428  0.2098
 9730TIP3    H150681   1.001   5.816  13.059 -0.0274  0.8108  1.6194
 9730TIP3    H250682   1.119   5.776  13.145  1.1417 -0.7867 -0.6179
 9731TIP3   OH250683   5.990   2.905   5.881 -0.7072  0.0048 -0.4569
 9731TIP3    H150684   6.036   2.986   5.902  1.6143 -1.0986 -0.8734
 9731TIP3    H250685   5.997   2.896   5.786  0.7932 -1.5605 -0.2517
 9732TIP3   OH250686   2.826   2.180  13.729 -0.0840 -0.4892  0.1792
 9732TIP3    H150687   2.767   2.200  13.656  0.7288 -1.2755 -0.7371
 9732TIP3    H250688   2.806   2.246  13.795  1.6257  2.6585 -2.1510
 9733TIP3   OH250689   4.039   2.220  17.117 -0.4479 -0.0009 -1.1881
 9733TIP3    H150690   4.125   2.179  17.106  0.8901  1.8139  1.4691
 9733TIP3    H250691   4.055   2.314  17.103 -1.6289  0.5447  0.7598
 9734TIP3   OH250692   4.158   4.549   2.115 -0.3420  0.3886 -0.2339
 9734TIP3    H150693   4.250   4.565   2.135 -0.5163  0.5504  0.4947
 9734TIP3    H250694   4.122   4.514   2.197 -0.2764 -2.5131 -1.3397
 9735TIP3   OH250695   5.987   3.244  11.632  0.6660  0.5085  0.3382
 9735TIP3    H150696   5.899   3.217  11.609  1.7184 -2.6171 -0.4676
 9735TIP3    H250697   6.029   3.264  11.549  0.6339  2.5171  0.7540
 9736TIP3   OH250698   1.768   3.738  11.186  0.0345  0.4674  0.5938
 9736TIP3    H150699   1.743   3.697  11.270 -0.6987 -2.7493 -1.0358
 9736TIP3    H250700   1.688   3.783  11.158  0.3957  1.8905  1.7332
 9737TIP3   OH250701   3.404   2.902  14.976  0.3651  0.2504  0.0248
 9737TIP3    H150702   3.473   2.886  15.039  1.3510 -0.3765 -1.1638
 9737TIP3    H250703   3.448   2.948  14.904 -0.5302  0.1490 -0.6047
 9738TIP3   OH250704   2.734   1.424  12.228 -0.4740  0.1005  0.1594
 9738TIP3    H150705   2.760   1.449  12.316  0.0856  0.1978 -0.0322
 9738TIP3    H250706   2.638   1.418  12.232 -0.3762 -1.5980  1.2389
 9739TIP3   OH250707   0.623   2.455  13.857 -0.2894 -0.6370  0.3660
 9739TIP3    H150708   0.620   2.441  13.952  2.4313  1.2584  0.8542
 9739TIP3    H250709   0.580   2.540  13.844  1.2449  0.1641  0.2671
 9740TIP3   OH250710   4.861   0.788  16.495 -0.0291  0.0501  0.0570
 9740TIP3    H150711   4.770   0.817  16.494 -0.4075 -1.0917 -1.6353
 9740TIP3    H250712   4.889   0.801  16.586 -1.5923  1.2167  0.4175
 9741TIP3   OH250713   4.229   2.424   5.453  0.1192 -0.0457 -0.0675
 9741TIP3    H150714   4.310   2.378   5.432  1.0087 -0.1018  3.0288
 9741TIP3    H250715   4.180   2.426   5.370  2.8687 -0.7495 -1.8353
 9742TIP3   OH250716   0.327   0.331   0.096 -0.6034  0.2584  0.1384
 9742TIP3    H150717   0.253   0.272   0.085  0.3907 -0.6204 -2.9055
 9742TIP3    H250718   0.388   0.283   0.153 -0.5438 -0.9421 -0.8997
 9743TIP3   OH250719   4.654   4.968  12.660  0.1641 -0.0326 -0.4513
 9743TIP3    H150720   4.612   5.000  12.740  0.2470 -0.0562 -0.3989
 9743TIP3    H250721   4.666   4.874  12.676 -1.0745 -0.3173 -1.0334
 9744TIP3   OH250722   0.373   0.826   1.982  0.0524 -0.8398  0.0851
 9744TIP3    H150723   0.404   0.768   2.052 -0.7895  0.4780  1.5909
 9744TIP3    H250724   0.436   0.898   1.980  0.1132 -0.8966 -0.6058
 9745TIP3   OH250725   5.015   1.975   3.127  0.6178 -0.2523 -1.2866
 9745TIP3    H150726   4.931   1.994   3.171  0.5161 -2.6234 -0.2750
 9745TIP3    H250727   5.081   1.993   3.194  0.7946  0.0280 -1.5354
 9746TIP3   OH250728   3.039   6.230  16.208  0.5026 -0.0021 -0.2433
 9746TIP3    H150729   2.981   6.167  16.166  0.8208 -0.4764  0.0172
 9746TIP3    H250730   3.115   6.236  16.151  0.4234  0.2376 -0.3263
 9747TIP3   OH250731   4.892   2.770   5.509 -1.0047 -0.0275  0.6715
 9747TIP3    H150732   4.832   2.802   5.577 -2.4029 -1.2603  0.0821
 9747TIP3    H250733   4.884   2.674   5.514 -0.3821 -0.1601 -0.5729
 9748TIP3   OH250734   5.669   2.132   4.755 -0.2304  0.3377  0.7170
 9748TIP3    H150735   5.592   2.077   4.770 -2.0615  2.4860 -0.1941
 9748TIP3    H250736   5.698   2.158   4.843 -0.0535 -1.0519  1.0952
 9749TIP3   OH250737   6.411   1.862  16.824 -0.2438 -0.1828 -0.3566
 9749TIP3    H150738   6.414   1.795  16.756 -0.3157 -0.2605 -0.2834
 9749TIP3    H250739   6.399   1.813  16.905 -0.0765 -0.0958 -0.2775
 9750TIP3   OH250740   5.776   5.404   5.894 -0.1874  0.1973  0.4077
 9750TIP3    H150741   5.713   5.334   5.909  1.7052 -1.9584 -1.0325
 9750TIP3    H250742   5.775   5.455   5.975 -2.9128 -0.3989  0.8229
 9751TIP3   OH250743   5.634   0.306   3.051 -0.1134 -0.0724 -0.2522
 9751TIP3    H150744   5.597   0.248   2.985  1.0614 -0.3956 -0.6614
 9751TIP3    H250745   5.559   0.349   3.091 -0.8210  0.9368 -2.5284
 9752TIP3   OH250746   5.881   0.105   1.143  0.1517  0.6750  0.5702
 9752TIP3    H150747   5.968   0.066   1.147  0.9321  2.4043  2.3869
 9752TIP3    H250748   5.891   0.181   1.086  0.0161  1.2726  1.3340
 9753TIP3   OH250749   3.924   0.349  14.108  0.2298 -0.1435 -0.2852
 9753TIP3    H150750   3.939   0.275  14.167  0.5628 -0.1212 -0.3404
 9753TIP3    H250751   3.921   0.311  14.021  2.7193  0.1557 -0.5663
 9754TIP3   OH250752   5.650   0.072  16.319 -0.3096  0.0378 -0.4578
 9754TIP3    H150753   5.723   0.010  16.310  0.4000  0.5408  1.3406
 9754TIP3    H250754   5.688   0.157  16.299 -0.0983  0.4312  1.4246
 9755TIP3   OH250755   0.698   0.318  11.712  0.4720  0.1195  0.0895
 9755TIP3    H150756   0.667   0.370  11.638  0.1709 -1.3762 -0.8676
 9755TIP3    H250757   0.669   0.229  11.693  2.4175 -0.7301  0.8460
 9756TIP3   OH250758   5.319   3.927   0.237 -0.4395  0.0585  0.0934
 9756TIP3    H150759   5.398   3.981   0.237 -0.8396  0.6513  0.3418
 9756TIP3    H250760   5.283   3.938   0.149 -0.2596 -0.1985 -0.0146
 9757TIP3   OH250761   2.405   6.358  16.175 -0.4223 -0.6822  0.2633
 9757TIP3    H150762   2.497   6.343  16.155  0.1657  1.1684  1.3090
 9757TIP3    H250763   2.387   6.445  16.141 -0.7766  0.4180  2.9889
 9758TIP3   OH250764   5.342   0.905  13.123 -0.3691 -0.2712 -0.1481
 9758TIP3    H150765   5.390   0.957  13.186  0.0347 -0.6474 -0.1428
 9758TIP3    H250766   5.351   0.953  13.040  1.1736 -1.0174 -0.4493
 9759TIP3   OH250767   6.140   0.021   6.278  0.1818  0.3198  0.4339
 9759TIP3    H150768   6.186   0.016   6.362  2.1887  0.2832 -0.6086
 9759TIP3    H250769   6.106  -0.068   6.266  0.1603  0.2332  1.0568
 9760TIP3   OH250770   4.894   2.331   3.861  0.5389  0.6011  0.1139
 9760TIP3    H150771   4.845   2.369   3.787 -0.3953 -0.6492  0.0510
 9760TIP3    H250772   4.944   2.259   3.822 -1.2997 -1.2115  0.8976
 9761TIP3   OH250773   3.080   6.189  11.096 -0.2321  0.5269  0.0201
 9761TIP3    H150774   3.088   6.250  11.023  1.1759  1.8324  1.1941
 9761TIP3    H250775   3.071   6.245  11.173  0.3352 -0.7469  1.0541
 9762TIP3   OH250776   2.017   1.760  11.558 -0.0678 -0.0977 -0.2099
 9762TIP3    H150777   1.960   1.731  11.629  0.6636 -0.6736  0.1517
 9762TIP3    H250778   1.999   1.854  11.549 -1.2346 -0.3179 -0.2654
 9763TIP3   OH250779   4.899   6.618   6.318 -0.2183  0.8891  0.1552
 9763TIP3    H150780   4.885   6.710   6.299 -0.8571  0.9050  0.6659
 9763TIP3    H250781   4.985   6.614   6.359 -1.4667  1.7430  3.1518
 9764TIP3   OH250782   1.186   0.960   4.774 -0.2639 -0.0670  0.0404
 9764TIP3    H150783   1.159   0.869   4.768 -1.2411  0.2370 -0.2224
 9764TIP3    H250784   1.273   0.962   4.734  0.5040 -1.1847  1.5432
 9765TIP3   OH250785   6.033   1.716   0.883 -0.7773  0.2672 -0.3566
 9765TIP3    H150786   6.052   1.778   0.953  1.3911 -0.5973 -0.1035
 9765TIP3    H250787   6.119   1.684   0.855 -1.6135  0.1771 -3.0715
 9766TIP3   OH250788   1.116   5.868   1.882  0.3543  0.4520 -0.0254
 9766TIP3    H150789   1.172   5.797   1.849  2.5884  2.3378 -0.6045
 9766TIP3    H250790   1.177   5.939   1.902 -1.4323  1.1541  3.6352
 9767TIP3   OH250791   3.231   3.195  13.653 -0.6734  0.1997 -0.6311
 9767TIP3    H150792   3.144   3.217  13.685 -1.3350 -0.4889 -1.8941
 9767TIP3    H250793   3.223   3.197  13.558  0.6454 -0.0527 -0.7659
 9768TIP3   OH250794   5.373   2.600  11.436 -0.1608 -0.0208  0.2423
 9768TIP3    H150795   5.386   2.571  11.526 -1.5848 -1.7973 -0.0585
 9768TIP3    H250796   5.394   2.693  11.437 -0.6655  0.1206  2.5143
 9769TIP3   OH250797   1.161   4.099  11.363 -0.2580 -0.2497 -0.3851
 9769TIP3    H150798   1.082   4.141  11.329  1.0541  2.7191 -0.0263
 9769TIP3    H250799   1.158   4.114  11.457  1.0852  0.6190 -0.4597
 9770TIP3   OH250800   5.474   5.657   0.611 -0.0277  0.3532  0.0855
 9770TIP3    H150801   5.555   5.610   0.632  0.4143 -0.2975 -2.6476
 9770TIP3    H250802   5.492   5.747   0.635  0.5498 -0.1881  1.8366
 9771TIP3   OH250803   1.423   2.589  15.485 -0.6432 -0.4392 -0.1944
 9771TIP3    H150804   1.356   2.521  15.488  0.0476 -1.1314 -0.0728
 9771TIP3    H250805   1.447   2.603  15.577  0.1615 -1.0027 -0.3077
 9772TIP3   OH250806   4.418   5.514   5.678  0.8759 -0.3434 -0.4035
 9772TIP3    H150807   4.473   5.591   5.694 -0.3146  0.6547 -0.9273
 9772TIP3    H250808   4.460   5.443   5.726  0.9509  1.0689  1.7246
 9773TIP3   OH250809   1.432   3.455   1.465  0.0032 -0.3897  0.2509
 9773TIP3    H150810   1.345   3.433   1.500  0.5283 -3.1270  0.0631
 9773TIP3    H250811   1.444   3.547   1.488 -3.2289  0.3273 -0.3348
 9774TIP3   OH250812   5.785   6.351   3.822  0.4100  0.4728 -0.0813
 9774TIP3    H150813   5.741   6.287   3.878  0.5182  1.1916  0.8352
 9774TIP3    H250814   5.714   6.390   3.770  0.5683 -1.9750 -2.3790
 9775TIP3   OH250815   4.946   4.935  14.225 -0.0660 -0.1637 -0.1772
 9775TIP3    H150816   4.958   4.840  14.216 -0.3296 -0.0096 -4.0841
 9775TIP3    H250817   5.019   4.973  14.176  1.1076  1.8339  2.8457
 9776TIP3   OH250818   5.681   5.465  13.236  0.5391 -0.1692 -0.6174
 9776TIP3    H150819   5.672   5.468  13.332 -0.3860  0.0634 -0.7066
 9776TIP3    H250820   5.609   5.410  13.207  1.4787 -1.1790 -1.1121
 9777TIP3   OH250821   0.698   6.130  14.933 -0.0425  0.1405 -0.3233
 9777TIP3    H150822   0.603   6.142  14.934 -0.3012 -1.6867 -0.0606
 9777TIP3    H250823   0.720   6.123  14.840 -0.2890 -0.2909 -0.3503
 9778TIP3   OH250824   3.127   6.235  10.689  0.0658 -0.0002 -0.2034
 9778TIP3    H150825   3.102   6.172  10.622 -0.8656 -0.6396  0.7219
 9778TIP3    H250826   3.220   6.219  10.704 -0.2392 -1.4065  0.2790
 9779TIP3   OH250827   0.489   2.991   5.363  0.5757 -0.0893  0.9646
 9779TIP3    H150828   0.421   3.039   5.317  0.4969 -0.8445  0.2761
 9779TIP3    H250829   0.468   2.899   5.348  1.7178 -0.3322  0.7864
 9780TIP3   OH250830   2.982   3.364  15.195  0.2455  0.0678 -0.6256
 9780TIP3    H150831   3.062   3.406  15.226  0.5947 -0.8496 -0.2407
 9780TIP3    H250832   2.918   3.435  15.189  0.5182  0.5021  1.0273
 9781TIP3   OH250833   3.931   3.938  15.791  0.1332 -0.2212  0.6862
 9781TIP3    H150834   3.858   3.931  15.853  1.0213  1.0193  1.9356
 9781TIP3    H250835   3.889   3.956  15.707 -1.0491 -0.6818  1.1507
 9782TIP3   OH250836   6.013   3.755   1.476  0.2183  0.0472  0.0125
 9782TIP3    H150837   6.041   3.846   1.468  0.5765 -0.2118 -3.0555
 9782TIP3    H250838   5.918   3.758   1.464  0.0081  0.1110  1.5037
 9783TIP3   OH250839   2.657   4.998  12.383 -0.7755  0.0886  0.4159
 9783TIP3    H150840   2.571   4.957  12.378 -0.1086 -1.2677 -1.0682
 9783TIP3    H250841   2.687   5.000  12.292  0.6404  0.8124  0.8724
 9784TIP3   OH250842   6.021   1.971   4.529  0.2159  0.4388 -0.2230
 9784TIP3    H150843   5.970   1.890   4.529 -0.1356  0.6618 -0.4280
 9784TIP3    H250844   5.962   2.036   4.568  0.1539  0.8166 -0.9445
 9785TIP3   OH250845   4.019   6.165  15.192 -0.5043 -0.1871  0.1273
 9785TIP3    H150846   3.946   6.185  15.251 -1.6510  0.2251 -1.3600
 9785TIP3    H250847   4.026   6.070  15.193 -1.6826 -0.2944 -0.3969
 9786TIP3   OH250848   6.037   2.141   4.905  0.2030  0.1373 -0.1894
 9786TIP3    H150849   6.116   2.122   4.854  1.7166  1.2377  1.6276
 9786TIP3    H250850   6.043   2.083   4.981 -0.9931 -0.0598 -0.2204
 9787TIP3   OH250851   1.043   3.520   3.603  0.7369 -0.4289 -0.2587
 9787TIP3    H150852   1.008   3.575   3.533  0.8644 -0.1068 -0.0713
 9787TIP3    H250853   0.975   3.522   3.670  0.3070 -1.2987 -0.6521
 9788TIP3   OH250854   1.278   1.507  13.065 -0.0816  0.1251  0.4453
 9788TIP3    H150855   1.187   1.479  13.060 -1.1253  3.3045 -0.8749
 9788TIP3    H250856   1.315   1.456  13.137 -2.9299 -1.1489  1.1430
 9789TIP3   OH250857   2.431   3.432   0.225  0.1666 -0.3700 -0.2356
 9789TIP3    H150858   2.380   3.379   0.165  0.1360 -0.1138 -0.4361
 9789TIP3    H250859   2.506   3.462   0.173 -0.9175  1.5559 -0.7518
 9790TIP3   OH250860   2.832   3.611   1.694 -0.1610  0.8563  0.0560
 9790TIP3    H150861   2.854   3.520   1.714 -0.7679  1.3252  3.2777
 9790TIP3    H250862   2.780   3.606   1.614 -0.1531 -1.6163  0.1321
 9791TIP3   OH250863   0.636   5.588  12.517 -0.3137  0.0568  0.2323
 9791TIP3    H150864   0.712   5.535  12.493  0.7100  1.9730 -1.0166
 9791TIP3    H250865   0.670   5.677  12.526 -2.5376  1.1913 -1.4527
 9792TIP3   OH250866   6.336   0.541   4.909  0.1855 -0.8704 -0.2858
 9792TIP3    H150867   6.416   0.510   4.950  0.5593  0.2998 -0.0998
 9792TIP3    H250868   6.305   0.466   4.857  2.0601 -0.9473 -1.3687
 9793TIP3   OH250869   1.651   6.103  13.634 -0.2002 -0.0743 -0.5319
 9793TIP3    H150870   1.579   6.104  13.696  0.1355  0.4219 -0.1373
 9793TIP3    H250871   1.706   6.030  13.661  0.6248  0.9078  0.5758
 9794TIP3   OH250872   4.186   5.692  15.863 -0.0158 -0.1868 -0.2315
 9794TIP3    H150873   4.247   5.730  15.800  0.7040 -0.2863  0.3855
 9794TIP3    H250874   4.100   5.722  15.835  0.5588  2.5105  0.5954
 9795TIP3   OH250875   1.972   6.430  17.007 -0.4634  0.4034 -0.3546
 9795TIP3    H150876   1.917   6.372  17.060 -0.5445 -0.2628 -1.1283
 9795TIP3    H250877   2.061   6.408  17.032 -0.5158  0.5413 -0.0439
 9796TIP3   OH250878   2.399   5.904   0.977  0.1642 -0.5062  0.5579
 9796TIP3    H150879   2.345   5.827   0.958 -1.7409  0.2608  2.3735
 9796TIP3    H250880   2.451   5.879   1.053 -1.2753  0.2421  1.8678
 9797TIP3   OH250881   1.816   6.430  11.105  0.3254  1.1143  0.1149
 9797TIP3    H150882   1.749   6.499  11.110  0.5115  1.2514  0.8121
 9797TIP3    H250883   1.867   6.440  11.186 -0.6789 -0.9200  1.0475
 9798TIP3   OH250884   0.442   4.944  13.125  0.5033 -0.4148 -0.6106
 9798TIP3    H150885   0.491   4.971  13.202  0.3402  0.8302 -0.9245
 9798TIP3    H250886   0.472   4.854  13.107 -1.2071 -1.7025  2.2989
 9799TIP3   OH250887   5.104   6.690   2.508  0.1379  0.5701 -0.5609
 9799TIP3    H150888   5.013   6.717   2.517 -0.1963 -0.8170  0.5984
 9799TIP3    H250889   5.151   6.744   2.572 -0.2407 -0.2959  0.4669
 9800TIP3   OH250890   4.517   5.990  16.857  0.1457  0.0430  0.1144
 9800TIP3    H150891   4.582   5.936  16.812  1.8311  1.7991  0.3128
 9800TIP3    H250892   4.456   6.016  16.788  2.0213  1.7119 -1.0228
 9801TIP3   OH250893   1.186   2.680   5.246  0.1779 -0.5953  0.0143
 9801TIP3    H150894   1.235   2.739   5.302  0.8706 -1.4858  0.3788
 9801TIP3    H250895   1.117   2.734   5.207 -0.3322  0.0468  1.7327
 9802TIP3   OH250896   6.349   0.719  11.947  0.2839  0.3490 -0.3642
 9802TIP3    H150897   6.305   0.765  12.018  0.2358  0.0839 -0.2219
 9802TIP3    H250898   6.369   0.787  11.883  0.6116  0.6388  0.0413
 9803TIP3   OH250899   0.732   0.535  14.189 -0.1099 -0.0954 -0.2663
 9803TIP3    H150900   0.706   0.499  14.273  0.3800 -1.5441 -0.7018
 9803TIP3    H250901   0.684   0.617  14.182 -0.9520 -0.4526  0.9591
 9804TIP3   OH250902   2.855   6.698   3.668  0.0636 -0.2936 -0.1236
 9804TIP3    H150903   2.857   6.725   3.760 -0.0444 -0.9017  0.0635
 9804TIP3    H250904   2.941   6.660   3.651  0.3962  0.6085 -0.5310
 9805TIP3   OH250905   5.419   2.806   5.185  0.1113 -0.0660  0.4469
 9805TIP3    H150906   5.394   2.725   5.229  1.7313 -1.1389 -0.4584
 9805TIP3    H250907   5.346   2.827   5.128 -0.3331 -0.8959  0.7060
 9806TIP3   OH250908   3.379   6.777   0.793  0.1986  0.0169  0.0807
 9806TIP3    H150909   3.426   6.721   0.732 -1.2526 -0.4382 -0.6586
 9806TIP3    H250910   3.441   6.792   0.864  1.2449 -1.0293 -0.5760
 9807TIP3   OH250911   3.715   3.589  17.257 -0.0173  0.1262  0.5172
 9807TIP3    H150912   3.681   3.639  17.183 -0.0605  0.5565  0.8241
 9807TIP3    H250913   3.649   3.521  17.272 -0.7448  0.9320  1.0839
 9808TIP3   OH250914   0.024   5.377  12.314 -0.5107 -0.3501  0.0847
 9808TIP3    H150915   0.094   5.376  12.248 -0.4888  0.3380  0.0901
 9808TIP3    H250916   0.066   5.343  12.393 -0.0422  0.4911  0.2115
 9809TIP3   OH250917   0.470   1.087  15.411  0.0333 -0.3219 -0.2232
 9809TIP3    H150918   0.474   1.036  15.330  0.7941 -2.5104  1.0992
 9809TIP3    H250919   0.526   1.039  15.472 -0.4271  1.3154  1.5911
 9810TIP3   OH250920   6.461   0.726   5.650 -0.3533 -0.1348  0.7752
 9810TIP3    H150921   6.482   0.784   5.576 -1.7880  0.6069  0.9097
 9810TIP3    H250922   6.366   0.734   5.660 -0.3406 -1.1761  1.9288
 9811TIP3   OH250923   2.502   6.002  15.504 -0.2595  0.4581  0.0732
 9811TIP3    H150924   2.446   5.926  15.486 -1.0745  1.2697 -0.8847
 9811TIP3    H250925   2.541   6.024  15.419 -0.2825  1.3111  0.2798
 9812TIP3   OH250926   4.579   2.733   4.232  0.1905  0.3100  0.0687
 9812TIP3    H150927   4.506   2.682   4.267  0.5250 -0.7198 -0.6988
 9812TIP3    H250928   4.629   2.671   4.179  1.6441  0.9888  0.5880
 9813TIP3   OH250929   5.167   5.430  15.690  0.1313 -0.6918  0.0154
 9813TIP3    H150930   5.167   5.339  15.661 -0.3125 -0.8196  0.4030
 9813TIP3    H250931   5.189   5.425  15.783  0.7742 -0.3468 -0.1132
 9814TIP3   OH250932   1.196   5.482   4.619  0.5052  0.1566 -0.3906
 9814TIP3    H150933   1.242   5.545   4.563  1.8614  0.5963  1.1434
 9814TIP3    H250934   1.240   5.399   4.603 -0.9218 -0.3655 -1.9908
 9815TIP3   OH250935   6.429   3.554  12.015 -0.8199 -0.4009 -0.0538
 9815TIP3    H150936   6.513   3.568  11.973 -2.2148  1.1421 -2.5982
 9815TIP3    H250937   6.438   3.592  12.102  1.4132 -1.3678  0.1960
 9816TIP3   OH250938   3.852   2.288   5.800 -0.1091  0.0781 -0.2420
 9816TIP3    H150939   3.816   2.377   5.809 -2.5502 -0.7057 -1.3255
 9816TIP3    H250940   3.912   2.293   5.726 -0.7308  0.7000 -0.7148
 9817TIP3   OH250941   6.218   3.203   5.197  0.3623 -0.1793 -0.0403
 9817TIP3    H150942   6.209   3.216   5.292 -1.1716  2.1058 -0.4162
 9817TIP3    H250943   6.172   3.121   5.179 -1.6784  0.6836  0.9126
 9818TIP3   OH250944   2.686   2.866  12.271 -0.8843 -0.6694 -0.1629
 9818TIP3    H150945   2.665   2.935  12.209 -2.6028  1.3712  2.4614
 9818TIP3    H250946   2.601   2.824  12.290 -0.8310  0.1533  2.2421
 9819TIP3   OH250947   0.956   3.180  16.626  0.2784  0.6377 -0.2359
 9819TIP3    H150948   0.971   3.163  16.532 -0.6391 -1.2784 -0.0821
 9819TIP3    H250949   0.956   3.275  16.633 -1.4957  0.8940 -2.5251
 9820TIP3   OH250950   1.011   0.751   5.647 -0.5960 -0.6460  0.4410
 9820TIP3    H150951   1.068   0.821   5.677 -1.1143  0.0893 -0.2454
 9820TIP3    H250952   0.970   0.717   5.727  0.4347 -0.8722  0.8864
 9821TIP3   OH250953   1.950   3.832   6.521 -0.2300  0.3232  0.1102
 9821TIP3    H150954   1.902   3.750   6.512 -0.4480  0.4860 -0.2338
 9821TIP3    H250955   1.891   3.889   6.569  0.4909 -0.1804  1.6415
 9822TIP3   OH250956   4.740   0.409  13.695  0.3222  0.4047 -0.3467
 9822TIP3    H150957   4.668   0.429  13.755  1.3311  1.3741  0.5797
 9822TIP3    H250958   4.764   0.493  13.657 -0.3294 -0.1919 -2.2130
 9823TIP3   OH250959   5.944   2.169  13.384  0.5653  0.0716 -0.1004
 9823TIP3    H150960   5.950   2.263  13.367  1.0274  0.0681  0.0200
 9823TIP3    H250961   5.865   2.159  13.436  0.1283  0.3042 -0.7191
 9824TIP3   OH250962   5.227   5.486  12.107 -0.1970  0.3598 -0.2186
 9824TIP3    H150963   5.206   5.523  12.021 -0.5400 -1.0376 -0.7591
 9824TIP3    H250964   5.301   5.428  12.090 -0.9022 -0.6824  0.2434
 9825TIP3   OH250965   6.161   5.748   3.442 -0.0289  0.0352 -0.0790
 9825TIP3    H150966   6.155   5.821   3.379  1.0362  1.1057  1.0085
 9825TIP3    H250967   6.077   5.751   3.489 -0.7218 -0.6003 -1.2102
 9826TIP3   OH250968   3.697   3.037   1.112  0.0115 -0.5422 -0.1086
 9826TIP3    H150969   3.648   3.058   1.192  1.1520  2.2981 -0.0434
 9826TIP3    H250970   3.786   3.021   1.142  0.8643  2.3198 -0.8807
 9827TIP3   OH250971   0.382   4.492   5.947  0.6121  0.9312  0.0701
 9827TIP3    H150972   0.434   4.512   6.025  1.1181 -0.7485  0.1919
 9827TIP3    H250973   0.436   4.431   5.897 -0.4730  0.5733 -0.7087
 9828TIP3   OH250974   1.328   0.496  17.269 -0.1921 -0.0237  0.0741
 9828TIP3    H150975   1.383   0.522  17.196  0.2968  1.1053  0.8102
 9828TIP3    H250976   1.384   0.442  17.324 -0.9215 -1.9428 -0.9605
 9829TIP3   OH250977   1.662   3.138   3.713  0.3221  0.0308 -0.3493
 9829TIP3    H150978   1.624   3.224   3.732 -1.2813 -0.8118  0.5337
 9829TIP3    H250979   1.605   3.102   3.645  0.8995 -0.3925 -0.6155
 9830TIP3   OH250980   0.421   6.722   0.404  0.2716  0.6047  0.5877
 9830TIP3    H150981   0.492   6.663   0.431  0.5021  1.2831  1.5167
 9830TIP3    H250982   0.424   6.794   0.467 -1.0684  0.7890  0.4740
 9831TIP3   OH250983   2.852   6.134  14.354  0.6709  0.4934  0.2654
 9831TIP3    H150984   2.946   6.116  14.352  0.8508  1.3917 -0.1719
 9831TIP3    H250985   2.823   6.121  14.264  0.4845  0.7134  0.2911
 9832TIP3   OH250986   2.831   1.611  15.369 -0.1034  0.0481 -0.5749
 9832TIP3    H150987   2.823   1.521  15.400 -1.3034 -0.4237 -2.1832
 9832TIP3    H250988   2.774   1.661  15.427  1.7690  0.1185  1.3665
 9833TIP3   OH250989   6.024   0.360   3.557 -0.0350 -0.4266  0.4459
 9833TIP3    H150990   6.029   0.281   3.611 -1.2503  0.3932  1.8223
 9833TIP3    H250991   5.936   0.394   3.573  0.8146  1.7901  0.7544
 9834TIP3   OH250992   3.225   0.436   2.313 -0.7772  0.0071  0.4500
 9834TIP3    H150993   3.232   0.483   2.396 -0.1731  0.4719  0.1481
 9834TIP3    H250994   3.268   0.494   2.249 -1.4818 -0.2138 -0.2418
 9835TIP3   OH250995   5.086   2.724  16.404  0.6777 -0.4527 -0.1217
 9835TIP3    H150996   5.073   2.738  16.310  2.3020 -2.0384 -0.6326
 9835TIP3    H250997   5.063   2.632  16.418  2.2348 -0.7533  0.6515
 9836TIP3   OH250998   0.560   5.938  15.155 -0.3968 -0.4736  0.0737
 9836TIP3    H150999   0.497   5.948  15.084  0.6077  0.7698 -0.7002
 9836TIP3    H251000   0.599   6.025  15.164 -1.2636 -0.2791  2.9120
 9837TIP3   OH251001   0.447   5.162  16.165  0.8925 -0.0784  0.2689
 9837TIP3    H151002   0.445   5.232  16.231  0.1935  0.3933 -0.2366
 9837TIP3    H251003   0.357   5.130  16.161  0.5057  1.0610 -1.6420
 9838TIP3   OH251004   0.186   3.987   3.211  0.3010 -0.6941  0.3858
 9838TIP3    H151005   0.195   4.050   3.284 -3.4770  1.1621 -0.4979
 9838TIP3    H251006   0.224   4.033   3.136 -0.0271 -0.6042  0.2741
 9839TIP3   OH251007   5.812   4.888  13.246  0.4579 -0.1289  0.8017
 9839TIP3    H151008   5.864   4.813  13.219  0.1494  0.4843 -1.7339
 9839TIP3    H251009   5.791   4.934  13.164 -1.8324  1.0906  1.9642
 9840TIP3   OH251010   3.395   5.868   4.709 -0.4371  0.6319 -0.4397
 9840TIP3    H151011   3.464   5.802   4.716  1.1757  2.1075 -1.5659
 9840TIP3    H251012   3.439   5.951   4.726 -2.5754  1.4277  1.8367
 9841TIP3   OH251013   4.304   4.169   3.876 -0.2854  0.4026  0.0949
 9841TIP3    H151014   4.269   4.169   3.965 -0.2239  0.0582  0.1214
 9841TIP3    H251015   4.317   4.076   3.856  1.1202  0.5360  0.2878
 9842TIP3   OH251016   1.031   5.454  14.758 -0.4097  0.2440  0.0943
 9842TIP3    H151017   0.948   5.409  14.741  0.1385 -0.8076  0.1209
 9842TIP3    H251018   1.090   5.421  14.691 -0.3493  2.0093 -0.7844
 9843TIP3   OH251019   3.163   6.422   2.512 -0.2680  0.0134  0.3452
 9843TIP3    H151020   3.120   6.338   2.524 -0.9018  0.3435  0.4164
 9843TIP3    H251021   3.212   6.412   2.431 -0.1447 -0.5047  0.4821
 9844TIP3   OH251022   0.055   2.985   0.651 -0.3352 -0.3038  0.0374
 9844TIP3    H151023   0.091   2.909   0.696  2.1978  0.3215 -0.7271
 9844TIP3    H251024   0.060   2.962   0.558  0.8554  0.8904 -0.2275
 9845TIP3   OH251025   3.215   5.834  16.102  0.4255  0.2335  0.1146
 9845TIP3    H151026   3.139   5.879  16.141  0.4686 -0.3040  0.8295
 9845TIP3    H251027   3.184   5.745  16.084  0.3890  0.4803 -1.1670
 9846TIP3   OH251028   0.622   3.627   2.875  0.3331  0.1962 -0.3275
 9846TIP3    H151029   0.611   3.721   2.862 -0.0417  0.4721  1.6575
 9846TIP3    H251030   0.548   3.602   2.931  1.0068 -1.0824  0.0263
 9847TIP3   OH251031   3.453   0.376   0.184 -0.4460  0.0461 -0.0292
 9847TIP3    H151032   3.507   0.319   0.128 -0.1530  0.3516 -0.0593
 9847TIP3    H251033   3.515   0.418   0.243 -0.8298 -0.8221  1.0322
 9848TIP3   OH251034   3.737   1.740   6.332  0.0868 -0.1037  0.9318
 9848TIP3    H151035   3.743   1.654   6.374  0.7862  0.2681  1.6311
 9848TIP3    H251036   3.681   1.791   6.390  1.8838  0.7250  2.0118
 9849TIP3   OH251037   5.894   3.348   5.133  0.4401 -0.4117 -0.2073
 9849TIP3    H151038   5.822   3.369   5.075  0.6946  0.6864 -0.1365
 9849TIP3    H251039   5.852   3.327   5.217  0.2453  1.5916  0.2364
 9850TIP3   OH251040   0.326   1.023  12.185 -0.5570 -0.6836 -0.0880
 9850TIP3    H151041   0.318   0.937  12.145  0.3025 -0.9969  0.3946
 9850TIP3    H251042   0.400   1.064  12.140  1.2579 -1.5202  1.9612
 9851TIP3   OH251043   3.284   5.424   2.448 -0.5372  0.0782  0.6809
 9851TIP3    H151044   3.216   5.433   2.382 -0.2864  0.2148  0.4372
 9851TIP3    H251045   3.255   5.481   2.520 -0.7387  0.0420  0.6289
 9852TIP3   OH251046   5.207   0.520  15.059 -0.3799  0.4018 -0.2677
 9852TIP3    H151047   5.239   0.584  14.996 -1.0383  1.8789  0.8461
 9852TIP3    H251048   5.222   0.560  15.145 -0.0730 -1.2906  0.5216
 9853TIP3   OH251049   2.130   3.132   2.622  0.4755  0.4180  0.0469
 9853TIP3    H151050   2.173   3.084   2.693 -1.5662  2.1031  2.6382
 9853TIP3    H251051   2.120   3.068   2.552  1.9724 -1.5811  1.5384
 9854TIP3   OH251052   6.609   0.351   2.373 -0.4219 -0.0826  0.3284
 9854TIP3    H151053   6.662   0.286   2.419  0.2445  0.9849  1.1062
 9854TIP3    H251054   6.535   0.300   2.338  0.0630 -1.2502  0.9262
 9855TIP3   OH251055   6.032   0.996   2.438  0.0939 -0.2615  0.0237
 9855TIP3    H151056   5.969   0.985   2.367 -2.1505 -1.8525  2.1113
 9855TIP3    H251057   5.982   0.979   2.518  3.2663 -2.0704  1.8241
 9856TIP3   OH251058   1.925   2.444   5.053 -0.1558 -0.2122  0.4815
 9856TIP3    H151059   1.884   2.521   5.094  0.1925  0.8256 -1.0296
 9856TIP3    H251060   1.965   2.397   5.126  1.0972  1.9548  1.3081
 9857TIP3   OH251061   0.847   3.570   1.251  0.2465 -0.1188 -0.1354
 9857TIP3    H151062   0.864   3.500   1.313 -0.4021 -1.5843 -1.5447
 9857TIP3    H251063   0.772   3.617   1.289  1.0642  0.2223  1.1148
 9858TIP3   OH251064   4.883   1.721  15.299  0.5038  0.3819 -0.0411
 9858TIP3    H151065   4.866   1.700  15.391 -1.9918 -0.9407 -0.7081
 9858TIP3    H251066   4.911   1.639  15.261 -2.3033 -0.1646 -1.1926
 9859TIP3   OH251067   1.266   5.101   3.071 -0.4263  0.2431 -0.5972
 9859TIP3    H151068   1.339   5.162   3.085  0.0440 -0.5131  0.3797
 9859TIP3    H251069   1.238   5.077   3.159 -0.3504 -1.2327 -0.9542
 9860TIP3   OH251070   4.473   5.052  13.247  0.6215 -0.5260  0.3370
 9860TIP3    H151071   4.496   5.087  13.333  0.7957  1.2351 -0.3895
 9860TIP3    H251072   4.493   5.122  13.186 -1.9019 -0.7335 -0.8814
 9861TIP3   OH251073   1.001   4.823   1.870  0.4641  0.1720 -0.3089
 9861TIP3    H151074   1.089   4.803   1.903  0.9244 -2.6191 -2.7458
 9861TIP3    H251075   0.949   4.746   1.895 -0.6639  0.6982 -0.9756
 9862TIP3   OH251076   6.195   4.807   5.159 -0.0806 -0.6069 -0.5803
 9862TIP3    H151077   6.177   4.882   5.217 -0.9283 -1.3657  0.1782
 9862TIP3    H251078   6.219   4.847   5.076  0.6053  0.5201  0.1226
 9863TIP3   OH251079   6.806   4.138  14.330 -0.4289  0.2477 -0.4481
 9863TIP3    H151080   6.760   4.076  14.387 -2.0145  0.6717 -1.2074
 9863TIP3    H251081   6.796   4.223  14.375 -1.6252  0.5716 -1.2683
 9864TIP3   OH251082   0.368   6.069   5.015 -0.5032  0.0072 -0.8300
 9864TIP3    H151083   0.362   5.997   4.952  0.8319 -0.9153  0.0411
 9864TIP3    H251084   0.421   6.135   4.970  0.0518 -0.4535 -0.8714
 9865TIP3   OH251085   0.450   3.546  12.085  0.4240 -0.1272 -0.4009
 9865TIP3    H151086   0.511   3.485  12.125 -1.2632 -2.4942 -1.2568
 9865TIP3    H251087   0.506   3.612  12.043  2.2781 -0.3471  1.5297
 9866TIP3   OH251088   5.903   0.144   4.245 -0.3504  0.3856  0.5671
 9866TIP3    H151089   5.822   0.185   4.214 -0.6953 -1.2570 -0.8797
 9866TIP3    H251090   5.874   0.080   4.309 -0.3435 -0.8551 -0.6255
 9867TIP3   OH251091   4.997   1.297  17.074  0.0817 -0.6917  0.0873
 9867TIP3    H151092   5.084   1.262  17.056  0.2523  0.0823 -0.6561
 9867TIP3    H251093   4.945   1.220  17.097  1.4777 -0.9557  2.8730
 9868TIP3   OH251094   5.370   4.391   2.318 -0.4934  0.2684 -0.4383
 9868TIP3    H151095   5.432   4.463   2.305  0.8130 -0.6637  0.4493
 9868TIP3    H251096   5.302   4.428   2.375 -0.4100  1.1021 -0.8626
 9869TIP3   OH251097   6.202   4.132   3.125  0.4890  0.2940  0.1056
 9869TIP3    H151098   6.235   4.074   3.056  0.5288  0.2378  0.1716
 9869TIP3    H251099   6.137   4.080   3.171  0.1484  0.4800 -0.1616
 9870TIP3   OH251100   2.072   1.705  13.804  0.4652 -0.3267 -0.3570
 9870TIP3    H151101   2.046   1.709  13.896 -0.3375 -1.1035 -0.5403
 9870TIP3    H251102   2.166   1.686  13.807  0.1769 -1.7383  0.3094
 9871TIP3   OH251103   1.119   3.424   5.433  0.1879  0.3543  0.4278
 9871TIP3    H151104   1.211   3.436   5.412  0.0523  0.5579 -0.0827
 9871TIP3    H251105   1.087   3.362   5.368 -0.2087  0.8729  0.1189
 9872TIP3   OH251106   3.567   2.895   3.527  0.3263 -0.2137 -0.4769
 9872TIP3    H151107   3.530   2.910   3.613 -2.6265  0.6899 -1.7851
 9872TIP3    H251108   3.609   2.977   3.503 -0.0282 -0.0144 -0.4186
 9873TIP3   OH251109   1.131   4.994   2.576 -0.0459 -0.1647 -0.5532
 9873TIP3    H151110   1.138   4.993   2.672  1.6058 -1.2491 -0.6396
 9873TIP3    H251111   1.210   4.949   2.546 -0.6568 -0.0686 -2.4329
 9874TIP3   OH251112   6.633   5.466   4.755  0.6328  0.3269 -0.5576
 9874TIP3    H151113   6.610   5.403   4.823  1.1411  2.0784  1.3369
 9874TIP3    H251114   6.653   5.546   4.802  2.9917  1.0906 -2.6253
 9875TIP3   OH251115   0.653   5.151  14.543 -0.7726  0.4365  0.9470
 9875TIP3    H151116   0.610   5.175  14.461  0.3233  2.0548  0.8088
 9875TIP3    H251117   0.649   5.055  14.545 -0.9226  0.3690 -0.9323
 9876TIP3   OH251118   1.941   3.122   3.183  0.2578  1.0951 -0.4479
 9876TIP3    H151119   2.032   3.123   3.153  0.8108 -1.0851  0.9895
 9876TIP3    H251120   1.946   3.113   3.278 -1.4306 -1.4090 -0.5134
 9877TIP3   OH251121   1.219   2.107  11.441 -0.6330  0.8171 -0.0393
 9877TIP3    H151122   1.285   2.167  11.408 -0.6532  0.8445 -0.0295
 9877TIP3    H251123   1.166   2.084  11.365  0.5663 -0.7164 -0.4710
 9878TIP3   OH251124   6.485   3.559  15.249 -0.1734  0.3752  0.5562
 9878TIP3    H151125   6.423   3.491  15.274  1.5601 -1.1721  0.8590
 9878TIP3    H251126   6.557   3.513  15.206  1.1415  1.9814  0.8858
 9879TIP3   OH251127   0.209   4.183  12.252 -0.1324  0.7166 -0.0452
 9879TIP3    H151128   0.226   4.236  12.329 -1.0349  0.4480  0.3523
 9879TIP3    H251129   0.144   4.119  12.281  1.2167 -0.8884 -0.3776
 9880TIP3   OH251130   3.350   0.939  11.468 -0.5121  0.4989  0.6294
 9880TIP3    H151131   3.306   0.906  11.390 -0.3602  2.3822 -0.3151
 9880TIP3    H251132   3.406   0.867  11.496 -1.5132 -0.6606 -0.2598
 9881TIP3   OH251133   0.254   3.076  16.992 -0.0687 -0.5111 -0.3338
 9881TIP3    H151134   0.179   3.018  16.976 -0.7934 -0.0132  1.0848
 9881TIP3    H251135   0.331   3.021  16.974 -0.7475 -1.5714 -0.1021
 9882TIP3   OH251136   2.003   6.486  11.300  0.1426  0.2474  0.0554
 9882TIP3    H151137   2.037   6.570  11.329 -1.5614  1.1021 -0.3316
 9882TIP3    H251138   1.964   6.447  11.378 -0.2035  0.3935 -0.0444
 9883TIP3   OH251139   2.821   0.290  12.171 -0.5130 -0.7109  0.0552
 9883TIP3    H151140   2.831   0.342  12.250  0.0543 -3.2712  1.8050
 9883TIP3    H251141   2.910   0.270  12.143 -0.6704  1.2446 -2.0880
 9884TIP3   OH251142   4.277   5.512  12.901 -0.3875  0.3356  0.7675
 9884TIP3    H151143   4.304   5.477  12.816  0.9366  0.5151  1.0883
 9884TIP3    H251144   4.190   5.476  12.915  0.9149 -3.0742  1.1623
 9885TIP3   OH251145   6.017   2.922   3.015 -0.2598 -0.0135 -0.0788
 9885TIP3    H151146   6.052   2.998   2.969 -1.1169  1.0341  0.9328
 9885TIP3    H251147   5.976   2.869   2.947 -0.6736  1.0177 -0.6667
 9886TIP3   OH251148   3.272   4.292  11.704 -0.2650  0.1216  0.0201
 9886TIP3    H151149   3.199   4.321  11.649  0.7201 -0.9186 -1.9501
 9886TIP3    H251150   3.337   4.362  11.698 -0.6785  0.5914  0.9431
 9887TIP3   OH251151   5.666   0.768   0.512 -0.0160  0.0528  0.0536
 9887TIP3    H151152   5.653   0.686   0.464 -0.9218  0.2280 -0.0177
 9887TIP3    H251153   5.582   0.784   0.555  0.3862  0.5672  0.6636
 9888TIP3   OH251154   3.413   4.991  14.648  0.2345  0.0760 -0.5524
 9888TIP3    H151155   3.508   4.991  14.659  0.3115 -0.2231 -1.1354
 9888TIP3    H251156   3.379   4.963  14.733  0.6451  0.6380 -0.2001
 9889TIP3   OH251157   0.591   4.784   1.688  0.2801  0.1058  0.6518
 9889TIP3    H151158   0.498   4.805   1.699  0.7443  1.2781  3.3376
 9889TIP3    H251159   0.629   4.864   1.650  0.5043  0.5303  1.7198
 9890TIP3   OH251160   1.247   5.075   0.707 -0.1896  0.3414  0.3662
 9890TIP3    H151161   1.294   5.130   0.769 -0.2534 -1.2005  1.8716
 9890TIP3    H251162   1.177   5.131   0.672  2.3332  2.5338 -1.5561
 9891TIP3   OH251163   5.146   4.813  14.877  0.4225  0.2623  0.1275
 9891TIP3    H151164   5.107   4.892  14.840  0.8024  0.5039  0.2318
 9891TIP3    H251165   5.106   4.804  14.964 -1.1694 -0.8265 -0.6724
 9892TIP3   OH251166   2.732   0.474  12.409 -0.4694  0.2999 -0.3477
 9892TIP3    H151167   2.691   0.387  12.416 -1.4353  0.7902  0.1897
 9892TIP3    H251168   2.671   0.526  12.358  0.0986  0.6857 -0.6547
 9893TIP3   OH251169   2.475   4.138  13.697 -0.0328  0.2574  0.5203
 9893TIP3    H151170   2.464   4.216  13.644  1.1526  0.3547  0.3838
 9893TIP3    H251171   2.522   4.169  13.775  0.1208 -0.2525  0.6344
 9894TIP3   OH251172   1.042   1.662   1.250 -0.1607  0.0135 -0.3025
 9894TIP3    H151173   1.036   1.641   1.157  0.4332  1.8625 -0.8006
 9894TIP3    H251174   1.059   1.757   1.253 -1.3030  0.2259  1.7113
 9895TIP3   OH251175   5.153   0.918   1.112 -0.5515 -0.2894  0.0437
 9895TIP3    H151176   5.059   0.934   1.123 -0.6212  0.0101 -0.9095
 9895TIP3    H251177   5.195   0.980   1.171 -0.9358  0.3760 -0.3706
 9896TIP3   OH251178   6.350   6.386  11.464 -0.0673 -0.3719  0.7449
 9896TIP3    H151179   6.379   6.469  11.427 -0.9432  0.1496  1.1799
 9896TIP3    H251180   6.256   6.383  11.444  0.0439 -1.4731  0.3429
 9897TIP3   OH251181   5.458   0.810   1.295  0.0198 -0.0992  0.0046
 9897TIP3    H151182   5.462   0.718   1.268 -0.2685  0.5262 -2.4074
 9897TIP3    H251183   5.377   0.818   1.345  0.4491 -1.3107  0.9099
 9898TIP3   OH251184   0.977   0.532   0.734  0.2090  0.3247 -0.2818
 9898TIP3    H151185   0.898   0.479   0.717  0.2541  0.5083 -1.1011
 9898TIP3    H251186   1.048   0.468   0.738  0.2041  0.2768 -0.8672
 9899TIP3   OH251187   4.103   3.560   3.311 -0.7321 -0.0499 -0.3282
 9899TIP3    H151188   4.082   3.468   3.327 -1.0040 -0.4465 -2.5624
 9899TIP3    H251189   4.191   3.572   3.346 -1.6365 -0.4409  2.2686
 9900TIP3   OH251190   3.807   2.942   0.492 -0.0438  0.0200  0.5467
 9900TIP3    H151191   3.857   2.907   0.567 -0.1663  0.0579  0.6464
 9900TIP3    H251192   3.860   2.919   0.416 -0.5039 -1.0627  0.5428
 9901TIP3   OH251193   6.472   2.964   5.703  0.0969  0.1649 -0.7042
 9901TIP3    H151194   6.568   2.968   5.708  0.1422  0.7182 -1.8738
 9901TIP3    H251195   6.452   2.972   5.610 -1.1637  1.7054 -0.3346
 9902TIP3   OH251196   1.868   5.828   3.043 -0.8578  0.1733 -0.0338
 9902TIP3    H151197   1.814   5.796   3.115  0.2804 -2.6328 -0.2886
 9902TIP3    H251198   1.918   5.900   3.080 -0.1441 -1.3375  2.1045
 9903TIP3   OH251199   4.889   2.540   4.309 -0.0176  0.2249  0.4210
 9903TIP3    H151200   4.801   2.502   4.310 -1.4715  3.2217 -1.1664
 9903TIP3    H251201   4.925   2.515   4.224  2.3184 -3.9451  2.3084
 9904TIP3   OH251202   0.369   5.479  13.477  0.0839 -0.2331 -0.2740
 9904TIP3    H151203   0.408   5.557  13.517 -1.5096 -0.5338  2.0385
 9904TIP3    H251204   0.289   5.511  13.435 -0.3834 -0.5208  0.3701
 9905TIP3   OH251205   1.296   4.163   1.289  0.1065 -0.0275 -0.0594
 9905TIP3    H151206   1.301   4.177   1.384  0.8532 -1.6713  0.1787
 9905TIP3    H251207   1.249   4.240   1.256 -1.7892 -0.2620  1.8439
 9906TIP3   OH251208   5.269   5.755   4.222 -0.2036 -0.2427 -0.3437
 9906TIP3    H151209   5.290   5.834   4.273 -0.7945  0.8873 -1.7566
 9906TIP3    H251210   5.322   5.764   4.143  2.5698 -3.1851  0.9879
 9907TIP3   OH251211   1.757   2.870  10.714  0.0710 -0.1120 -0.3816
 9907TIP3    H151212   1.837   2.901  10.755  0.9061 -0.8827 -1.3613
 9907TIP3    H251213   1.780   2.858  10.622 -1.1529 -0.4164 -0.6743
 9908TIP3   OH251214   5.986   5.802   2.296 -0.0506  0.1251  0.0575
 9908TIP3    H151215   5.988   5.883   2.245  1.2330 -0.4625 -0.8873
 9908TIP3    H251216   5.962   5.734   2.232  0.9156 -0.5215  0.3656
 9909TIP3   OH251217   1.028   5.882  16.172  0.6022 -0.4375  0.4796
 9909TIP3    H151218   0.935   5.858  16.172  0.1977  0.9714  0.0658
 9909TIP3    H251219   1.071   5.813  16.123 -0.2683 -1.0010  0.4873
 9910TIP3   OH251220   1.470   0.186  16.310  0.6519  0.1594  0.5741
 9910TIP3    H151221   1.376   0.192  16.296  0.6762 -1.3795 -0.3823
 9910TIP3    H251222   1.484   0.229  16.395 -1.0523 -0.5392  1.2513
 9911TIP3   OH251223   6.805   5.313  14.679  0.1713 -0.2936 -0.1011
 9911TIP3    H151224   6.711   5.320  14.698  0.2387  1.1770 -0.1476
 9911TIP3    H251225   6.826   5.222  14.695 -1.1043 -0.4715  0.7257
 9912TIP3   OH251226   1.251   2.210   5.800  0.1239  0.3420 -0.1428
 9912TIP3    H151227   1.196   2.287   5.791 -0.9114 -0.4950 -1.3166
 9912TIP3    H251228   1.237   2.180   5.890 -1.3240  0.1789 -0.4007
 9913TIP3   OH251229   3.812   1.985   5.706  0.5921  0.2456 -0.2336
 9913TIP3    H151230   3.749   1.920   5.738  1.9238 -2.1610 -2.1462
 9913TIP3    H251231   3.865   2.007   5.783 -0.1167 -0.6716  0.5387
 9914TIP3   OH251232   2.798   6.159  13.005  0.0763 -0.4180  0.6670
 9914TIP3    H151233   2.842   6.195  13.083  1.1388 -0.0345 -0.0854
 9914TIP3    H251234   2.755   6.234  12.965  1.0594 -0.2395 -0.0963
 9915TIP3   OH251235   0.831   3.558   0.334 -0.5217  0.7087  0.3615
 9915TIP3    H151236   0.773   3.483   0.320  0.3299 -0.0202  0.6338
 9915TIP3    H251237   0.833   3.602   0.250 -0.9280  0.3491  0.1566
 9916TIP3   OH251238   5.963   6.433   4.861 -0.3842 -0.4363 -0.1944
 9916TIP3    H151239   6.019   6.385   4.800  1.3811 -1.0861  1.7926
 9916TIP3    H251240   6.019   6.503   4.895 -1.5474  0.3530  0.1450
 9917TIP3   OH251241   0.170   4.921   0.058  0.2251  0.8956  0.2066
 9917TIP3    H151242   0.109   4.976   0.010 -1.5098 -0.0969  1.1903
 9917TIP3    H251243   0.117   4.849   0.092  1.9781 -0.1221  0.9515
 9918TIP3   OH251244   1.672   0.542  14.072  0.0054  0.1093 -0.1803
 9918TIP3    H151245   1.615   0.586  14.136  0.7936  0.4835  0.2758
 9918TIP3    H251246   1.690   0.610  14.007 -0.7425 -0.2529 -0.7850
 9919TIP3   OH251247   3.658   6.267  13.242  0.0014 -0.1051 -0.3065
 9919TIP3    H151248   3.662   6.235  13.332  1.3706 -0.1158 -0.3471
 9919TIP3    H251249   3.567   6.251  13.215 -0.4339 -0.0857  1.0644
 9920TIP3   OH251250   2.618   0.285   0.215  0.8043 -0.4809  0.0047
 9920TIP3    H151251   2.632   0.308   0.307  2.7788  0.4787 -0.4680
 9920TIP3    H251252   2.707   0.284   0.177  0.1292 -1.7115 -1.7033
 9921TIP3   OH251253   0.290   6.280   0.246  0.7243 -0.2994 -0.1793
 9921TIP3    H151254   0.291   6.223   0.169 -1.6630 -1.9870  0.9309
 9921TIP3    H251255   0.281   6.368   0.210  0.0508 -1.0082 -1.8537
 9922TIP3   OH251256   0.628   0.194   5.661  0.4870  0.2914 -0.0331
 9922TIP3    H151257   0.699   0.184   5.725  0.1680  1.1434  0.4645
 9922TIP3    H251258   0.614   0.288   5.655  0.1572  0.1970 -0.9863
 9923TIP3   OH251259   6.064   6.709   5.498  0.2874  0.7877 -0.2305
 9923TIP3    H151260   6.053   6.672   5.411  0.1923  1.8232 -0.6678
 9923TIP3    H251261   6.022   6.794   5.494 -1.6508 -0.0022  1.4764
 9924TIP3   OH251262   2.775   1.738  15.148 -0.1006  0.0996 -0.0726
 9924TIP3    H151263   2.800   1.671  15.212 -2.8013  0.6072  1.6691
 9924TIP3    H251264   2.831   1.813  15.170 -0.3396 -0.0502  1.1308
 9925TIP3   OH251265   1.833   6.106   1.104 -0.6839 -0.2853  0.3443
 9925TIP3    H151266   1.873   6.169   1.045 -1.7234 -0.0922 -0.1637
 9925TIP3    H251267   1.899   6.037   1.113 -0.0239  0.2816 -0.0466
 9926TIP3   OH251268   3.124   6.001  12.182 -0.2211 -0.2682 -0.4798
 9926TIP3    H151269   3.122   6.097  12.184  0.9634 -0.2020  2.2400
 9926TIP3    H251270   3.049   5.975  12.235  0.4135 -0.7680  0.1944
 9927TIP3   OH251271   6.648   4.208  12.933 -0.3094 -0.1561 -0.0498
 9927TIP3    H151272   6.740   4.202  12.959  0.9212  2.5480 -3.0487
 9927TIP3    H251273   6.643   4.159  12.851 -1.4641  0.1201 -0.1620
 9928TIP3   OH251274   4.265   1.808  16.784 -0.4329 -0.4597  0.3512
 9928TIP3    H151275   4.234   1.811  16.694 -0.7081 -3.8570  0.2091
 9928TIP3    H251276   4.205   1.749  16.829  0.5266  0.0283  2.4051
 9929TIP3   OH251277   2.651   0.827   3.933 -0.6712  0.0094  0.2282
 9929TIP3    H151278   2.738   0.787   3.931 -1.1956 -1.2609  1.4203
 9929TIP3    H251279   2.652   0.889   3.860  0.6595 -1.1661 -0.8214
 9930TIP3   OH251280   5.861   6.121   2.243  0.0120  0.2257  0.5371
 9930TIP3    H151281   5.912   6.131   2.162  0.5197 -2.2376  0.4876
 9930TIP3    H251282   5.770   6.115   2.212  0.1070  0.2837  0.2390
 9931TIP3   OH251283   4.039   1.202   2.692  0.2682  0.1595 -0.4164
 9931TIP3    H151284   4.060   1.292   2.717 -1.2698 -0.1640  2.4949
 9931TIP3    H251285   3.944   1.201   2.683  0.3802 -0.8900 -1.8648
 9932TIP3   OH251286   0.656   6.268   1.235 -0.5236  0.0422  0.5127
 9932TIP3    H151287   0.610   6.347   1.207  0.5291  0.8421  1.0248
 9932TIP3    H251288   0.676   6.222   1.153 -3.2258 -0.9555  0.2839
 9933TIP3   OH251289   5.871   0.318  14.965  0.2901 -0.2093 -0.4895
 9933TIP3    H151290   5.843   0.387  15.026  0.1574 -0.5055 -0.2158
 9933TIP3    H251291   5.927   0.261  15.017  1.0017  0.0934 -0.9032
 9934TIP3   OH251292   0.266   2.485   5.232 -0.0832 -0.0297 -0.2486
 9934TIP3    H151293   0.345   2.489   5.285  1.0652  2.7719 -1.9323
 9934TIP3    H251294   0.296   2.455   5.146 -1.2754 -1.1087 -0.3205
 9935TIP3   OH251295   3.898   2.180   3.930  0.0889  0.2656  0.2665
 9935TIP3    H151296   3.880   2.207   4.021  0.3877  0.5761  0.2351
 9935TIP3    H251297   3.833   2.228   3.878  0.1167  0.3270  0.2878
 9936TIP3   OH251298   4.673   6.251   1.716 -0.3932 -0.1330 -0.2971
 9936TIP3    H151299   4.695   6.195   1.791 -2.1661  0.0977  0.4401
 9936TIP3    H251300   4.664   6.338   1.754  1.2266  0.5042 -1.2531
 9937TIP3   OH251301   0.095   2.557   1.856  0.2410  0.5660 -0.3138
 9937TIP3    H151302   0.112   2.651   1.851  1.7992  0.3081 -0.3075
 9937TIP3    H251303   0.172   2.516   1.816 -0.1787 -0.7176  0.1365
 9938TIP3   OH251304   0.415   3.643   6.741  0.1340 -0.1780  0.2300
 9938TIP3    H151305   0.352   3.623   6.810  2.0110 -1.2198  1.7521
 9938TIP3    H251306   0.442   3.733   6.759 -1.0007  0.3426 -0.5465
 9939TIP3   OH251307   1.067   5.387   3.039 -0.0577 -0.4009 -0.9422
 9939TIP3    H151308   1.154   5.395   3.080 -0.2450 -0.7716 -0.4539
 9939TIP3    H251309   1.085   5.360   2.949  0.3032 -1.8270 -0.4670
 9940TIP3   OH251310   6.583   6.710  12.550  0.8500  0.5320  0.1537
 9940TIP3    H151311   6.678   6.725  12.544  0.8992  0.3597  0.4773
 9940TIP3    H251312   6.557   6.685  12.462  1.5884 -2.2073  0.6299
 9941TIP3   OH251313   2.781   3.858   5.774 -0.5742  0.1652  0.2002
 9941TIP3    H151314   2.860   3.857   5.828 -0.1095 -2.0601 -0.4182
 9941TIP3    H251315   2.718   3.911   5.824  0.5294 -0.0152  1.8620
 9942TIP3   OH251316   6.326   1.887   4.275  0.0550 -1.0947 -0.7631
 9942TIP3    H151317   6.338   1.862   4.184  1.6856 -1.3384 -0.5027
 9942TIP3    H251318   6.409   1.865   4.318 -0.0602  0.5829  0.4329
 9943TIP3   OH251319   4.498   1.564   1.967  0.3902 -0.0869  0.1201
 9943TIP3    H151320   4.432   1.622   1.930  0.9984 -0.7232 -2.0987
 9943TIP3    H251321   4.581   1.600   1.935  1.0828  0.1134  2.0299
 9944TIP3   OH251322   6.152   2.316   2.203 -0.2986  0.4604  0.4185
 9944TIP3    H151323   6.169   2.245   2.142  2.0681 -0.1112  1.6302
 9944TIP3    H251324   6.166   2.277   2.290 -2.2673  1.5745  1.3141
 9945TIP3   OH251325   4.194   4.448   0.280 -0.4798 -0.8974  0.1378
 9945TIP3    H151326   4.286   4.456   0.306 -0.4862  1.5224 -0.3446
 9945TIP3    H251327   4.195   4.464   0.186 -1.4684 -0.2686  0.2309
 9946TIP3   OH251328   2.620   5.878  14.955  0.5771  0.1420  0.7516
 9946TIP3    H151329   2.618   5.917  15.042 -0.2094 -1.5877  1.5538
 9946TIP3    H251330   2.626   5.784  14.971 -1.2202 -0.3343 -1.0054
 9947TIP3   OH251331   5.610   1.859  11.903  0.0982  0.6328 -0.3416
 9947TIP3    H151332   5.560   1.855  11.985  1.1101  0.0272  0.2695
 9947TIP3    H251333   5.602   1.950  11.875  0.3598  1.0384  0.8416
 9948TIP3   OH251334   5.795   5.374  15.464 -0.3053 -0.0139  0.2164
 9948TIP3    H151335   5.748   5.326  15.396 -0.9552 -0.4090  0.9236
 9948TIP3    H251336   5.731   5.383  15.535  0.9331 -1.3377  1.5606
 9949TIP3   OH251337   1.411   6.555  14.454 -0.5520  0.0151 -0.0128
 9949TIP3    H151338   1.454   6.516  14.378 -0.2828 -1.3320  0.7978
 9949TIP3    H251339   1.455   6.516  14.529 -1.5061  0.5354  0.8441
 9950TIP3   OH251340   6.282   3.935   2.940 -0.1814  0.0188 -0.3425
 9950TIP3    H151341   6.224   3.882   2.886 -1.0625  0.3893  0.2211
 9950TIP3    H251342   6.355   3.958   2.882  0.9785 -2.9519 -0.2430
 9951TIP3   OH251343   2.558   5.564   4.861  0.5699 -0.2647 -0.1787
 9951TIP3    H151344   2.571   5.658   4.850  0.3413 -0.3365 -1.1385
 9951TIP3    H251345   2.471   5.556   4.901  0.4470 -0.0745 -0.4018
 9952TIP3   OH251346   2.399   5.331   6.026  0.6010  0.5407  0.2231
 9952TIP3    H151347   2.377   5.239   6.041  0.7175  0.2942 -0.9765
 9952TIP3    H251348   2.457   5.354   6.098  0.0554 -0.1369  0.8926
 9953TIP3   OH251349   1.564   0.293   2.080  0.6874  0.1231  0.3375
 9953TIP3    H151350   1.537   0.367   2.027  0.5699  2.2813  3.1717
 9953TIP3    H251351   1.635   0.327   2.135  0.1232 -1.6079  2.2788
 9954TIP3   OH251352   1.320   3.241   0.881 -0.1053  0.0893  0.2360
 9954TIP3    H151353   1.273   3.175   0.831 -1.3908 -0.5460  2.1822
 9954TIP3    H251354   1.253   3.301   0.912  0.9898  2.2011 -1.1837
 9955TIP3   OH251355   4.269   2.701   2.823 -0.2941 -0.2377  0.4638
 9955TIP3    H151356   4.341   2.753   2.857 -0.0119 -1.0539  1.1416
 9955TIP3    H251357   4.252   2.738   2.736  2.9739 -1.9650 -1.0591
 9956TIP3   OH251358   0.218   5.600   0.168  0.3579  0.3848 -0.0812
 9956TIP3    H151359   0.190   5.518   0.128 -0.6457  1.2271 -1.1824
 9956TIP3    H251360   0.202   5.588   0.261 -3.6987  0.7119 -0.5654
 9957TIP3   OH251361   3.199   6.448  16.448  0.1638 -0.5371 -0.0800
 9957TIP3    H151362   3.226   6.527  16.401 -1.1233  0.2909  0.5185
 9957TIP3    H251363   3.176   6.479  16.536 -0.3943 -1.5705  0.1525
 9958TIP3   OH251364   0.188   0.199   2.234  0.3426  0.2081 -0.3438
 9958TIP3    H151365   0.103   0.239   2.216 -0.3223  0.0514  2.0423
 9958TIP3    H251366   0.167   0.107   2.255  0.6414  0.7570  2.9006
 9959TIP3   OH251367   5.232   6.769  16.463  0.4182  0.3883 -0.1514
 9959TIP3    H151368   5.304   6.738  16.408 -0.0739  1.3343 -1.3813
 9959TIP3    H251369   5.220   6.700  16.528  1.1273 -0.6980 -1.1345
 9960TIP3   OH251370   3.410   2.057   1.050  0.4817  0.0287  0.0754
 9960TIP3    H151371   3.371   1.998   1.114  0.1420 -0.5568 -0.6599
 9960TIP3    H251372   3.336   2.087   0.996  0.8232  0.1709 -0.3216
 9961TIP3   OH251373   0.073   5.991   6.692 -0.1525 -0.5450  0.3962
 9961TIP3    H151374   0.135   6.032   6.752 -0.5484  0.0288  0.4208
 9961TIP3    H251375   0.098   5.899   6.690  0.3064 -0.4322  0.8912
 9962TIP3   OH251376   0.727   1.952  15.468  0.4994  0.6156  0.9051
 9962TIP3    H151377   0.652   1.996  15.429  0.1893 -0.2408  0.5030
 9962TIP3    H251378   0.790   1.942  15.396  0.3609 -0.0188  0.8585
 9963TIP3   OH251379   1.311   4.632   1.671  0.2513  0.3615  0.5537
 9963TIP3    H151380   1.361   4.712   1.652 -1.7323  1.6735  0.5035
 9963TIP3    H251381   1.282   4.601   1.585 -1.2130  1.1619  0.7253
 9964TIP3   OH251382   0.866   2.207  10.980  0.1023  0.0384 -0.3560
 9964TIP3    H151383   0.892   2.247  11.063  0.4117 -1.0319  0.0867
 9964TIP3    H251384   0.943   2.158  10.952 -0.8683 -1.8556  0.1506
 9965TIP3   OH251385   6.271   3.169   0.509 -0.1245  0.5779  0.8835
 9965TIP3    H151386   6.206   3.234   0.536 -0.2860  1.1762 -0.8501
 9965TIP3    H251387   6.288   3.189   0.417 -0.2896 -1.9619  0.2518
 9966TIP3   OH251388   0.213   1.409   2.336 -0.0168  0.4200  0.4454
 9966TIP3    H151389   0.230   1.338   2.275 -4.7752  0.6680 -1.5829
 9966TIP3    H251390   0.251   1.486   2.294  0.5599 -0.1080 -0.0158
 9967TIP3   OH251391   5.841   0.566   5.653  0.5469  0.7138  0.7695
 9967TIP3    H151392   5.861   0.651   5.693 -1.5584  1.2019  0.8866
 9967TIP3    H251393   5.854   0.580   5.559 -1.5077  1.7704  0.5791
 9968TIP3   OH251394   3.943   3.051  15.900 -0.4743 -0.1208 -0.3567
 9968TIP3    H151395   3.935   3.140  15.934 -1.7617  0.0467 -1.0344
 9968TIP3    H251396   4.032   3.024  15.924 -0.4938  0.8778  0.9436
 9969TIP3   OH251397   3.135   3.661  14.508 -0.4664 -1.0016  0.3791
 9969TIP3    H151398   3.166   3.570  14.506  0.6836 -0.6186 -0.3163
 9969TIP3    H251399   3.055   3.659  14.456 -1.8392 -2.0657  2.4201
 9970TIP3   OH251400   5.795   2.334   6.099 -0.1982  0.6975 -0.3337
 9970TIP3    H151401   5.836   2.369   6.020 -1.1430  0.4437 -0.9606
 9970TIP3    H251402   5.714   2.294   6.067 -1.2916  1.8037  0.9490
 9971TIP3   OH251403   1.776   3.552   2.547 -0.0390  0.4122  0.0152
 9971TIP3    H151404   1.722   3.629   2.531  1.9254  1.5388 -1.5093
 9971TIP3    H251405   1.815   3.567   2.633 -0.5285  0.5555  0.2149
 9972TIP3   OH251406   1.956   5.645  11.969 -0.3313  0.2897 -0.7002
 9972TIP3    H151407   1.942   5.553  11.944 -1.4502  0.1435  0.3381
 9972TIP3    H251408   2.051   5.656  11.969  0.0738 -1.9313  2.6237
 9973TIP3   OH251409   2.302   0.463  11.356  0.1538 -0.4428  0.4830
 9973TIP3    H151410   2.221   0.418  11.335  0.1775  0.0188 -0.6500
 9973TIP3    H251411   2.366   0.428  11.294  0.0304  1.5369 -0.8777
 9974TIP3   OH251412   0.791   6.346  13.519 -0.3745  0.2533 -0.1247
 9974TIP3    H151413   0.833   6.369  13.437 -0.1504 -0.1487 -0.1286
 9974TIP3    H251414   0.858   6.296  13.567  0.2811  2.2809  1.2286
 9975TIP3   OH251415   0.164   6.446   6.473 -0.3026  0.2541  0.2977
 9975TIP3    H151416   0.109   6.486   6.540 -2.8166 -0.3526 -1.2494
 9975TIP3    H251417   0.109   6.378   6.434  2.2528 -1.7060 -0.1651
 9976TIP3   OH251418   0.031   1.733  12.403  0.0474 -0.1759  0.5183
 9976TIP3    H151419   0.066   1.660  12.351  3.3956  1.2573  0.5620
 9976TIP3    H251420  -0.008   1.690  12.479  2.6973 -1.9503  0.9866
 9977TIP3   OH251421   1.661   0.617   5.308 -1.1323  0.9686  0.1225
 9977TIP3    H151422   1.648   0.712   5.316 -0.9766  1.3427 -2.8719
 9977TIP3    H251423   1.573   0.580   5.313 -1.1293  1.1410  2.0759
 9978TIP3   OH251424   5.489   4.434  16.667 -0.6326  0.0086 -0.1903
 9978TIP3    H151425   5.519   4.364  16.610 -2.2184 -0.7773 -0.0889
 9978TIP3    H251426   5.522   4.514  16.625  1.0876 -0.7443 -0.3662
 9979TIP3   OH251427   3.624   3.640   1.283  0.4905 -0.6659  0.3144
 9979TIP3    H151428   3.636   3.551   1.315 -2.2465 -0.8416  1.1585
 9979TIP3    H251429   3.538   3.666   1.318  1.4628  2.5343  0.6047
 9980TIP3   OH251430   3.785   0.497  14.340  0.3759  0.3368  0.0356
 9980TIP3    H151431   3.712   0.457  14.293  0.8314 -0.2018 -0.2306
 9980TIP3    H251432   3.819   0.427  14.396  1.7762  0.0192 -1.1228
 9981TIP3   OH251433   4.886   0.467   3.266 -0.1553 -0.3464 -0.0231
 9981TIP3    H151434   4.889   0.380   3.306 -1.5283  0.8100  2.9076
 9981TIP3    H251435   4.887   0.527   3.341 -1.4577  2.0874 -1.8282
 9982TIP3   OH251436   1.951   2.956   0.178 -0.4387  0.0292  0.4479
 9982TIP3    H151437   1.922   3.014   0.108 -1.0621 -1.9209 -1.0193
 9982TIP3    H251438   1.870   2.913   0.207  0.1007 -0.7001  0.8898
 9983TIP3   OH251439   3.906   4.309  15.414  0.0863  0.2466 -0.0163
 9983TIP3    H151440   3.927   4.235  15.472 -1.5647 -1.2255 -1.1978
 9983TIP3    H251441   3.819   4.288  15.379  0.7177  1.4209 -2.4920
 9984TIP3   OH251442   6.505   2.756  11.359  0.6456 -0.2498 -0.1065
 9984TIP3    H151443   6.431   2.696  11.366  0.2037  0.4084  1.2770
 9984TIP3    H251444   6.551   2.728  11.280  1.4917 -3.5338  1.3862
 9985TIP3   OH251445   5.303   1.496  16.275  0.1371 -0.6312 -0.2796
 9985TIP3    H151446   5.366   1.424  16.270 -1.8635 -2.4952 -0.1150
 9985TIP3    H251447   5.283   1.516  16.184  2.0742  1.1049 -0.4028
 9986TIP3   OH251448   6.337   3.657   0.901 -0.0968  0.6735  0.1715
 9986TIP3    H151449   6.306   3.569   0.922 -0.0495  0.5572 -0.2285
 9986TIP3    H251450   6.428   3.644   0.874  0.1404  0.9448  0.8270
 9987TIP3   OH251451   4.522   2.994   2.521  0.2395  0.0914  0.7019
 9987TIP3    H151452   4.533   3.039   2.605  2.0621 -1.8159  1.5878
 9987TIP3    H251453   4.592   3.029   2.466  0.5637 -0.3482  0.8200
 9988TIP3   OH251454   4.853   0.089  13.345  0.3251 -0.2284 -0.5288
 9988TIP3    H151455   4.907   0.013  13.320  2.0674  0.7384  0.1244
 9988TIP3    H251456   4.815   0.064  13.429 -1.4587 -1.4801 -1.6463
 9989TIP3   OH251457   4.956   5.099   4.495 -0.4554  0.1428 -0.0525
 9989TIP3    H151458   4.990   5.184   4.525 -1.2245  0.5411 -0.2725
 9989TIP3    H251459   4.978   5.038   4.565 -1.6031  0.9152  1.0176
 9990TIP3   OH251460   2.154   4.066   1.264  0.3304  0.9223  0.3523
 9990TIP3    H151461   2.218   4.099   1.200  2.9472  1.2341  2.8941
 9990TIP3    H251462   2.188   4.096   1.348 -2.3073 -0.4445  2.0310
 9991TIP3   OH251463   2.906   1.101   4.935 -0.1419 -0.2428 -0.0954
 9991TIP3    H151464   2.958   1.023   4.917  0.4272 -0.3847  2.0081
 9991TIP3    H251465   2.838   1.072   4.996 -0.3508  0.7519  0.1637
 9992TIP3   OH251466   0.103   4.238   3.558  0.3037  0.3719 -0.0048
 9992TIP3    H151467   0.050   4.160   3.541  0.1082 -0.0929  2.4153
 9992TIP3    H251468   0.051   4.310   3.523  0.8840 -0.5524 -3.0910
 9993TIP3   OH251469   5.457   5.924   1.458 -0.0064 -0.2596 -0.2937
 9993TIP3    H151470   5.468   5.968   1.543  0.8775  1.2385 -1.1309
 9993TIP3    H251471   5.541   5.880   1.443 -0.0221 -0.1981 -0.5652
 9994TIP3   OH251472   1.373   3.162  11.390 -0.3730  0.1197  0.4817
 9994TIP3    H151473   1.385   3.230  11.323 -2.2844  1.5798  1.5084
 9994TIP3    H251474   1.390   3.207  11.472  1.2233 -1.4616  1.0760
 9995TIP3   OH251475   4.937   4.512  11.316  0.2915 -0.0959 -0.7449
 9995TIP3    H151476   4.962   4.564  11.393 -1.2942  3.6162 -2.4700
 9995TIP3    H251477   5.018   4.470  11.288  1.0974 -0.8117  2.3528
 9996TIP3   OH251478   1.982   0.599  15.783 -0.1766  0.4140  0.5177
 9996TIP3    H151479   1.925   0.659  15.831 -2.0803 -1.1321  0.3106
 9996TIP3    H251480   1.958   0.513  15.815  1.0164 -0.4037 -0.6932
 9997TIP3   OH251481   1.720   6.399   2.028  0.5096 -0.0641  0.5739
 9997TIP3    H151482   1.681   6.335   1.968  0.4872 -0.5617  1.1197
 9997TIP3    H251483   1.743   6.473   1.971  1.1002 -0.7899 -0.1643
 9998TIP3   OH251484   6.762   5.810   4.215 -0.2296  0.4275 -0.8527
 9998TIP3    H151485   6.727   5.782   4.130 -0.5086  1.2626 -1.0201
 9998TIP3    H251486   6.686   5.841   4.263 -0.4505 -2.0976  0.5806
 9999TIP3   OH251487   2.525   5.704   3.037 -0.8008  0.0571  0.6184
 9999TIP3    H151488   2.531   5.786   3.086 -0.8288  0.8506 -0.6540
 9999TIP3    H251489   2.607   5.658   3.057  0.2574  1.4128 -0.3530
10000TIP3   OH251490   0.829   1.162  16.424  0.3405  0.1720  0.1217
10000TIP3    H151491   0.750   1.213  16.405  1.0204  0.5626 -1.7834
10000TIP3    H251492   0.833   1.097  16.354  1.3051 -0.3505  0.6483
10001TIP3   OH251493   5.199   0.832   0.819 -0.0203  0.1644 -0.4543
10001TIP3    H151494   5.197   0.866   0.909 -0.6096  1.6092 -0.9833
10001TIP3    H251495   5.153   0.749   0.823 -1.3777  0.9259  0.3187
10002TIP3   OH251496   2.063   3.870  16.367 -0.0927  0.0771 -0.0228
10002TIP3    H151497   1.987   3.900  16.416 -0.3221  0.2387 -0.4718
10002TIP3    H251498   2.137   3.881  16.428 -0.2953  0.7695  0.1070
10003TIP3   OH251499   4.518   2.246  14.643 -0.3322 -0.4651  0.4854
10003TIP3    H151500   4.533   2.333  14.680  1.1216  0.3195 -1.7141
10003TIP3    H251501   4.423   2.235  14.645 -0.4652  0.6668  1.8483
10004TIP3   OH251502   0.834   0.139  12.795  0.1671  0.1988  0.1582
10004TIP3    H151503   0.764   0.190  12.755  0.2756  1.3259  1.3344
10004TIP3    H251504   0.789   0.076  12.851  0.0146 -1.4028 -1.6836
10005TIP3   OH251505   2.595   5.691   3.686 -0.3675  0.3393  0.2196
10005TIP3    H151506   2.551   5.608   3.670  0.1048  0.1010  0.1290
10005TIP3    H251507   2.533   5.743   3.737 -1.0797  0.3257 -0.6186
10006TIP3   OH251508   4.973   4.192  16.606 -0.2087  0.5391  0.0701
10006TIP3    H151509   5.028   4.255  16.650 -0.3222  0.1573  0.7691
10006TIP3    H251510   4.891   4.239  16.589  0.1897  0.9940 -0.6515
10007TIP3   OH251511   2.347   4.620   0.957 -0.3857 -0.2095 -0.4039
10007TIP3    H151512   2.413   4.624   1.026  1.0413  0.0267 -1.7211
10007TIP3    H251513   2.398   4.611   0.876 -1.9763  0.0396 -1.4737
10008TIP3   OH251514   0.280   0.278  16.897  0.0059 -0.3233  0.2127
10008TIP3    H151515   0.339   0.353  16.905  0.0522 -0.3336 -0.0281
10008TIP3    H251516   0.321   0.209  16.948  0.9124 -0.7724 -1.0833
10009TIP3   OH251517   0.893   2.731   3.019  0.3517 -0.0144  0.1562
10009TIP3    H151518   0.954   2.753   3.089 -0.2225 -2.1535  1.4162
10009TIP3    H251519   0.810   2.715   3.064 -0.1383 -0.9960 -1.0486
10010TIP3   OH251520   3.657   2.176   3.051  0.0888  0.0240  0.1176
10010TIP3    H151521   3.741   2.159   3.093 -0.5536 -2.0098  0.7129
10010TIP3    H251522   3.677   2.186   2.958  0.9314 -0.9116  0.1876
10011TIP3   OH251523   6.033   0.511   3.881 -0.0472  0.0334 -0.0518
10011TIP3    H151524   5.977   0.474   3.949 -0.0294  0.7337  0.3599
10011TIP3    H251525   6.004   0.469   3.800 -1.5130  0.7303  0.0703
10012TIP3   OH251526   1.950   5.859  12.712 -0.0923 -0.6118 -0.0196
10012TIP3    H151527   1.962   5.772  12.750 -2.0286 -0.1540  1.8279
10012TIP3    H251528   1.905   5.909  12.780 -0.9037  1.2308 -1.8078
10013TIP3   OH251529   6.449   5.263   5.215 -0.4408  0.1069  0.0367
10013TIP3    H151530   6.441   5.272   5.310 -1.5362  2.4878 -0.2251
10013TIP3    H251531   6.512   5.331   5.189 -1.6143  0.7841 -1.1289
10014TIP3   OH251532   6.673   0.755   1.373 -0.2753 -0.0549  0.2233
10014TIP3    H151533   6.664   0.723   1.283 -2.2714 -0.2288  0.4420
10014TIP3    H251534   6.691   0.849   1.364  0.3773 -0.2279 -0.3518
10015TIP3   OH251535   4.334   5.758   2.392  0.0890  0.0559  0.4445
10015TIP3    H151536   4.280   5.819   2.342 -0.3293 -1.1132 -0.5726
10015TIP3    H251537   4.292   5.755   2.478 -0.6109  0.2771  0.1228
10016TIP3   OH251538   5.643   5.045   5.681  0.3820  0.1856 -0.0459
10016TIP3    H151539   5.555   5.019   5.711  0.0962 -1.3829 -2.0945
10016TIP3    H251540   5.702   5.012   5.749 -0.2115 -3.6315 -1.1615
10017TIP3   OH251541   4.678   4.070  12.406 -0.4127  0.1682  0.6182
10017TIP3    H151542   4.644   4.046  12.492 -1.2959 -1.7147 -0.2053
10017TIP3    H251543   4.599   4.085  12.353  0.0120 -1.5322 -0.5845
10018TIP3   OH251544   6.000   4.076   1.571 -0.1808  0.0398  0.0671
10018TIP3    H151545   5.940   4.008   1.540  0.7525 -0.6654 -0.2465
10018TIP3    H251546   6.056   4.094   1.495  0.3516  0.3051  0.5222
10019TIP3   OH251547   3.133   1.719  11.139  0.0668  0.0660 -0.8813
10019TIP3    H151548   3.146   1.783  11.069  0.0220 -3.0589 -4.0782
10019TIP3    H251549   3.080   1.650  11.099  0.5112 -2.2392  2.0867
10020TIP3   OH251550   0.300   0.042  13.095  0.4434 -0.1234 -0.6758
10020TIP3    H151551   0.302   0.024  13.001  0.8111 -1.2845 -0.4623
10020TIP3    H251552   0.384   0.084  13.113  0.7478 -0.7043 -0.7215
10021TIP3   OH251553   2.640   6.204  14.497  0.9002 -0.0130 -0.2941
10021TIP3    H151554   2.656   6.258  14.574 -1.7854  1.2235 -0.4821
10021TIP3    H251555   2.726   6.189  14.460  2.1001  0.9011  1.9069
10022TIP3   OH251556   4.371   5.123   5.080 -0.4636  0.3157 -0.2448
10022TIP3    H151557   4.320   5.059   5.130 -1.9039  2.7619  1.6586
10022TIP3    H251558   4.462   5.103   5.101 -0.9286 -0.4401  1.1459
10023TIP3   OH251559   1.414   1.451   4.162 -0.2212  0.9823  0.2663
10023TIP3    H151560   1.354   1.378   4.153 -1.1425  1.4805  2.0819
10023TIP3    H251561   1.491   1.424   4.111 -0.2231 -1.5645  1.4711
10024TIP3   OH251562   3.108   1.507   2.876 -0.2180 -0.2876  0.3755
10024TIP3    H151563   3.192   1.480   2.839 -0.5186  0.7206 -1.1040
10024TIP3    H251564   3.050   1.518   2.800 -1.9692 -1.8002  1.4028
10025TIP3   OH251565   5.166   0.784   5.126 -0.1398  0.4723 -0.3258
10025TIP3    H151566   5.175   0.733   5.207  0.0793 -0.6879 -1.0609
10025TIP3    H251567   5.255   0.790   5.091 -0.3699  0.0896 -0.9991
10026TIP3   OH251568   5.081   3.103   5.997  0.4144  0.4411 -0.4049
10026TIP3    H151569   5.092   3.100   6.092  1.7548 -1.5580 -0.5683
10026TIP3    H251570   5.074   3.197   5.976  1.2921  0.9833  1.5302
10027TIP3   OH251571   2.693   2.719   4.543 -0.2158  0.2299  0.2982
10027TIP3    H151572   2.669   2.629   4.562 -1.3488  0.6163  0.8030
10027TIP3    H251573   2.662   2.769   4.619 -0.5245  1.1732 -0.4169
10028TIP3   OH251574   4.102   5.450   4.157  0.0363 -0.1321 -0.9057
10028TIP3    H151575   4.153   5.531   4.158  1.4737 -0.9566  1.6688
10028TIP3    H251576   4.034   5.463   4.223  2.1582 -1.9623  1.9064
10029TIP3   OH251577   4.092   2.635   2.530  0.6146 -0.4621  0.1714
10029TIP3    H151578   4.021   2.671   2.583 -0.1951 -0.9341 -0.5743
10029TIP3    H251579   4.153   2.708   2.520 -0.1577  0.1957  0.1400
10030TIP3   OH251580   5.048   0.696   1.979 -0.6650  0.2714  0.0612
10030TIP3    H151581   4.979   0.678   1.915  0.7143  1.3841 -1.8365
10030TIP3    H251582   5.044   0.791   1.993 -1.0747  0.0424  1.8705
10031TIP3   OH251583   2.639   0.923   6.197 -0.5432  0.6255 -0.4144
10031TIP3    H151584   2.639   0.860   6.268  0.8967 -2.1985 -2.6994
10031TIP3    H251585   2.660   1.007   6.239 -0.2569 -0.7817  2.4834
10032TIP3   OH251586   4.777   1.954  13.784 -0.0563 -0.3602  0.1965
10032TIP3    H151587   4.768   2.044  13.752 -0.3413 -0.5126 -0.1592
10032TIP3    H251588   4.828   1.909  13.717  0.3108 -0.3991  0.5010
10033TIP3   OH251589   5.901   3.304  13.649 -0.5610 -0.5251 -0.5228
10033TIP3    H151590   5.832   3.247  13.684 -1.7568 -0.3502 -2.4707
10033TIP3    H251591   5.857   3.386  13.628  0.6344  0.2531 -0.1273
10034TIP3   OH251592   0.941   0.324  14.915  0.2198  0.0960  0.0990
10034TIP3    H151593   0.941   0.261  14.843  1.6247  1.9384 -1.6225
10034TIP3    H251594   0.856   0.310  14.958  0.6733 -3.2881  0.2094
10035TIP3   OH251595   0.809   6.815   6.283 -0.1806 -0.1545 -0.0420
10035TIP3    H151596   0.815   6.849   6.193  1.1749  1.0880  0.4633
10035TIP3    H251597   0.731   6.857   6.319 -0.2164  0.0577 -0.3567
10036TIP3   OH251598   2.349   1.445  17.185 -0.3521 -0.5366  0.1218
10036TIP3    H151599   2.418   1.379  17.174  0.0554 -0.1403  0.2775
10036TIP3    H251600   2.267   1.395  17.182 -0.0766 -0.9624 -0.4619
10037TIP3   OH251601   3.096   1.308   2.249  0.0769  0.3680 -0.0343
10037TIP3    H151602   3.115   1.215   2.264  0.3363  0.4285  0.0253
10037TIP3    H251603   3.125   1.352   2.329  2.2486  0.7962 -0.9549
10038TIP3   OH251604   0.799   4.069   3.176 -0.4257  0.0602 -0.2778
10038TIP3    H151605   0.823   4.107   3.091 -0.6805  0.4586 -0.1725
10038TIP3    H251606   0.823   4.136   3.240  2.0503 -1.1574  0.2097
10039TIP3   OH251607   1.643   3.589  15.032  0.0105 -0.0621 -0.8532
10039TIP3    H151608   1.578   3.659  15.038 -0.0644 -0.2568  1.4385
10039TIP3    H251609   1.703   3.617  14.962 -2.5154  0.0724 -3.1478
10040TIP3   OH251610   6.422   3.897   5.289 -0.0851  0.4246  0.1494
10040TIP3    H151611   6.500   3.859   5.248 -0.0123 -0.8429  1.3967
10040TIP3    H251612   6.406   3.842   5.365 -0.9170  2.0009  1.1565
10041TIP3   OH251613   2.012   6.085   5.832 -0.4665 -0.3501  0.6390
10041TIP3    H151614   2.049   5.997   5.835 -0.8937 -0.5271  0.8054
10041TIP3    H251615   1.918   6.071   5.830 -0.5363  0.0323 -1.5344
10042TIP3   OH251616   1.732   2.883  12.883  0.6582 -0.2084  0.2239
10042TIP3    H151617   1.707   2.846  12.968 -0.9276  1.0851  0.3586
10042TIP3    H251618   1.651   2.917  12.847  1.7788  1.7085 -0.6005
10043TIP3   OH251619   5.857   3.905  12.556 -0.3991  0.0272 -0.4373
10043TIP3    H151620   5.847   3.977  12.495 -0.9137 -0.9367 -1.5384
10043TIP3    H251621   5.787   3.844  12.532 -0.7333 -0.2971  1.2463
10044TIP3   OH251622   6.152   0.685   0.605  0.5482  0.1108 -0.8069
10044TIP3    H151623   6.134   0.691   0.512  1.7542 -0.2561 -1.0829
10044TIP3    H251624   6.119   0.767   0.642  1.7530  1.1148 -1.8626
10045TIP3   OH251625   0.847   4.906  16.036  0.0366 -0.5493  0.5024
10045TIP3    H151626   0.886   4.849  15.970 -1.4785 -1.5060  0.4022
10045TIP3    H251627   0.833   4.989  15.991 -0.9869 -1.1972 -0.3917
10046TIP3   OH251628   4.006   1.621   5.658 -0.0306 -0.1654 -0.2466
10046TIP3    H151629   4.048   1.558   5.598 -1.5474 -1.4520 -0.0309
10046TIP3    H251630   3.969   1.688   5.600 -0.7063 -0.9178 -0.7087
10047TIP3   OH251631   4.498   0.312   4.586 -0.3491 -0.4364 -0.0193
10047TIP3    H151632   4.511   0.325   4.680  0.6168 -2.2544  0.1497
10047TIP3    H251633   4.535   0.391   4.546 -0.7108  0.3317  1.1044
10048TIP3   OH251634   0.168   5.787   3.978  0.5931 -0.1010  0.1153
10048TIP3    H151635   0.255   5.752   3.960  1.1967  1.2110  0.3553
10048TIP3    H251636   0.132   5.729   4.045  1.3532 -0.5678  0.1244
10049TIP3   OH251637   5.201   2.260   2.879  0.0891 -0.7793 -0.5172
10049TIP3    H151638   5.162   2.334   2.925  0.0062 -0.0789 -1.6581
10049TIP3    H251639   5.133   2.193   2.879  0.0659 -0.7632  0.2892
10050TIP3   OH251640   5.259   2.806   6.032 -0.4654  0.1244  0.4718
10050TIP3    H151641   5.333   2.861   6.057  1.9688 -3.2053  1.4022
10050TIP3    H251642   5.194   2.820   6.101  0.1549  1.5748  0.7924
10051TIP3   OH251643   2.210   5.172  12.674 -0.5871  0.1875 -0.3780
10051TIP3    H151644   2.272   5.134  12.736 -1.0337  0.2884  0.1429
10051TIP3    H251645   2.149   5.101  12.655 -2.1137  0.9059  1.4978
10052TIP3   OH251646   5.300   2.559  15.774 -0.6435 -0.0086 -0.6024
10052TIP3    H151647   5.263   2.631  15.825  0.3662 -1.0268  1.7258
10052TIP3    H251648   5.348   2.507  15.838  0.8239 -1.3352 -2.6658
10053TIP3   OH251649   0.810   3.219  10.527 -0.4396 -0.3947  0.2480
10053TIP3    H151650   0.737   3.215  10.588 -2.1103  0.6710 -1.5534
10053TIP3    H251651   0.885   3.242  10.582 -1.8833  0.7019  1.9012
10054TIP3   OH251652   5.093   0.656  13.734  0.0942 -0.3916  0.1295
10054TIP3    H151653   5.080   0.563  13.753  0.8417 -0.3725  0.8104
10054TIP3    H251654   5.158   0.684  13.798  0.5928  0.3759 -0.6920
10055TIP3   OH251655   5.314   4.260   5.211 -0.0469 -0.7371  0.1585
10055TIP3    H151656   5.321   4.292   5.121  0.6795  1.0935  0.8085
10055TIP3    H251657   5.391   4.204   5.223  0.5425  0.0320  0.0090
10056TIP3   OH251658   0.118   2.688   0.975  0.3262 -0.2743 -0.4965
10056TIP3    H151659   0.192   2.749   0.979 -0.4393  0.6078  2.1503
10056TIP3    H251660   0.104   2.674   0.881  2.3353  1.3774 -1.1228
10057TIP3   OH251661   0.687   1.415   3.120 -0.2350  0.2240 -0.6726
10057TIP3    H151662   0.720   1.326   3.130  2.0370  0.9272 -1.3591
10057TIP3    H251663   0.628   1.410   3.045 -0.0265 -0.6602 -0.7919
10058TIP3   OH251664   5.616   4.817   3.841 -0.4531 -0.1201 -0.1003
10058TIP3    H151665   5.682   4.842   3.776  0.0990 -1.3258 -0.0305
10058TIP3    H251666   5.538   4.868   3.817  0.8658  2.4292  0.6457
10059TIP3   OH251667   3.277   6.316   1.308  0.0672 -0.3392 -0.0480
10059TIP3    H151668   3.257   6.368   1.230 -0.1673 -0.5123 -0.1037
10059TIP3    H251669   3.200   6.326   1.364  0.6317  0.5801  0.5981
10060TIP3   OH251670   3.817   3.645   6.100 -0.1301  0.1753 -0.2362
10060TIP3    H151671   3.762   3.715   6.136 -1.0522 -1.1631  1.0817
10060TIP3    H251672   3.902   3.657   6.144 -0.9896 -0.9134  1.8816
10061TIP3   OH251673   5.366   1.401   4.697  0.2859  0.0336  0.4267
10061TIP3    H151674   5.434   1.334   4.697 -0.8801 -1.2165  0.2208
10061TIP3    H251675   5.409   1.480   4.666  1.0829 -1.3484 -2.2760
10062TIP3   OH251676   3.356   4.394  15.954  0.1487 -0.2416  0.1387
10062TIP3    H151677   3.274   4.428  15.919 -1.3856 -1.0614  2.6421
10062TIP3    H251678   3.422   4.420  15.890 -1.7931  1.9231 -1.1620
10063TIP3   OH251679   6.684   3.683   0.193 -0.7634 -0.5188 -0.2326
10063TIP3    H151680   6.728   3.705   0.276  0.3091 -0.8660 -0.6896
10063TIP3    H251681   6.628   3.758   0.175 -0.2988 -0.0218  0.3467
10064TIP3   OH251682   0.954   2.980   2.642  0.3815  0.0733  0.1369
10064TIP3    H151683   0.940   3.062   2.595  0.0300  0.3258  0.6778
10064TIP3    H251684   1.040   2.950   2.612  0.2260  0.2993 -0.5618
10065TIP3   OH251685   4.787   5.028  17.002  0.2207  0.1552  0.5058
10065TIP3    H151686   4.841   5.030  17.080 -0.0209 -0.8925  0.7098
10065TIP3    H251687   4.770   4.935  16.986 -0.9813  0.4282  0.0861
10066TIP3   OH251688   4.576   6.338   4.591  0.2244  0.7790 -0.1039
10066TIP3    H151689   4.657   6.306   4.552 -0.0845 -0.0660 -0.0647
10066TIP3    H251690   4.524   6.260   4.606 -1.1498  1.4001 -1.3446
10067TIP3   OH251691   1.861   4.707   5.476 -0.2498 -0.0147 -0.2012
10067TIP3    H151692   1.836   4.698   5.384  0.1480 -0.2115 -0.2944
10067TIP3    H251693   1.878   4.618   5.506 -1.5760 -0.0777  0.4198
10068TIP3   OH251694   3.037   5.293  10.625 -0.2609 -0.4456  0.5242
10068TIP3    H151695   2.950   5.310  10.589  0.0621 -1.2940 -0.6909
10068TIP3    H251696   3.041   5.348  10.704 -0.8861  1.6568 -0.8355
10069TIP3   OH251697   2.037   6.057  10.949 -0.0082  0.1639 -0.3216
10069TIP3    H151698   2.014   5.965  10.935 -1.5417  0.5309 -0.4139
10069TIP3    H251699   1.956   6.098  10.980  0.6595  1.4812 -0.2168
10070TIP3   OH251700   3.229   1.651  11.683 -0.6191 -0.4090  0.5136
10070TIP3    H151701   3.192   1.733  11.715 -0.6878  0.1257 -0.8592
10070TIP3    H251702   3.221   1.657  11.588 -0.2863 -1.8538  0.3734
10071TIP3   OH251703   0.433   4.251   2.681  0.4306 -0.0998  0.3216
10071TIP3    H151704   0.469   4.340   2.682  0.8918 -0.2819  0.7573
10071TIP3    H251705   0.438   4.224   2.589 -1.5612  1.0323 -0.1805
10072TIP3   OH251706   0.291   6.790   3.378 -0.5521  0.0592 -0.3332
10072TIP3    H151707   0.283   6.865   3.320 -0.5334  0.0279 -0.3760
10072TIP3    H251708   0.205   6.747   3.373 -0.1363 -0.6793 -1.3433
10073TIP3   OH251709   4.633   4.730   0.062 -0.8010 -0.2265  0.1497
10073TIP3    H151710   4.549   4.757   0.101 -0.8334 -1.9247  1.3824
10073TIP3    H251711   4.699   4.768   0.120 -0.6787  1.1518 -0.8500
10074TIP3   OH251712   5.597   2.311   4.459  0.1015  0.1600  0.1231
10074TIP3    H151713   5.670   2.336   4.515  0.6746 -0.8760 -0.1370
10074TIP3    H251714   5.637   2.263   4.387 -0.8937 -1.1744  0.4213
10075TIP3   OH251715   4.878   3.212   4.733 -0.2454 -0.2261 -0.0172
10075TIP3    H151716   4.820   3.277   4.772 -0.9755 -0.2322 -1.0286
10075TIP3    H251717   4.951   3.263   4.697 -1.5272  0.2736 -2.0993
10076TIP3   OH251718   4.388   3.874   2.211  0.1280  0.5015  0.0181
10076TIP3    H151719   4.433   3.956   2.189  0.7469  0.0327 -0.4874
10076TIP3    H251720   4.310   3.875   2.156  1.7971 -0.7940 -2.5712
10077TIP3   OH251721   4.906   0.283   3.688  0.3916 -0.3122  0.6607
10077TIP3    H151722   4.868   0.290   3.776  0.9068 -1.1633  0.9622
10077TIP3    H251723   4.981   0.343   3.690 -0.9131  1.4326  0.0384
10078TIP3   OH251724   1.945   4.708   4.941 -0.8881 -0.2562 -0.1687
10078TIP3    H151725   1.951   4.660   5.024 -0.8178  0.7524  0.4274
10078TIP3    H251726   2.026   4.758   4.937 -1.2859  0.3699 -0.4207
10079TIP3   OH251727   5.954   2.175  15.414 -0.0636  0.7357  0.7468
10079TIP3    H151728   5.907   2.250  15.379  0.3340  0.4357 -0.4990
10079TIP3    H251729   6.011   2.147  15.342  0.2230 -0.3953  1.3840
10080TIP3   OH251730   3.232   2.432  13.196  0.2597 -0.4017 -0.6245
10080TIP3    H151731   3.237   2.371  13.123  0.8208 -0.8670 -0.2002
10080TIP3    H251732   3.161   2.399  13.251  1.0111 -1.0825 -0.0374
10081TIP3   OH251733   3.504   4.071  11.504 -0.6820  0.4022  0.0646
10081TIP3    H151734   3.419   4.084  11.463 -1.1495 -0.0854  0.8548
10081TIP3    H251735   3.549   4.009  11.445 -0.6690  1.0484 -0.6167
10082TIP3   OH251736   0.185   5.793   4.325 -0.1934  0.4739 -0.1906
10082TIP3    H151737   0.090   5.809   4.321 -0.6767 -0.9350  2.8932
10082TIP3    H251738   0.195   5.703   4.293 -0.0246  0.3106  0.3193
10083TIP3   OH251739   5.289   4.648  12.907 -0.7140  0.0316  0.3142
10083TIP3    H151740   5.221   4.581  12.914 -1.7134  0.8812 -0.7598
10083TIP3    H251741   5.247   4.728  12.936 -0.4090  0.7074 -1.0401
10084TIP3   OH251742   2.900   5.098  15.419 -0.2572  0.5272 -0.0293
10084TIP3    H151743   2.900   5.003  15.411 -0.1420  0.5745 -0.7048
10084TIP3    H251744   2.981   5.125  15.375 -0.8897  1.0096 -0.9307
10085TIP3   OH251745   4.993   0.739   0.020  0.1744 -0.0871 -0.1784
10085TIP3    H151746   5.014   0.821  -0.025 -0.4596 -0.2481 -0.7861
10085TIP3    H251747   5.059   0.678  -0.010  0.8279  0.2745  0.5056
10086TIP3   OH251748   3.541   3.455  13.083 -0.0465 -0.0624  0.6836
10086TIP3    H151749   3.485   3.528  13.110 -0.1808  0.2281 -0.3306
10086TIP3    H251750   3.527   3.448  12.989 -1.2262 -2.4028  0.9570
10087TIP3   OH251751   1.517   3.239  14.937  0.0338 -0.2623 -0.0434
10087TIP3    H151752   1.541   3.192  15.016 -0.7298  0.2444  0.5082
10087TIP3    H251753   1.421   3.230  14.932  0.1715 -1.2626 -1.5336
10088TIP3   OH251754   3.934   0.191   2.698  0.5630 -0.1700 -0.3807
10088TIP3    H151755   3.892   0.231   2.621 -0.8476  0.2883  0.5907
10088TIP3    H251756   3.870   0.127   2.729  1.6243 -1.2074 -0.2588
10089TIP3   OH251757   1.711   5.941  10.542  0.0117  0.3039 -0.7821
10089TIP3    H151758   1.738   5.849  10.536  0.4225  0.4395 -1.0300
10089TIP3    H251759   1.765   5.977  10.613 -0.2325  0.3280 -0.6062
10090TIP3   OH251760   3.039   4.329   4.095 -0.3554  0.2535 -0.3262
10090TIP3    H151761   3.060   4.290   4.180 -2.7185  0.7756  0.5918
10090TIP3    H251762   2.999   4.259   4.045 -1.3128  0.5640 -0.0179
10091TIP3   OH251763   3.659   6.168  13.510 -0.5705 -0.6396 -0.2942
10091TIP3    H151764   3.666   6.251  13.558  2.5816  0.1291 -1.7864
10091TIP3    H251765   3.689   6.102  13.572  2.4927  0.2121 -0.6989
10092TIP3   OH251766   2.518   2.517   1.041  0.7505  0.0438  0.3294
10092TIP3    H151767   2.556   2.430   1.055 -0.6981 -0.6395  0.1654
10092TIP3    H251768   2.520   2.528   0.946 -1.5269 -1.0047  0.1038
10093TIP3   OH251769   3.545   3.372   0.035  0.1533 -0.4692 -0.1625
10093TIP3    H151770   3.456   3.345   0.012 -0.0422 -2.0129  2.1259
10093TIP3    H251771   3.576   3.305   0.096  1.9701  1.3533  1.0625
10094TIP3   OH251772   6.795   1.641   4.742 -0.7666 -0.0304 -0.0896
10094TIP3    H151773   6.713   1.634   4.791 -1.8574 -1.5755 -2.0185
10094TIP3    H251774   6.786   1.578   4.671  1.9988 -0.0332 -0.5335
10095TIP3   OH251775   6.583   2.949   2.720 -0.1886  0.0495  0.1972
10095TIP3    H151776   6.667   2.961   2.676 -0.6711 -1.1902 -1.1301
10095TIP3    H251777   6.586   2.859   2.753 -0.6910  0.2559  0.8248
10096TIP3   OH251778   3.497   2.264  14.874  0.1202 -0.2491 -0.5844
10096TIP3    H151779   3.550   2.287  14.950  0.9837  0.1537 -1.2842
10096TIP3    H251780   3.418   2.317  14.882  0.2247 -0.1825  0.0145
10097TIP3   OH251781   4.313   6.306  16.429 -0.4870 -0.3505  0.2185
10097TIP3    H151782   4.229   6.262  16.448 -2.1032  1.7465 -1.5656
10097TIP3    H251783   4.363   6.241  16.380 -1.9046 -0.9785 -0.4725
10098TIP3   OH251784   5.455   2.119  11.376 -0.4797 -0.3565 -0.0231
10098TIP3    H151785   5.516   2.108  11.449  0.9714  0.5145 -1.0567
10098TIP3    H251786   5.388   2.179  11.409  0.5531  0.6024  0.3892
10099TIP3   OH251787   3.070   6.144  17.206 -0.3692  0.4230 -0.3681
10099TIP3    H151788   3.025   6.166  17.287 -1.1279 -1.3185 -0.2712
10099TIP3    H251789   3.120   6.065  17.226 -1.2907 -0.5759 -1.7931
10100TIP3   OH251790   3.379   2.484   6.139  0.2796  0.1279  0.1744
10100TIP3    H151791   3.437   2.434   6.197  1.4525  0.1955 -0.9029
10100TIP3    H251792   3.437   2.544   6.092 -0.5954 -0.0748 -1.2360
10101TIP3   OH251793   5.556   2.885  13.813 -0.2321  0.6098  0.4848
10101TIP3    H151794   5.575   2.861  13.903  0.7663  1.7366  0.5958
10101TIP3    H251795   5.621   2.837  13.761 -0.2265  0.6675  0.4379
10102TIP3   OH251796   2.251   1.352  13.345 -0.4170  0.3771 -0.0550
10102TIP3    H151797   2.189   1.283  13.369 -0.9250  0.3354 -1.4057
10102TIP3    H251798   2.305   1.313  13.276  0.6933  0.6363  0.6446
10103TIP3   OH251799   4.117   2.481  17.063 -0.0353  0.4870  0.1950
10103TIP3    H151800   4.178   2.521  17.002  0.6025 -0.6738  0.0368
10103TIP3    H251801   4.130   2.527  17.145  1.0886  0.2406  0.1662
10104TIP3   OH251802   0.363   6.520   4.457 -0.3415  0.3198 -0.0016
10104TIP3    H151803   0.274   6.493   4.480  0.4762 -1.7486  1.0048
10104TIP3    H251804   0.380   6.597   4.511 -1.3482  0.4460  0.1568
10105TIP3   OH251805   3.578   2.004   6.367  0.3113 -0.2371  0.2025
10105TIP3    H151806   3.634   2.080   6.353  1.2667 -0.5950  1.8087
10105TIP3    H251807   3.496   2.041   6.400  0.1452  0.1910 -0.6672
10106TIP3   OH251808   3.033   1.493  15.678 -0.1121 -0.5569  0.6146
10106TIP3    H151809   3.001   1.518  15.765  0.3008  0.9506  0.3603
10106TIP3    H251810   2.954   1.476  15.627 -0.3881 -0.4615  1.0040
10107TIP3   OH251811   5.504   6.449   6.320 -0.0469  0.5004 -0.0172
10107TIP3    H151812   5.513   6.542   6.341  1.7495  0.3213  0.1281
10107TIP3    H251813   5.439   6.447   6.249  0.8697  1.9936 -0.9436
10108TIP3   OH251814   0.144   4.043  15.843  0.3008  0.8703 -0.2233
10108TIP3    H151815   0.075   4.091  15.796 -0.7499 -1.0723 -0.7708
10108TIP3    H251816   0.218   4.043  15.782  0.0968  1.2587 -0.4758
10109TIP3   OH251817   5.001   6.632  14.449 -0.0149  0.6903  0.1164
10109TIP3    H151818   5.070   6.662  14.509  1.6306  0.2824 -1.4876
10109TIP3    H251819   5.009   6.689  14.373 -1.4309  0.5822 -0.1367
10110TIP3   OH251820   2.127   3.664  12.079 -0.6020  0.0515  0.6061
10110TIP3    H151821   2.057   3.682  12.141 -0.9665  1.0068 -0.0497
10110TIP3    H251822   2.092   3.597  12.021 -0.5617 -0.2524  0.9278
10111TIP3   OH251823   2.213   6.469   4.060  0.0875  0.1891 -0.1141
10111TIP3    H151824   2.174   6.495   3.976 -1.1654 -1.3937 -0.0716
10111TIP3    H251825   2.307   6.485   4.049 -0.2258  1.4048 -1.2648
10112TIP3   OH251826   6.231   1.449  12.568 -0.0943 -0.3059 -0.2275
10112TIP3    H151827   6.203   1.381  12.628 -1.0521 -0.5858 -0.9618
10112TIP3    H251828   6.192   1.425  12.484  0.7725  0.3576 -0.8491
10113TIP3   OH251829   6.774   3.520  16.219 -0.1437  0.3590 -0.1259
10113TIP3    H151830   6.863   3.554  16.204  0.3804 -1.5635 -1.9123
10113TIP3    H251831   6.716   3.585  16.180  0.4363  1.7825  1.3211
10114TIP3   OH251832   2.161   6.611  15.605  0.2978 -0.2120  0.3897
10114TIP3    H151833   2.081   6.660  15.586  0.0654 -0.6958  0.1033
10114TIP3    H251834   2.133   6.541  15.664  0.5093 -0.3842  0.2884
10115TIP3   OH251835   1.654   1.969   0.141 -0.3261 -0.2459  0.1366
10115TIP3    H151836   1.625   2.047   0.188 -0.8496  0.7374 -1.6963
10115TIP3    H251837   1.649   1.899   0.206 -1.7144  0.8838  1.3457
10116TIP3   OH251838   2.398   2.873  14.776 -0.0079  0.0143 -0.1009
10116TIP3    H151839   2.400   2.788  14.732  1.2628  0.6646 -1.3665
10116TIP3    H251840   2.331   2.863  14.844 -0.6295 -1.6542 -0.9057
10117TIP3   OH251841   0.455   4.173   0.494  0.3313 -0.1650  0.1577
10117TIP3    H151842   0.541   4.195   0.460  1.0810 -2.2093  0.5874
10117TIP3    H251843   0.429   4.250   0.545  1.5795  0.7592 -0.5537
10118TIP3   OH251844   1.126   6.397   1.454 -0.2117 -0.4605  0.2785
10118TIP3    H151845   1.200   6.343   1.426 -0.9905 -0.8013 -1.2510
10118TIP3    H251846   1.067   6.337   1.498 -1.0112 -0.8659 -1.2949
10119TIP3   OH251847   0.438   6.798   2.003 -0.5074  0.3528 -0.0092
10119TIP3    H151848   0.460   6.887   2.030 -0.6159 -0.1346  1.8747
10119TIP3    H251849   0.346   6.787   2.029 -0.3461 -0.4633  0.2462
10120TIP3   OH251850   5.681   1.566   3.298 -0.1012  0.1700  0.1459
10120TIP3    H151851   5.722   1.631   3.355  1.0245  0.0772 -0.5322
10120TIP3    H251852   5.751   1.537   3.240 -1.2609  0.4437 -1.4674
10121TIP3   OH251853   1.400   3.537  15.420 -0.4196  0.2821  0.4038
10121TIP3    H151854   1.371   3.506  15.334 -1.3415  1.7753  0.1450
10121TIP3    H251855   1.455   3.614  15.400  1.7321 -0.9988  1.0245
10122TIP3   OH251856   1.298   6.478   0.231  0.7432 -0.1341 -0.2014
10122TIP3    H151857   1.253   6.520   0.158  0.3690 -0.7360 -0.3270
10122TIP3    H251858   1.227   6.436   0.281  1.0758 -0.3834  0.0643
10123TIP3   OH251859   5.625   4.147  10.875  0.0675 -0.0337 -0.3898
10123TIP3    H151860   5.544   4.182  10.912  1.2824  0.3276  2.1269
10123TIP3    H251861   5.596   4.085  10.807 -2.2292  1.5105 -0.9145
10124TIP3   OH251862   3.348   6.432   4.782 -0.3042 -0.2683 -0.2254
10124TIP3    H151863   3.428   6.476   4.753 -0.3714 -0.2540 -0.3902
10124TIP3    H251864   3.368   6.403   4.871 -0.5276  0.8037  0.1943
10125TIP3   OH251865   2.339   0.170  15.643  0.3741  0.0136 -0.0756
10125TIP3    H151866   2.311   0.254  15.681  1.0376 -0.2018  0.9376
10125TIP3    H251867   2.270   0.148  15.581 -1.9184 -0.6216  2.4706
10126TIP3   OH251868   0.008   3.441  13.190  0.3281 -0.1523 -0.1804
10126TIP3    H151869  -0.029   3.448  13.102 -1.6540  0.4141  0.6438
10126TIP3    H251870  -0.019   3.354  13.219  0.6459 -0.1859  0.0084
10127TIP3   OH251871   3.624   1.079  15.294  0.4041 -0.6717 -0.5688
10127TIP3    H151872   3.580   1.146  15.345  1.3577 -1.9218  2.0686
10127TIP3    H251873   3.591   1.091  15.205 -2.2378  0.9167  0.5017
10128TIP3   OH251874   0.969   4.746  14.726 -0.4188  0.9175  0.1276
10128TIP3    H151875   0.957   4.837  14.698 -0.8809  0.4914 -1.1105
10128TIP3    H251876   0.884   4.721  14.762 -1.8604 -0.3953 -3.6936
10129TIP3   OH251877   4.341   4.853  12.661  0.0344 -0.4015  0.3157
10129TIP3    H151878   4.325   4.940  12.698  2.0191 -0.3395  1.1354
10129TIP3    H251879   4.329   4.864  12.567 -1.6264  0.2751  0.5792
10130TIP3   OH251880   6.402   6.459   3.348  0.2472 -0.4657  0.1753
10130TIP3    H151881   6.464   6.474   3.419  2.3574  1.7951 -1.9521
10130TIP3    H251882   6.372   6.546   3.323  0.8158 -0.9882 -2.6860
10131TIP3   OH251883   4.645   1.589   3.693  0.8374  0.6131 -0.1298
10131TIP3    H151884   4.593   1.602   3.614  1.8854  2.0233 -0.6445
10131TIP3    H251885   4.648   1.676   3.733 -0.0998 -0.1816  1.7598
10132TIP3   OH251886   4.846   0.592   1.051  0.1904 -0.5021 -0.2097
10132TIP3    H151887   4.788   0.599   1.127  1.5844  0.5086  0.8177
10132TIP3    H251888   4.929   0.628   1.081  0.7359  0.1092 -2.2817
10133TIP3   OH251889   0.372   3.168  14.745 -0.2004 -0.2903  0.0542
10133TIP3    H151890   0.279   3.181  14.726 -0.0124  1.0328 -0.1140
10133TIP3    H251891   0.376   3.162  14.840 -0.4270  0.0743  0.0921
10134TIP3   OH251892   3.923   0.910   1.191 -0.0969  0.6268  0.6228
10134TIP3    H151893   3.957   0.830   1.231 -0.8125  1.1209  2.3197
10134TIP3    H251894   3.996   0.945   1.141 -0.0336 -1.5306 -0.9286
10135TIP3   OH251895   0.838   3.079  14.095 -0.7646  0.4194  0.2701
10135TIP3    H151896   0.895   3.035  14.033  1.1551  0.6713  1.7774
10135TIP3    H251897   0.897   3.120  14.158 -2.5625 -1.1327  3.1989
10136TIP3   OH251898   2.809   4.559   6.548 -0.0808  0.0846 -0.3378
10136TIP3    H151899   2.784   4.502   6.476  1.7448 -1.7962  0.4149
10136TIP3    H251900   2.890   4.521   6.583 -1.4574  0.1515  3.4522
10137TIP3   OH251901   2.746   2.496  14.236  0.1279 -0.6276 -0.0430
10137TIP3    H151902   2.794   2.415  14.219  0.7767 -0.3063  0.2124
10137TIP3    H251903   2.814   2.563  14.238 -0.2606 -0.2551  0.9879
10138TIP3   OH251904   4.180   4.726   5.021 -0.2179 -0.0351 -0.6773
10138TIP3    H151905   4.204   4.756   4.933  2.0034  1.0766  0.2214
10138TIP3    H251906   4.256   4.675   5.050 -1.1806 -0.9086  0.3651
10139TIP3   OH251907   1.509   5.660  15.680  0.3149  0.2379  0.0572
10139TIP3    H151908   1.463   5.588  15.724  0.4940 -0.5128 -0.9553
10139TIP3    H251909   1.578   5.617  15.630  1.7724  1.2985  1.0758
10140TIP3   OH251910   0.677   1.457   1.778  0.1422 -0.4787 -1.0522
10140TIP3    H151911   0.586   1.428   1.780  0.9786 -3.3322 -0.7979
10140TIP3    H251912   0.674   1.540   1.730 -2.8544  0.8373  1.0975
10141TIP3   OH251913   0.716   1.409  12.906 -0.1439 -0.7198 -0.2328
10141TIP3    H151914   0.730   1.388  12.998  0.5090  0.4919 -0.0364
10141TIP3    H251915   0.725   1.325  12.861 -0.5794 -1.3466  0.8020
10142TIP3   OH251916   2.672   3.869   4.331  0.5180  0.5481  0.6465
10142TIP3    H151917   2.697   3.961   4.327 -0.6575  0.8460 -1.1947
10142TIP3    H251918   2.576   3.870   4.329  0.4037 -0.6822  2.6543
10143TIP3   OH251919   2.632   3.860   2.948 -0.1006 -0.4854  0.9380
10143TIP3    H151920   2.711   3.898   2.909 -0.3122 -0.5719  0.4119
10143TIP3    H251921   2.571   3.934   2.956 -0.0119 -0.4438  1.2197
10144TIP3   OH251922   6.121   1.397  11.056 -0.5888 -0.1307 -0.1859
10144TIP3    H151923   6.043   1.427  11.010 -0.1889  2.8619  0.8501
10144TIP3    H251924   6.098   1.404  11.149  0.4021 -0.7707  0.1250
10145TIP3   OH251925   6.813   0.793   6.033 -0.4076  0.8180 -0.5742
10145TIP3    H151926   6.803   0.755   5.946  1.4784  0.5079 -0.6853
10145TIP3    H251927   6.813   0.887   6.018 -0.0171  0.7641 -0.9119
10146TIP3   OH251928   1.437   4.076   3.888  0.4043  0.1067  0.0022
10146TIP3    H151929   1.390   3.995   3.867  0.4217  0.3171 -0.9175
10146TIP3    H251930   1.480   4.059   3.971 -0.8094 -0.3028  0.5662
10147TIP3   OH251931   1.335   2.760  11.541  0.3142 -0.7102 -0.6301
10147TIP3    H151932   1.302   2.687  11.593  0.4826 -0.6153 -0.3878
10147TIP3    H251933   1.262   2.784  11.485 -0.4805  0.2939  0.7557
10148TIP3   OH251934   0.297   6.420  16.964 -0.0498 -0.0725  0.1006
10148TIP3    H151935   0.302   6.471  16.884  0.3629 -1.5710 -0.8608
10148TIP3    H251936   0.205   6.425  16.990  0.0430  1.4468  0.2752
10149TIP3   OH251937   5.301   5.879  11.797  0.5265  0.0488 -0.2699
10149TIP3    H151938   5.368   5.945  11.816 -0.2974  1.1366 -1.0035
10149TIP3    H251939   5.334   5.799  11.838  2.2993  0.5220 -0.6830
10150TIP3   OH251940   2.176   6.062  12.837  0.0330  0.4471 -0.1868
10150TIP3    H151941   2.178   6.146  12.792  0.1456  1.1152  1.0221
10150TIP3    H251942   2.087   6.030  12.827  0.1483  0.4018 -1.1725
10151TIP3   OH251943   6.553   1.842  13.402  0.1065  0.1455  0.0399
10151TIP3    H151944   6.553   1.798  13.316  0.6988  0.7903 -0.2987
10151TIP3    H251945   6.472   1.812  13.443 -0.7388  0.6398 -1.1784
10152TIP3   OH251946   3.702   2.882   2.305 -0.4601  0.2717  0.5207
10152TIP3    H151947   3.743   2.958   2.346  2.0009 -0.3931 -0.5649
10152TIP3    H251948   3.650   2.918   2.233 -0.0972  0.9870  0.6163
10153TIP3   OH251949   3.409   3.442   5.486 -0.4846  0.3165  0.4646
10153TIP3    H151950   3.442   3.478   5.569 -1.1313  2.1909 -0.0517
10153TIP3    H251951   3.326   3.400   5.510  0.8713 -2.0898  1.2943
10154TIP3   OH251952   3.384   3.813  16.311 -0.4068 -0.1690  0.2750
10154TIP3    H151953   3.331   3.866  16.251  1.2848  2.7358  1.1589
10154TIP3    H251954   3.334   3.813  16.393 -1.0269 -1.1113 -0.0882
10155TIP3   OH251955   4.499   5.873  13.865 -0.3376  0.5229 -0.3922
10155TIP3    H151956   4.458   5.845  13.947  3.0511  0.3890  1.4175
10155TIP3    H251957   4.465   5.962  13.851 -2.0968  0.0033  0.3019
10156TIP3   OH251958   6.721   4.210   4.105  0.4725 -0.8586  0.3321
10156TIP3    H151959   6.783   4.217   4.033 -0.7429  2.2698 -0.5809
10156TIP3    H251960   6.648   4.161   4.069 -0.8876  2.1122 -1.3499
10157TIP3   OH251961   6.083   1.578  12.975 -0.0152 -0.0166 -0.0461
10157TIP3    H151962   6.023   1.643  12.937 -1.8396 -0.7756  1.3837
10157TIP3    H251963   6.083   1.597  13.069  1.1207 -0.7529  0.1221
10158TIP3   OH251964   6.711   5.912  13.940  0.1414  0.1022 -0.1544
10158TIP3    H151965   6.624   5.926  13.903  0.4739  1.1490 -0.5830
10158TIP3    H251966   6.719   5.979  14.007  1.5771  1.7780 -1.8865
10159TIP3   OH251967   1.247   2.256  12.243 -0.0003  0.3615 -0.2441
10159TIP3    H151968   1.326   2.281  12.195  0.4644  0.6057  0.6210
10159TIP3    H251969   1.247   2.160  12.240 -0.8900  0.3797 -2.1455
10160TIP3   OH251970   4.506   0.529  15.285 -0.3169  0.5062  0.3907
10160TIP3    H151971   4.437   0.586  15.250  0.5191  0.8560 -0.7169
10160TIP3    H251972   4.465   0.442  15.287 -0.3898  0.4459 -1.5740
10161TIP3   OH251973   4.188   2.330   0.335  0.1012  0.2070 -0.0152
10161TIP3    H151974   4.177   2.411   0.386  2.2936  1.2164 -0.9930
10161TIP3    H251975   4.119   2.333   0.269 -1.3900 -0.0163  1.4561
10162TIP3   OH251976   2.543   1.738   0.603  0.2439  0.1352  0.1869
10162TIP3    H151977   2.534   1.659   0.656  3.4556  0.4113  1.3455
10162TIP3    H251978   2.608   1.715   0.537 -2.0418  0.5162 -2.3984
10163TIP3   OH251979   3.835   0.615  14.059  0.1079 -0.2769 -0.2529
10163TIP3    H151980   3.855   0.600  13.967 -1.6619 -1.0612 -0.5371
10163TIP3    H251981   3.850   0.530  14.101  1.2362  0.1591  0.2746
10164TIP3   OH251982   4.104   2.007   3.043 -0.2081  0.4452 -0.0789
10164TIP3    H151983   4.052   1.969   2.972  0.0474  1.6831 -0.9610
10164TIP3    H251984   4.192   2.016   3.007  0.0223  0.7163  0.5298
10165TIP3   OH251985   0.165   1.221   4.802  0.4783  0.0224 -0.0488
10165TIP3    H151986   0.220   1.297   4.780  0.3562 -0.1605 -1.0159
10165TIP3    H251987   0.085   1.234   4.752 -0.5186  0.4513  1.6168
10166TIP3   OH251988   2.139   2.665   5.439  0.2792  0.2598 -0.5145
10166TIP3    H151989   2.062   2.721   5.452 -0.3508 -0.1846 -2.0478
10166TIP3    H251990   2.145   2.613   5.520  0.2804  1.8062  0.5126
10167TIP3   OH251991   4.051   2.695   4.363 -0.2691  0.3644  0.0708
10167TIP3    H151992   3.983   2.631   4.343  0.4721  0.0707 -1.7134
10167TIP3    H251993   4.101   2.703   4.282  1.3782  1.1248  1.1072
10168TIP3   OH251994   2.853   0.067   0.035  0.1270 -0.9729 -0.2172
10168TIP3    H151995   2.836   0.011  -0.041 -2.5090  0.2228 -0.5945
10168TIP3    H251996   2.916   0.132   0.003  0.2511 -1.4103 -0.8917
10169TIP3   OH251997   0.390   2.289   6.383 -0.6260  0.0329  0.6980
10169TIP3    H151998   0.304   2.253   6.362 -0.3000 -0.5875  0.3933
10169TIP3    H251999   0.372   2.368   6.433 -1.4126  1.2605 -1.4247
10170TIP3   OH252000   2.814   0.323   0.884  0.6220  0.6558 -0.6066
10170TIP3    H152001   2.785   0.410   0.913 -1.7606 -0.2714  0.0121
10170TIP3    H252002   2.894   0.308   0.934  1.2958  2.6083 -0.9853
10171TIP3   OH252003   2.604   0.905   5.375  0.6316 -0.4046 -0.1776
10171TIP3    H152004   2.542   0.900   5.303  1.3038 -1.2512 -0.7175
10171TIP3    H252005   2.556   0.949   5.445 -0.4626 -0.7421 -0.6944
10172TIP3   OH252006   6.097   3.381  12.135 -1.0747 -0.3476  0.1806
10172TIP3    H152007   6.082   3.465  12.178  0.7287  0.6029 -0.9402
10172TIP3    H252008   6.039   3.383  12.059 -0.5400  0.2193 -0.2284
10173TIP3   OH252009   6.149   5.150  15.307  0.1432 -0.2489 -0.3969
10173TIP3    H152010   6.141   5.245  15.302 -1.8675 -0.3161  0.6194
10173TIP3    H252011   6.191   5.134  15.392  2.7266 -0.2525 -1.5802
10174TIP3   OH252012   4.902   6.107   1.579  0.5773 -0.8150  0.6658
10174TIP3    H152013   4.846   6.100   1.502  0.0750  0.6303  0.8751
10174TIP3    H252014   4.845   6.084   1.652  0.8441 -1.4304  0.6835
10175TIP3   OH252015   5.205   4.776  16.012  0.2085  0.1813  0.0599
10175TIP3    H152016   5.215   4.859  15.967  0.9362  0.3783  0.5735
10175TIP3    H252017   5.197   4.711  15.942  1.5980  0.4481 -0.3674
10176TIP3   OH252018   6.677   4.863  12.357  0.5120 -0.8698 -0.1808
10176TIP3    H152019   6.588   4.898  12.359  0.4188 -1.1209  1.5276
10176TIP3    H252020   6.728   4.930  12.310 -0.0495  0.6404  1.2636
10177TIP3   OH252021   4.380   2.964   4.128 -0.1646  0.1297  0.5617
10177TIP3    H152022   4.295   3.007   4.136  0.7662  2.0515  0.5872
10177TIP3    H252023   4.413   2.959   4.218 -2.0313 -4.7022  1.2849
10178TIP3   OH252024   3.079   1.745  14.642 -0.2119 -0.0621 -0.5275
10178TIP3    H152025   3.091   1.667  14.696 -0.4970  0.2503  0.0026
10178TIP3    H252026   2.988   1.771  14.657  0.0839  0.7916 -0.1020
10179TIP3   OH252027   0.901   6.196  15.105 -0.1487 -0.1074 -0.3867
10179TIP3    H152028   0.830   6.225  15.048 -2.0996 -1.1458  1.3760
10179TIP3    H252029   0.893   6.100  15.105 -0.6085 -0.1214  1.9985
10180TIP3   OH252030   0.486   5.972   0.767  0.2601 -0.2022  0.4206
10180TIP3    H152031   0.494   6.001   0.676  1.4974  0.0226  0.5834
10180TIP3    H252032   0.414   6.024   0.802 -1.3179 -1.4364 -0.8550
10181TIP3   OH252033   4.009   1.632  13.015 -0.2501 -0.2701  0.0644
10181TIP3    H152034   3.954   1.711  13.019 -0.7079 -0.5808 -0.0523
10181TIP3    H252035   4.098   1.666  13.021 -0.4550  0.2277  0.4252
10182TIP3   OH252036   3.642   6.583   4.303 -0.6388 -0.0471 -0.2502
10182TIP3    H152037   3.580   6.542   4.243  0.1777 -0.0007 -1.1512
10182TIP3    H252038   3.728   6.550   4.276 -0.0242  1.6806 -0.5707
10183TIP3   OH252039   5.135   4.746  11.448 -0.3238  0.3242 -0.2831
10183TIP3    H152040   5.066   4.709  11.503  1.0414 -0.9355  0.6650
10183TIP3    H252041   5.174   4.815  11.501  1.3741 -1.2731  0.6739
10184TIP3   OH252042   2.465   0.209   5.256  0.0389 -0.4363 -0.2554
10184TIP3    H152043   2.558   0.194   5.270  0.3059  0.8968 -0.4774
10184TIP3    H252044   2.421   0.148   5.316  1.0776  0.8988  2.0118
10185TIP3   OH252045   3.032   5.294  17.283 -0.3550  0.5120  0.8934
10185TIP3    H152046   2.999   5.331  17.365 -0.6451  0.0996  0.9628
10185TIP3    H252047   3.072   5.369  17.238  0.2629  0.6368  1.6379
10186TIP3   OH252048   2.117   6.573  14.891  0.4713 -0.7042  0.4550
10186TIP3    H152049   2.073   6.650  14.927  0.8698 -0.5827  0.6862
10186TIP3    H252050   2.063   6.547  14.816  1.2196  0.8021 -0.6738
10187TIP3   OH252051   5.632   4.165   0.490 -0.5539  0.4265  0.4473
10187TIP3    H152052   5.706   4.225   0.488 -0.1228 -0.0957  0.4278
10187TIP3    H252053   5.632   4.129   0.579 -0.7973  0.4462  0.4555
10188TIP3   OH252054   5.302   4.321   3.970  0.5472 -0.2780  0.8622
10188TIP3    H152055   5.330   4.392   4.027 -0.1353 -1.1798  2.3666
10188TIP3    H252056   5.210   4.307   3.992 -0.2026  0.3478 -1.5657
10189TIP3   OH252057   5.355   2.186   5.882  0.0559  0.3135 -0.1007
10189TIP3    H152058   5.370   2.202   5.975  2.4149 -1.1032 -0.1679
10189TIP3    H252059   5.259   2.186   5.873 -0.3606 -2.2176  2.8623
10190TIP3   OH252060   3.442   3.588   5.739 -0.2399 -0.1373  0.5407
10190TIP3    H152061   3.393   3.667   5.759 -1.3482 -0.0978 -1.9465
10190TIP3    H252062   3.416   3.526   5.807  1.1517  1.7629  2.9120
10191TIP3   OH252063   0.137   2.683  17.272  0.1111  0.0059 -0.2300
10191TIP3    H152064   0.083   2.604  17.264  0.0222  0.1237 -0.7949
10191TIP3    H252065   0.216   2.653  17.319 -0.8474  0.0319  1.4990
10192TIP3   OH252066   4.584   1.845   1.845  0.5712 -0.2257  0.0161
10192TIP3    H152067   4.597   1.891   1.927  0.1317 -2.5020  1.4613
10192TIP3    H252068   4.490   1.827   1.842  0.9084 -2.2315  0.2515
10193TIP3   OH252069   1.914   4.874  16.396 -0.2408 -0.2351  0.3030
10193TIP3    H152070   1.868   4.796  16.366  0.1257 -0.8254  1.2341
10193TIP3    H252071   1.990   4.841  16.443  1.4874  0.7227 -1.6568
10194TIP3   OH252072   4.718   6.157  12.007  0.0362 -0.2629  0.0050
10194TIP3    H152073   4.647   6.098  12.032  0.3977  0.0118  1.7573
10194TIP3    H252074   4.717   6.155  11.911 -0.2677 -2.7377 -0.0115
10195TIP3   OH252075   3.998   4.933   1.274 -0.0539 -0.3418  0.3717
10195TIP3    H152076   4.028   4.842   1.272  0.9439 -0.0194 -1.3277
10195TIP3    H252077   4.025   4.965   1.360  1.2865 -1.1369  0.2793
10196TIP3   OH252078   2.028   4.780  13.037 -0.8834  0.0941 -0.1369
10196TIP3    H152079   2.037   4.870  13.005 -0.6922  0.1531  0.0815
10196TIP3    H252080   1.947   4.748  12.997 -0.3107 -0.0595 -1.2254
10197TIP3   OH252081   3.381   5.226  16.740 -0.2151  0.4557  0.0809
10197TIP3    H152082   3.300   5.277  16.730 -0.1601  0.4602 -0.4036
10197TIP3    H252083   3.435   5.253  16.666  0.1258  0.2614  0.2570
10198TIP3   OH252084   2.798   1.858   0.529 -0.2123  0.3865  0.6807
10198TIP3    H152085   2.797   1.941   0.577  1.3507  1.0311 -0.3266
10198TIP3    H252086   2.871   1.809   0.566 -2.3138 -1.5043  2.6778
10199TIP3   OH252087   1.078   1.404   3.720 -0.2910 -0.0891 -0.1402
10199TIP3    H152088   1.123   1.323   3.695 -2.4839 -0.7378 -2.4453
10199TIP3    H252089   1.098   1.465   3.649 -0.8798  0.4516  0.1496
10200TIP3   OH252090   6.587   3.181  15.846 -0.0357  0.5025 -0.2825
10200TIP3    H152091   6.663   3.210  15.896 -0.7224  0.3035  0.9043
10200TIP3    H252092   6.513   3.228  15.884 -0.6873 -0.2206 -0.6136
10201TIP3   OH252093   0.692   4.362  13.698 -0.4320 -0.4327 -0.5386
10201TIP3    H152094   0.608   4.397  13.667  0.2657  0.3890 -1.5859
10201TIP3    H252095   0.706   4.404  13.783 -0.9412 -0.3593 -0.4899
10202TIP3   OH252096   5.814   5.359   0.936 -0.1726 -0.1360  0.1070
10202TIP3    H152097   5.817   5.350   1.032 -0.3133 -0.7755  0.0584
10202TIP3    H252098   5.764   5.282   0.907 -0.8230  0.4793 -0.4218
10203TIP3   OH252099   3.140   2.193  15.537  0.3934 -0.7225 -0.1205
10203TIP3    H152100   3.163   2.182  15.629 -1.6874  3.5400  1.1209
10203TIP3    H252101   3.048   2.168  15.531 -0.5435  2.4135 -0.1012
10204TIP3   OH252102   6.366   5.012  11.810  0.4986  0.5036  0.3656
10204TIP3    H152103   6.451   5.018  11.767  1.0171  0.7813  1.3912
10204TIP3    H252104   6.328   5.100  11.801 -0.5217 -0.0866 -1.6980
10205TIP3   OH252105   1.287   1.028  12.767 -0.1622  0.4655  0.7014
10205TIP3    H152106   1.358   0.964  12.765 -0.4210  0.1277  1.6719
10205TIP3    H252107   1.208   0.979  12.745 -0.2723  0.5848  0.8248
10206TIP3   OH252108   4.416   2.931   0.627  0.6122  0.8612 -0.3487
10206TIP3    H152109   4.435   3.023   0.648 -0.7705  0.6780  2.0702
10206TIP3    H252110   4.322   2.922   0.643  0.2784 -0.5322 -2.5789
10207TIP3   OH252111   4.973   6.143  14.108 -0.1189 -0.4393  0.0627
10207TIP3    H152112   4.879   6.129  14.122 -0.0090  0.5244  2.0684
10207TIP3    H252113   4.995   6.216  14.166  1.7239 -0.1361 -0.9608
10208TIP3   OH252114   3.269   4.539   2.388 -0.1683 -0.3458 -0.2857
10208TIP3    H152115   3.306   4.456   2.417 -2.2499 -1.3165 -0.1894
10208TIP3    H252116   3.213   4.515   2.314 -0.8634  0.9477 -0.2086
10209TIP3   OH252117   6.456   3.802   2.319 -0.0001  0.2684 -0.5033
10209TIP3    H152118   6.383   3.850   2.356  0.9234  0.7319  0.7908
10209TIP3    H252119   6.534   3.850   2.347  0.8149 -0.1052 -1.9921
10210TIP3   OH252120   3.695   6.181   0.830  0.5571 -0.4741  0.3698
10210TIP3    H152121   3.774   6.218   0.791  0.5609  1.9334  2.3832
10210TIP3    H252122   3.629   6.251   0.823 -0.7762 -1.6552  0.5856
10211TIP3   OH252123   4.875   3.545   4.199 -0.2744 -0.3289 -0.4603
10211TIP3    H152124   4.839   3.585   4.121  0.7502 -2.0185 -1.8666
10211TIP3    H252125   4.811   3.479   4.225  1.2517 -2.7522 -2.4726
10212TIP3   OH252126   4.742   4.975  12.167  0.3660  0.1539 -0.3984
10212TIP3    H152127   4.731   4.978  12.072 -1.2082 -0.2545 -0.2610
10212TIP3    H252128   4.718   5.063  12.197 -0.0307  0.0132 -0.3031
10213TIP3   OH252129   0.719   5.608   5.874  0.3583  0.2395  0.0925
10213TIP3    H152130   0.781   5.653   5.817 -0.9398  1.0797 -0.7269
10213TIP3    H252131   0.672   5.679   5.918  1.8619 -0.3726  2.9067
10214TIP3   OH252132   5.535   2.767  12.542 -0.1243  0.3491  0.3825
10214TIP3    H152133   5.444   2.740  12.550  0.0644 -0.0503  1.2672
10214TIP3    H252134   5.532   2.848  12.492 -1.0702  0.9539  1.3855
10215TIP3   OH252135   4.470   1.470   0.032 -0.0614 -0.1265  0.2626
10215TIP3    H152136   4.514   1.465   0.117  2.4474 -0.4243 -0.9618
10215TIP3    H252137   4.455   1.564   0.018 -0.3965 -0.0713  0.9739
10216TIP3   OH252138   4.751   6.702   2.227 -0.7389  0.0646 -0.0847
10216TIP3    H152139   4.736   6.778   2.283 -2.0518 -0.4670  0.3308
10216TIP3    H252140   4.818   6.651   2.273  1.0595  1.5251 -0.9692
10217TIP3   OH252141   1.908   1.475   4.279 -0.0226  0.0005 -0.0188
10217TIP3    H152142   1.820   1.440   4.291  1.4181 -4.1733 -0.1249
10217TIP3    H252143   1.909   1.505   4.188 -0.8361 -1.8165 -0.6848
10218TIP3   OH252144   5.437   4.609   3.765 -0.3711 -0.1839  0.0509
10218TIP3    H152145   5.482   4.670   3.822 -1.0431 -0.0804  0.4871
10218TIP3    H252146   5.344   4.624   3.783 -0.6046 -0.0084 -1.2065
10219TIP3   OH252147   4.879   1.954  12.037  0.1583 -0.1902  0.0655
10219TIP3    H152148   4.904   2.043  12.011 -1.9406  0.5706  0.4472
10219TIP3    H252149   4.851   1.963  12.128  0.2515 -1.3189  0.2119
10220TIP3   OH252150   5.815   1.831  14.662 -0.0047 -0.4458 -0.3458
10220TIP3    H152151   5.892   1.790  14.622  0.7117 -1.1576  1.6605
10220TIP3    H252152   5.759   1.758  14.687  0.4032 -0.1574  1.5368
10221TIP3   OH252153   5.946   1.675   3.792 -0.1725  0.1305 -0.8433
10221TIP3    H152154   5.861   1.662   3.835  0.7164  0.1860  1.0196
10221TIP3    H252155   5.962   1.769   3.798  0.1131  0.0932 -1.0260
10222TIP3   OH252156   6.400   2.850   2.551 -0.0045 -0.7670 -0.3315
10222TIP3    H152157   6.435   2.761   2.556 -0.9446 -1.3716 -2.9647
10222TIP3    H252158   6.466   2.904   2.595  1.3364 -2.5702 -0.0105
10223TIP3   OH252159   5.364   5.626   0.946 -0.2236 -0.1361  0.0054
10223TIP3    H152160   5.426   5.637   1.018  0.0970  0.5621 -0.3743
10223TIP3    H252161   5.380   5.537   0.915 -1.5062 -1.0950  1.8385
10224TIP3   OH252162   2.473   5.160   3.880  0.4833  0.0304 -0.2768
10224TIP3    H152163   2.519   5.081   3.907 -0.3895 -0.6644 -0.7600
10224TIP3    H252164   2.405   5.172   3.947  0.6783  0.4320 -0.1492
10225TIP3   OH252165   6.621   4.321   5.087 -0.4852 -0.0144  0.2460
10225TIP3    H152166   6.637   4.397   5.143  0.6725 -0.1626  0.1329
10225TIP3    H252167   6.683   4.332   5.014 -0.2754 -1.0936  0.2531
10226TIP3   OH252168   2.482   4.450  11.979  0.7133 -0.4093 -0.1984
10226TIP3    H152169   2.554   4.457  11.917 -0.0449  1.7977 -0.9178
10226TIP3    H252170   2.521   4.406  12.055  4.1665  4.1116  1.1514
10227TIP3   OH252171   2.470   0.986   1.859  0.8092  0.0480  0.4903
10227TIP3    H152172   2.398   0.990   1.796  1.3857  0.9558 -0.1280
10227TIP3    H252173   2.518   1.067   1.845  1.4055 -0.1108  1.5632
10228TIP3   OH252174   6.300   2.519   5.687 -0.1352 -0.5893  0.1368
10228TIP3    H152175   6.313   2.424   5.697  2.0299 -0.2467  1.1406
10228TIP3    H252176   6.215   2.527   5.644 -1.6077 -2.9046  2.3070
10229TIP3   OH252177   6.549   3.819   6.492  0.1223  0.1074  0.0105
10229TIP3    H152178   6.551   3.791   6.584 -0.5598 -1.2631 -0.3577
10229TIP3    H252179   6.488   3.893   6.490 -1.0250 -0.7864  0.4595
10230TIP3   OH252180   0.825   3.267   2.518 -0.1478  0.3050  0.5930
10230TIP3    H152181   0.861   3.315   2.593  0.8098  0.8084 -0.1537
10230TIP3    H252182   0.891   3.279   2.449 -0.8293 -0.4596 -0.2102
10231TIP3   OH252183   2.443   4.325  15.588 -0.2669 -0.0574 -0.0902
10231TIP3    H152184   2.531   4.290  15.575 -0.6780 -1.1021 -0.1550
10231TIP3    H252185   2.455   4.420  15.586  0.8912 -0.1789  0.1640
10232TIP3   OH252186   6.053   2.499   5.564 -0.0059  0.0580 -0.1055
10232TIP3    H152187   6.051   2.456   5.479  1.0869 -0.1824 -0.0235
10232TIP3    H252188   5.972   2.472   5.607 -0.7076  0.4159 -1.1659
10233TIP3   OH252189   4.763   3.580  14.795 -0.1175 -0.9148  0.2912
10233TIP3    H152190   4.719   3.551  14.875  0.0794 -0.9081  0.4028
10233TIP3    H252191   4.710   3.654  14.765  0.0469 -0.6502  0.6472
10234TIP3   OH252192   2.437   4.125  14.870 -0.1847  0.4310  0.2715
10234TIP3    H152193   2.457   4.094  14.958 -0.4343  0.9334  0.5080
10234TIP3    H252194   2.362   4.183  14.882 -0.1286  0.6135 -0.2516
10235TIP3   OH252195   2.106   4.671   3.134  0.1848 -0.2876 -0.1408
10235TIP3    H152196   2.190   4.647   3.175  0.7316  2.3620  0.4558
10235TIP3    H252197   2.040   4.642   3.197  0.6938 -1.2619 -0.0291
10236TIP3   OH252198   4.024   6.789   6.079  0.2510  0.7970 -0.0028
10236TIP3    H152199   4.033   6.878   6.112  2.6229  0.6117  0.0353
10236TIP3    H252200   4.094   6.781   6.014  0.4061 -1.1876  0.3572
10237TIP3   OH252201   1.600   1.193   1.506 -0.6681  0.1453  0.0776
10237TIP3    H152202   1.517   1.144   1.512  0.8112 -2.4220  1.1803
10237TIP3    H252203   1.641   1.159   1.427 -0.2129  0.6405  0.1024
10238TIP3   OH252204   3.628   3.537   0.996 -0.9466 -0.3723  0.2551
10238TIP3    H152205   3.682   3.533   1.074  0.0985 -1.2402 -0.4817
10238TIP3    H252206   3.595   3.448   0.985 -1.0439 -0.2707 -0.3196
10239TIP3   OH252207   2.296   6.073  10.835  0.1828  0.3085 -0.4034
10239TIP3    H152208   2.239   6.079  10.912  0.3178  1.0188 -0.3567
10239TIP3    H252209   2.238   6.090  10.761  0.0277 -0.4936 -0.4785
10240TIP3   OH252210   6.429   6.371   5.558  0.1911  0.1247  0.4665
10240TIP3    H152211   6.464   6.287   5.528  0.3570  0.0503  0.8563
10240TIP3    H252212   6.474   6.436   5.505  0.1724 -0.0241  0.2651
10241TIP3   OH252213   3.193   2.637   1.818 -0.0668 -0.2294 -0.3152
10241TIP3    H152214   3.146   2.710   1.777 -0.0443  2.0808  3.3368
10241TIP3    H252215   3.285   2.654   1.798 -0.2280 -1.0604 -1.9703
10242TIP3   OH252216   3.871   1.605   4.208  0.4908 -0.5693  0.1358
10242TIP3    H152217   3.800   1.564   4.160 -0.3603 -1.0868  1.7759
10242TIP3    H252218   3.925   1.532   4.238  0.6758 -0.2877  0.4940
10243TIP3   OH252219   1.564   2.634  10.811 -0.4529 -1.1087 -0.1255
10243TIP3    H152220   1.573   2.642  10.716 -2.0124 -3.0779 -0.5298
10243TIP3    H252221   1.471   2.652  10.827 -0.2951 -1.2310  0.9696
10244TIP3   OH252222   4.664   2.028   2.855  0.6807 -0.0681 -0.3483
10244TIP3    H152223   4.738   2.079   2.889  1.5903 -0.7410 -1.2679
10244TIP3    H252224   4.614   2.091   2.803  0.3087  0.5109  0.6784
10245TIP3   OH252225   0.439   4.128   2.441  0.0989  0.2580 -0.4677
10245TIP3    H152226   0.372   4.182   2.399  0.4420  0.5788 -0.6146
10245TIP3    H252227   0.493   4.096   2.369  1.1296  1.4086 -0.2389
10246TIP3   OH252228   4.781   4.034   5.798 -0.1103  0.0113 -0.7706
10246TIP3    H152229   4.801   4.097   5.867 -0.1309 -0.8131  0.0098
10246TIP3    H252230   4.687   4.040   5.787 -0.3041 -0.8526  0.2848
10247TIP3   OH252231   4.812   4.566   2.408  0.1029 -0.4197  0.4567
10247TIP3    H152232   4.756   4.497   2.444 -0.5464 -0.6374 -0.8823
10247TIP3    H252233   4.793   4.643   2.461 -0.0782 -0.9653  1.1925
10248TIP3   OH252234   5.583   6.446   4.846 -0.4759 -0.1592  0.5549
10248TIP3    H152235   5.547   6.507   4.782 -1.9122 -0.0131  1.4452
10248TIP3    H252236   5.677   6.464   4.847 -0.2864 -0.6659 -1.9975
10249TIP3   OH252237   5.647   1.795  17.087  0.0370  0.1509  0.8168
10249TIP3    H152238   5.655   1.701  17.103 -1.0094 -0.1677 -0.3480
10249TIP3    H252239   5.567   1.821  17.132 -1.0425 -0.0552 -0.9113
10250TIP3   OH252240   6.323   6.095   6.143 -0.1212 -1.0560  0.8897
10250TIP3    H152241   6.353   6.013   6.182 -0.0704 -1.0549  0.8539
10250TIP3    H252242   6.334   6.161   6.212 -0.8655 -1.2163  1.1684
10251TIP3   OH252243   0.528   2.458  14.292 -0.3173 -0.2316 -0.3405
10251TIP3    H152244   0.450   2.407  14.272  0.3327 -0.9158 -1.2373
10251TIP3    H252245   0.566   2.416  14.369 -0.4627 -0.3240 -0.3210
10252TIP3   OH252246   5.470   5.909   1.119  0.3126 -0.0804  0.2906
10252TIP3    H152247   5.388   5.923   1.072  0.6332 -1.8137 -0.8743
10252TIP3    H252248   5.454   5.832   1.174  1.0479 -0.2222  0.3214
10253TIP3   OH252249   0.293   3.044  15.034  0.8876  0.1916  0.2104
10253TIP3    H152250   0.261   2.964  14.993  0.7057  0.0483  0.6223
10253TIP3    H252251   0.296   3.024  15.127 -0.9112  1.2140  0.5542
10254TIP3   OH252252   5.900   3.718   5.927 -0.0337  0.1981 -0.0104
10254TIP3    H152253   5.932   3.643   5.979 -1.4086  1.0172  2.1772
10254TIP3    H252254   5.949   3.713   5.845  0.7630 -2.4182  0.5149
10255TIP3   OH252255   5.970   4.523  15.464  0.1451 -0.0295 -0.7494
10255TIP3    H152256   6.037   4.479  15.517 -2.1103 -0.4981  1.9516
10255TIP3    H252257   5.954   4.463  15.391  0.8110 -1.2005  0.0324
10256TIP3   OH252258   5.193   0.527   3.427 -0.2664 -0.1779 -0.0633
10256TIP3    H152259   5.265   0.475   3.390  0.0599 -0.5185  1.0254
10256TIP3    H252260   5.175   0.593   3.360 -0.0141 -1.0689 -1.0406
10257TIP3   OH252261   1.187   1.152   2.949 -0.1658 -0.2051  0.1071
10257TIP3    H152262   1.265   1.168   2.896  1.0786 -0.0547  1.9014
10257TIP3    H252263   1.147   1.238   2.958 -0.4237 -0.2401 -0.5950
10258TIP3   OH252264   4.030   4.404  12.867  0.2551 -0.3876  0.6794
10258TIP3    H152265   4.092   4.460  12.820 -0.7057  0.1369 -0.0053
10258TIP3    H252266   4.033   4.434  12.957  1.0954 -0.4635  0.6798
10259TIP3   OH252267   0.289   5.496   0.750  0.6894 -0.0193  0.1348
10259TIP3    H152268   0.269   5.545   0.671 -1.1940 -1.2837 -0.2342
10259TIP3    H252269   0.314   5.409   0.719 -1.5299 -0.9941  0.9269
10260TIP3   OH252270   2.055   6.454  12.549 -0.2374  0.3253  0.0743
10260TIP3    H152271   1.988   6.414  12.493  1.8210 -0.9281 -1.6530
10260TIP3    H252272   2.131   6.397  12.539  0.8373  1.1388  2.7359
10261TIP3   OH252273   1.552   6.402  13.311 -0.0772 -0.3986  0.1018
10261TIP3    H152274   1.615   6.340  13.348 -0.5902  0.0817  1.9040
10261TIP3    H252275   1.500   6.430  13.386 -1.3703  0.4659 -1.0649
10262TIP3   OH252276   6.642   3.108   0.682  0.0370 -0.0544  0.0225
10262TIP3    H152277   6.579   3.066   0.623 -0.5663  0.5963  0.1976
10262TIP3    H252278   6.725   3.064   0.663 -0.0620  0.3785 -1.5768
10263TIP3   OH252279   3.849   5.796   6.206  0.1314  0.1601  0.2504
10263TIP3    H152280   3.938   5.769   6.226  0.0100 -0.1461  0.3990
10263TIP3    H252281   3.845   5.795   6.110  0.4698  0.8059  0.2249
10264TIP3   OH252282   2.002   6.175   3.743  0.2547 -0.4584 -0.5960
10264TIP3    H152283   1.925   6.202   3.794  0.0621  0.1756 -1.2235
10264TIP3    H252284   1.974   6.094   3.700  1.2067 -2.4415  2.1919
10265TIP3   OH252285   0.217   5.334  15.924  0.4383  0.3303  0.1772
10265TIP3    H152286   0.291   5.276  15.941  1.6132  1.9758  1.0897
10265TIP3    H252287   0.233   5.370  15.837 -0.9254 -1.5304 -0.9060
10266TIP3   OH252288   4.215   0.056   4.932 -0.5284 -0.0560 -0.7575
10266TIP3    H152289   4.140   0.080   4.987 -0.6813  0.0372 -1.0029
10266TIP3    H252290   4.239  -0.032   4.961 -0.6215 -0.0153 -0.5566
10267TIP3   OH252291   1.069   0.900  16.595 -0.0084  0.1084 -0.3032
10267TIP3    H152292   1.033   0.904  16.683  0.6537 -0.6013  0.0077
10267TIP3    H252293   1.127   0.976  16.589 -0.5949  0.5536 -0.3768
10268TIP3   OH252294   3.330   5.466   2.017  0.3673  0.4672 -0.4218
10268TIP3    H152295   3.304   5.545   1.970 -1.6317 -0.4553 -0.9626
10268TIP3    H252296   3.415   5.443   1.979  0.2154  1.4346 -1.3979
10269TIP3   OH252297   3.988   0.633  11.196 -0.1384 -0.6114  0.0067
10269TIP3    H152298   4.052   0.704  11.204  1.3314 -1.7479 -1.0214
10269TIP3    H252299   3.987   0.592  11.282  0.3848 -0.4586  0.0891
10270TIP3   OH252300   4.812   5.665  12.964 -0.0538 -0.3209  0.3309
10270TIP3    H152301   4.859   5.664  12.880 -0.9774 -0.4710 -0.1956
10270TIP3    H252302   4.787   5.756  12.976  0.1768 -0.2800  0.4997
10271TIP3   OH252303   1.024   3.312   0.663  0.5533  0.1159  0.0008
10271TIP3    H152304   1.020   3.223   0.627 -0.3939  0.3529 -0.5173
10271TIP3    H252305   1.087   3.358   0.607 -0.1579  0.2024 -0.7438
10272TIP3   OH252306   4.357   3.805  16.943  0.0946  0.4308  0.1037
10272TIP3    H152307   4.392   3.878  16.891 -1.1079  0.9443 -0.0255
10272TIP3    H252308   4.433   3.753  16.966  1.3075  2.7680  1.8349
10273TIP3   OH252309   6.733   1.330   3.421 -0.0092  0.1970  0.0014
10273TIP3    H152310   6.825   1.342   3.401  0.2048 -1.8766 -0.4895
10273TIP3    H252311   6.732   1.266   3.492 -1.0645 -0.9618 -0.9968
10274TIP3   OH252312   5.562   3.792   1.323  0.6977 -0.1792 -0.3328
10274TIP3    H152313   5.583   3.755   1.237 -0.1461 -0.1937 -0.5477
10274TIP3    H252314   5.481   3.841   1.308  0.4915 -0.2601  0.4735
10275TIP3   OH252315   3.753   1.967   0.565 -0.0329 -0.5876 -0.0352
10275TIP3    H152316   3.682   1.965   0.630  0.2339  0.2733  0.2995
10275TIP3    H252317   3.792   2.054   0.575  0.5175 -0.7339 -0.8162
10276TIP3   OH252318   5.264   2.441   4.958 -0.2850  0.2716  0.2636
10276TIP3    H152319   5.205   2.368   4.936  0.1714  0.1418 -0.5748
10276TIP3    H252320   5.221   2.485   5.032 -2.3958  1.2771 -1.4463
10277TIP3   OH252321   4.402   3.092  14.364  0.0766  0.2749  0.0248
10277TIP3    H152322   4.420   3.120  14.274  0.1433  0.7495  0.1805
10277TIP3    H252323   4.328   3.146  14.391  1.7608  2.1449  1.1795
10278TIP3   OH252324   4.842   4.923  11.504  0.0392  0.5171  0.4201
10278TIP3    H152325   4.930   4.902  11.535 -0.8490 -1.1317  2.0671
10278TIP3    H252326   4.829   4.866  11.428 -0.0847 -0.2856  1.0309
10279TIP3   OH252327   2.595   3.172   0.297 -0.3766  0.5777 -0.1031
10279TIP3    H152328   2.564   3.263   0.300 -0.7945  0.4129  2.6591
10279TIP3    H252329   2.532   3.127   0.241  0.4784  2.1366 -2.4955
10280TIP3   OH252330   0.584   4.288   5.405 -0.8732  0.1265 -0.4961
10280TIP3    H152331   0.525   4.360   5.382 -1.4134 -0.1090  0.1076
10280TIP3    H252332   0.544   4.250   5.484 -0.2930 -0.4844 -0.4967
10281TIP3   OH252333   1.804   4.964   2.893  0.0564  0.0426 -0.0852
10281TIP3    H152334   1.716   4.927   2.900 -0.5265  1.1673 -1.0675
10281TIP3    H252335   1.790   5.059   2.889  1.4178  0.3251  1.1518
10282TIP3   OH252336   4.081   2.703  11.885 -0.4131 -0.4036  0.5489
10282TIP3    H152337   4.107   2.612  11.897  0.2024 -0.2724  0.2092
10282TIP3    H252338   4.162   2.753  11.891 -0.6522  0.0593  0.0252
10283TIP3   OH252339   6.201   0.119  14.485  0.4842 -0.3075 -0.1679
10283TIP3    H152340   6.291   0.086  14.494  0.7571  0.5547  0.3627
10283TIP3    H252341   6.161   0.103  14.570 -0.4375 -2.2403 -0.8861
10284TIP3   OH252342   2.810   2.044   5.556 -0.1589  0.1148 -0.2598
10284TIP3    H152343   2.856   2.125   5.534  0.4308  0.2720  1.3615
10284TIP3    H252344   2.727   2.074   5.594 -0.2809 -0.0595 -0.3925
10285TIP3   OH252345   6.572   5.530  11.041 -0.2363 -0.0001 -0.1581
10285TIP3    H152346   6.515   5.549  10.966 -1.1210 -0.1183  0.4768
10285TIP3    H252347   6.559   5.603  11.101 -0.7617 -0.7003  0.5981
10286TIP3   OH252348   3.954   4.768   4.760 -0.3892  0.3334 -0.1591
10286TIP3    H152349   3.878   4.819   4.733 -1.5490 -1.2553 -0.0397
10286TIP3    H252350   3.952   4.771   4.856  0.6170  1.5403 -0.1496
10287TIP3   OH252351   1.634   0.679  14.398  0.3510 -0.0112  0.0410
10287TIP3    H152352   1.613   0.692  14.306  1.9528 -1.5350 -0.5842
10287TIP3    H252353   1.580   0.604  14.424 -1.3697  1.4287  0.8739
10288TIP3   OH252354   2.617   3.330   0.618  0.1477  0.6128 -0.0073
10288TIP3    H152355   2.636   3.408   0.565  0.0761 -0.5667 -1.8590
10288TIP3    H252356   2.521   3.326   0.621  0.0564 -0.9196 -2.4100
10289TIP3   OH252357   1.185   6.147   5.734 -0.3100  0.2877 -0.1295
10289TIP3    H152358   1.107   6.196   5.705  1.7280  2.8766 -1.7107
10289TIP3    H252359   1.186   6.070   5.678 -2.7092 -0.8776  1.2588
10290TIP3   OH252360   2.757   1.588   0.931 -0.4317 -0.0895 -0.5019
10290TIP3    H152361   2.822   1.610   0.998 -1.4538 -1.5366  1.0562
10290TIP3    H252362   2.723   1.672   0.901  0.5526  0.6128  0.2980
10291TIP3   OH252363   0.340   4.036  13.030 -0.7284 -0.1154 -0.1636
10291TIP3    H152364   0.374   3.987  13.105  1.8419  0.0286 -1.1289
10291TIP3    H252365   0.383   3.997  12.954 -1.1770  1.4766 -1.2971
10292TIP3   OH252366   6.782   5.015  17.192 -0.5527  0.0221 -0.3119
10292TIP3    H152367   6.753   5.105  17.177  0.7726  0.4867 -0.2550
10292TIP3    H252368   6.723   4.961  17.139 -2.3034  0.7754  0.8028
10293TIP3   OH252369   0.817   3.858   4.781  0.0665  0.2468  0.1727
10293TIP3    H152370   0.800   3.944   4.742  1.2741  0.4402  0.0231
10293TIP3    H252371   0.844   3.803   4.707  1.5837  0.3949  0.5846
10294TIP3   OH252372   3.682   3.023  12.828  0.4900 -0.2317  0.4996
10294TIP3    H152373   3.734   2.976  12.893  1.2399 -1.8563 -1.1749
10294TIP3    H252374   3.745   3.045  12.759  0.0015  2.5943  0.8118
10295TIP3   OH252375   4.393   6.665   6.389  0.1907  0.0651  0.0176
10295TIP3    H152376   4.442   6.732   6.436  1.3832 -0.1013 -0.9456
10295TIP3    H252377   4.316   6.649   6.444  1.1477  0.4090  1.5199
10296TIP3   OH252378   6.217   6.066  13.384 -0.2722  0.3878  0.5176
10296TIP3    H152379   6.248   6.073  13.474 -2.6426 -0.8865  1.5175
10296TIP3    H252380   6.130   6.106  13.385 -1.7020 -2.4141 -0.3500
10297TIP3   OH252381   4.781   1.454  12.883  0.2571 -0.6703  0.2048
10297TIP3    H152382   4.797   1.548  12.872  2.1387 -0.8673  0.8321
10297TIP3    H252383   4.693   1.441  12.850  0.3683  1.1244 -0.9679
10298TIP3   OH252384   2.263   6.259  14.636  0.0796  0.2126 -0.8039
10298TIP3    H152385   2.321   6.204  14.688  1.2058 -0.5565 -2.7787
10298TIP3    H252386   2.293   6.348  14.652 -1.3889  0.3333  1.9638
10299TIP3   OH252387   6.449   3.736  14.634  0.0680 -0.5745 -0.3718
10299TIP3    H152388   6.479   3.757  14.545  0.5506  1.9553  0.3027
10299TIP3    H252389   6.521   3.686  14.673  0.9316  0.4281 -0.6389
10300TIP3   OH252390   6.594   2.272  13.637  0.2186 -0.1745 -0.2469
10300TIP3    H152391   6.642   2.351  13.612 -1.8496  0.9284 -0.9345
10300TIP3    H252392   6.602   2.214  13.561  0.1886  0.1354 -0.4866
10301TIP3   OH252393   3.741   4.939   4.695  0.1251  0.4324 -0.4537
10301TIP3    H152394   3.653   4.906   4.718 -0.4248  3.1410  1.8341
10301TIP3    H252395   3.725   5.002   4.625  0.9115 -2.1152 -3.1583
10302TIP3   OH252396   5.569   2.062   6.536 -0.4589  0.3234 -0.6503
10302TIP3    H152397   5.571   1.971   6.507  0.8937 -0.1267  0.7152
10302TIP3    H252398   5.479   2.076   6.564 -0.5217 -0.8380 -0.2090
10303TIP3   OH252399   2.687   4.394   1.665 -0.1257  0.1660  0.2231
10303TIP3    H152400   2.602   4.411   1.624 -0.1095  0.1197  0.1697
10303TIP3    H252401   2.669   4.396   1.759 -0.1010  0.5960  0.2231
10304TIP3   OH252402   6.227   0.972  17.071  0.3606 -0.2685 -0.1042
10304TIP3    H152403   6.161   0.967  17.140 -0.4268  0.3548 -0.7872
10304TIP3    H252404   6.205   0.900  17.012  0.7129 -0.4776  0.0144
10305TIP3   OH252405   3.444   3.117  15.500 -0.2322 -0.3215  0.3981
10305TIP3    H152406   3.530   3.087  15.528 -0.3455  0.4268  1.6042
10305TIP3    H252407   3.384   3.082  15.566 -0.6534  0.4620  0.4460
10306TIP3   OH252408   5.924   2.799   1.406  0.4566 -0.0644 -0.7390
10306TIP3    H152409   5.928   2.739   1.482 -1.2165 -0.6702 -1.0836
10306TIP3    H252410   6.008   2.786   1.362  0.6968 -1.1236 -0.0322
10307TIP3   OH252411   2.446   0.802  17.232 -0.2434  0.6103 -0.3146
10307TIP3    H152412   2.517   0.764  17.180 -0.2565  1.1082 -0.7007
10307TIP3    H252413   2.453   0.896  17.218 -0.8043  0.6841 -0.1272
10308TIP3   OH252414   2.494   1.869   2.063  0.6334  0.6622 -0.3073
10308TIP3    H152415   2.521   1.961   2.056  2.0435  0.4122  1.2939
10308TIP3    H252416   2.531   1.827   1.985  3.1516  0.7777  0.7253
10309TIP3   OH252417   5.323   5.208  11.324  0.7083  0.1299 -0.4519
10309TIP3    H152418   5.327   5.282  11.386 -4.3560 -1.4260  2.2995
10309TIP3    H252419   5.388   5.147  11.357 -0.0966  0.4385  1.9356
10310TIP3   OH252420   2.490   4.808   3.109  0.1301 -0.3443 -0.2349
10310TIP3    H152421   2.424   4.877   3.102 -0.1985 -0.5937  0.3081
10310TIP3    H252422   2.573   4.852   3.094 -0.1443  0.0104 -0.7409
10311TIP3   OH252423   3.413   0.376  12.834  0.1042  0.2222  0.0192
10311TIP3    H152424   3.495   0.404  12.876  0.0431 -0.9747  1.0110
10311TIP3    H252425   3.416   0.280  12.839 -1.3976  0.1649  0.1607
10312TIP3   OH252426   2.548   4.332  13.494  0.0281  0.0883  0.3173
10312TIP3    H152427   2.615   4.389  13.457 -0.2467 -0.8849 -1.8521
10312TIP3    H252428   2.546   4.256  13.436 -4.0316  0.7728 -0.7714
10313TIP3   OH252429   1.061   5.831   0.001  0.4206  0.2087 -0.2494
10313TIP3    H152430   1.091   5.904  -0.053  0.2967 -0.3941 -1.1587
10313TIP3    H252431   1.117   5.834   0.079 -1.6491  3.2303  1.3545
10314TIP3   OH252432   6.755   3.470   1.417 -0.0707  0.3146  0.2848
10314TIP3    H152433   6.798   3.454   1.501  0.2415  0.1702  0.0986
10314TIP3    H252434   6.668   3.432   1.427  0.1493 -0.1727  0.3616
10315TIP3   OH252435   6.403   4.300  15.233 -0.5886 -0.0692 -0.8281
10315TIP3    H152436   6.329   4.348  15.195 -1.0945 -0.8354 -0.8273
10315TIP3    H252437   6.466   4.292  15.162 -1.1407 -0.6954 -1.2499
10316TIP3   OH252438   4.134   0.734  16.277 -0.4614  0.2884 -0.5438
10316TIP3    H152439   4.094   0.790  16.210  1.6890  1.7291 -0.7062
10316TIP3    H252440   4.214   0.702  16.237  2.0103  2.8397  1.8732
10317TIP3   OH252441   5.666   2.726   0.249 -0.3216 -0.0189 -0.2749
10317TIP3    H152442   5.641   2.681   0.168  0.4383 -0.9398 -0.0069
10317TIP3    H252443   5.583   2.757   0.285 -0.8588 -1.1811 -0.4784
10318TIP3   OH252444   2.302   5.139  16.367 -0.1914  0.4498  0.0187
10318TIP3    H152445   2.318   5.048  16.393 -2.6244 -0.6888 -2.0810
10318TIP3    H252446   2.276   5.182  16.449  2.4650 -0.2603  1.3524
10319TIP3   OH252447   4.071   4.975  11.894 -0.5009 -0.3091  0.1167
10319TIP3    H152448   4.146   4.964  11.835  1.4226  1.9351  1.9361
10319TIP3    H252449   4.015   5.038  11.851 -1.0009 -1.4182 -0.9102
10320TIP3   OH252450   2.251   1.589  15.204 -0.3021 -0.4381 -0.2521
10320TIP3    H152451   2.344   1.610  15.189 -0.5695  0.2439 -1.0492
10320TIP3    H252452   2.207   1.674  15.202 -0.9173 -0.7306  0.4031
10321TIP3   OH252453   5.172   6.723  14.899 -0.3524  0.2996  0.0223
10321TIP3    H152454   5.094   6.775  14.878  0.4186  0.7393 -1.9390
10321TIP3    H252455   5.195   6.680  14.817  0.5412 -1.1199  0.9782
10322TIP3   OH252456   6.607   5.579  14.276 -0.1567  0.1501  0.2170
10322TIP3    H152457   6.531   5.537  14.317  0.6845 -2.0487 -0.3192
10322TIP3    H252458   6.570   5.624  14.200 -0.8237 -2.4701 -1.1563
10323TIP3   OH252459   3.629   4.189  16.721 -0.2632 -0.6253  0.0367
10323TIP3    H152460   3.689   4.127  16.679  1.1581 -1.2819  2.7330
10323TIP3    H252461   3.602   4.144  16.801 -0.5944  1.5461  1.2178
10324TIP3   OH252462   1.994   2.650  13.259  0.0316 -0.3917  0.5069
10324TIP3    H152463   1.914   2.616  13.300 -0.4238  1.4775  1.2920
10324TIP3    H252464   2.012   2.731  13.307  0.5609  0.9127 -1.7598
10325TIP3   OH252465   1.122   5.273  11.612 -0.3558 -0.4653 -0.1967
10325TIP3    H152466   1.073   5.290  11.531  2.5350  1.5554 -1.7022
10325TIP3    H252467   1.192   5.213  11.586  0.3870 -0.0993  0.8855
10326TIP3   OH252468   2.109   3.126  12.247 -0.5198  0.4245  0.2144
10326TIP3    H152469   2.119   3.070  12.324 -0.7161  1.0155  0.6710
10326TIP3    H252470   2.047   3.079  12.191 -3.1118  1.5739  1.9423
10327TIP3   OH252471   2.780   3.890  15.760 -0.8976  0.1040  0.1666
10327TIP3    H152472   2.745   3.912  15.674  1.0975  1.7552 -0.2823
10327TIP3    H252473   2.823   3.805  15.747 -0.6935  0.2976 -0.4613
10328TIP3   OH252474   6.284   1.475  13.718  0.7460 -0.5198 -0.0542
10328TIP3    H152475   6.237   1.399  13.754  1.5166 -1.9919 -1.9973
10328TIP3    H252476   6.374   1.444  13.706  1.1067  0.7426 -0.8001
10329TIP3   OH252477   4.926   3.975  12.597 -0.0471 -0.6691  0.6154
10329TIP3    H152478   4.956   3.989  12.687 -2.6236 -0.7930  1.5678
10329TIP3    H252479   4.879   4.056  12.574 -0.2954 -1.0433 -0.2382
10330TIP3   OH252480   0.516   0.385  14.713  0.2119  0.0986  0.1874
10330TIP3    H152481   0.495   0.459  14.769 -0.8736 -0.2141  0.2072
10330TIP3    H252482   0.523   0.310  14.773  0.0969 -0.0419  0.0258
10331TIP3   OH252483   5.563   3.778   6.551 -1.2714  0.0908 -0.7305
10331TIP3    H152484   5.579   3.868   6.522  0.1987 -0.5687 -2.1559
10331TIP3    H252485   5.488   3.749   6.499  0.6213 -0.6926 -3.2436
10332TIP3   OH252486   0.797   6.485   4.470  0.5771 -0.2653 -0.1522
10332TIP3    H152487   0.779   6.570   4.511 -1.8776 -0.9249  0.2887
10332TIP3    H252488   0.745   6.487   4.389  0.3819 -1.4157 -0.0574
10333TIP3   OH252489   3.740   5.959  14.500  0.7159  0.0025 -0.0347
10333TIP3    H152490   3.759   5.963  14.406 -2.8754 -0.4575 -0.9183
10333TIP3    H252491   3.767   5.871  14.526 -2.4912 -1.7348 -1.9001
10334TIP3   OH252492   0.649   3.361  11.330 -0.2484 -0.1367  0.6347
10334TIP3    H152493   0.647   3.448  11.372 -0.2486  0.3695 -0.3834
10334TIP3    H252494   0.662   3.380  11.237  1.5401 -1.3028  0.6143
10335TIP3   OH252495   0.035   1.439  14.990  0.1019  0.4314  0.1833
10335TIP3    H152496   0.009   1.530  14.976 -0.3576  0.2639 -0.0643
10335TIP3    H252497  -0.045   1.395  15.016  0.5452  0.3344  1.4676
10336TIP3   OH252498   3.516   1.850   3.797  0.0023  0.0824 -0.2786
10336TIP3    H152499   3.454   1.832   3.726 -0.4865  1.2903 -0.1889
10336TIP3    H252500   3.580   1.909   3.757 -0.1196  0.5450  0.2020
10337TIP3   OH252501   1.856   0.195   1.322 -0.0366  0.2865  0.1796
10337TIP3    H152502   1.819   0.194   1.410  1.0898 -0.1004  0.6741
10337TIP3    H252503   1.913   0.272   1.321 -0.9092  0.9428 -0.6027
10338TIP3   OH252504   6.594   2.176   4.553  0.7918  0.2199 -0.4761
10338TIP3    H152505   6.505   2.148   4.575  1.8395 -4.3478 -0.9120
10338TIP3    H252506   6.645   2.158   4.633  1.7516  0.0186 -1.1188
10339TIP3   OH252507   6.664   5.210   3.939  0.5261 -0.1694  0.2879
10339TIP3    H152508   6.587   5.218   3.995  0.1539 -0.9369 -0.1058
10339TIP3    H252509   6.677   5.116   3.929  0.4268 -0.0449 -1.1439
10340TIP3   OH252510   5.808   4.716   0.903 -0.4464  1.0549  0.1965
10340TIP3    H152511   5.740   4.676   0.957 -0.3388 -1.1223 -1.1427
10340TIP3    H252512   5.760   4.758   0.831 -0.4441  0.1137 -0.3742
10341TIP3   OH252513   3.702   2.597  13.365  0.5037  1.0566  0.7151
10341TIP3    H152514   3.647   2.626  13.292  2.0634 -0.5522 -1.2220
10341TIP3    H252515   3.649   2.614  13.443 -1.6530  1.9587 -0.8387
10342TIP3   OH252516   4.637   2.498  14.740  0.2062  0.0052  0.0849
10342TIP3    H152517   4.721   2.485  14.696 -0.0370  1.0472 -0.7214
10342TIP3    H252518   4.658   2.489  14.833  0.8960 -1.3327 -0.1617
10343TIP3   OH252519   2.736   0.758   4.311  0.0010  0.0218  0.5615
10343TIP3    H152520   2.650   0.796   4.295 -0.5861 -2.1114 -1.9711
10343TIP3    H252521   2.794   0.801   4.248  0.7873  1.1928  2.0132
10344TIP3   OH252522   5.285   0.045   5.699 -0.3013 -0.0086  0.1674
10344TIP3    H152523   5.209  -0.011   5.684 -0.4315 -0.0795  1.0471
10344TIP3    H252524   5.250   0.124   5.740 -0.0361  0.4361 -0.4536
10345TIP3   OH252525   0.792   3.772   3.873  0.4778  0.4147  0.1529
10345TIP3    H152526   0.707   3.781   3.916  0.1267  0.9828 -0.6331
10345TIP3    H252527   0.772   3.775   3.779  1.2541 -0.4758 -0.0581
10346TIP3   OH252528   1.917   4.476  10.311  0.0054  0.9515  0.1854
10346TIP3    H152529   1.842   4.469  10.370 -0.0923  0.4399  0.0090
10346TIP3    H252530   1.898   4.554  10.258 -0.2371  1.0191  0.3690
10347TIP3   OH252531   4.206   3.000   5.223 -0.2874 -0.4333 -0.2367
10347TIP3    H152532   4.203   3.095   5.215  0.8745 -0.4419 -0.9941
10347TIP3    H252533   4.171   2.968   5.141  1.9238 -0.6072 -1.1771
10348TIP3   OH252534   5.217   5.879  14.396 -0.7052  0.3399  0.0423
10348TIP3    H152535   5.207   5.796  14.442  1.2896 -1.1548 -2.0121
10348TIP3    H252536   5.291   5.922  14.439 -1.6423  1.0321  1.0079
10349TIP3   OH252537   1.982   2.235   2.409 -0.0226 -0.1843  0.3764
10349TIP3    H152538   1.889   2.260   2.411  0.1656  0.7197 -0.9829
10349TIP3    H252539   2.023   2.302   2.355  1.4283 -0.6027  0.9317
10350TIP3   OH252540   1.529   3.210   2.281  0.6583  0.1755  0.2768
10350TIP3    H152541   1.499   3.137   2.336 -2.4344  0.2116 -1.1631
10350TIP3    H252542   1.501   3.288   2.329 -0.1102  0.2677 -0.3149
10351TIP3   OH252543   3.141   0.542  13.822  0.3750 -0.4792  0.5046
10351TIP3    H152544   3.148   0.633  13.852  2.9949 -0.9402  1.5769
10351TIP3    H252545   3.098   0.496  13.894  2.3600 -0.7022  1.6139
10352TIP3   OH252546   1.076   2.609  14.675  0.0486  0.2086  0.7034
10352TIP3    H152547   0.995   2.571  14.641  1.1761 -1.6859  0.0200
10352TIP3    H252548   1.047   2.681  14.731 -2.0367  0.4851 -0.6474
10353TIP3   OH252549   1.615   0.474  12.198  0.4762  0.0547  0.1431
10353TIP3    H152550   1.547   0.414  12.231 -0.9481  1.7368  0.3782
10353TIP3    H252551   1.696   0.424  12.207 -0.5755 -1.6317  0.8694
10354TIP3   OH252552   2.363   4.158   3.348 -0.3171  0.0684 -0.5824
10354TIP3    H152553   2.374   4.136   3.255  0.9393 -1.0134 -0.2169
10354TIP3    H252554   2.391   4.249   3.354  1.8558 -0.5205 -0.9219
10355TIP3   OH252555   1.445   0.455   2.876  0.3363  0.1873 -0.4318
10355TIP3    H152556   1.404   0.380   2.834  1.9694 -3.4651  3.7297
10355TIP3    H252557   1.377   0.491   2.933  0.3828 -0.0447 -0.2304
10356TIP3   OH252558   1.456   1.902   4.335 -0.1130  0.0038  0.6365
10356TIP3    H152559   1.446   1.808   4.351  1.7983 -0.2572  0.4732
10356TIP3    H252560   1.501   1.934   4.413  0.0744  0.6153  0.2793
10357TIP3   OH252561   1.949   1.009  15.623 -0.4716 -0.6914 -0.7508
10357TIP3    H152562   1.982   0.919  15.623  0.5915 -0.3184 -0.6049
10357TIP3    H252563   2.025   1.062  15.600 -1.5221  0.0371 -2.8387
10358TIP3   OH252564   5.375   2.050  13.506 -0.1415 -0.5170  0.4978
10358TIP3    H152565   5.426   2.003  13.441 -2.4876  0.2372 -2.0585
10358TIP3    H252566   5.421   2.134  13.516 -0.4395 -0.1024 -1.2696
10359TIP3   OH252567   4.819   0.274  12.880  0.1187  0.5074  0.0306
10359TIP3    H152568   4.874   0.351  12.866 -0.7611  0.9391 -1.1395
10359TIP3    H252569   4.730   0.303  12.862 -0.4591 -0.3364  1.3391
10360TIP3   OH252570   0.828   5.191   0.014 -0.2248  0.5024  0.3335
10360TIP3    H152571   0.897   5.127   0.032 -0.8813 -1.3797 -2.9844
10360TIP3    H252572   0.847   5.222  -0.075 -2.2153  1.8705  0.3162
10361TIP3   OH252573   6.356   0.479  12.293 -0.0808 -0.0966  0.0892
10361TIP3    H152574   6.438   0.507  12.334 -0.0741 -0.2985  0.2203
10361TIP3    H252575   6.356   0.384  12.304  0.2537 -0.2315 -0.9988
10362TIP3   OH252576   6.781   1.463  15.290  0.5340 -0.4620  0.3882
10362TIP3    H152577   6.799   1.541  15.343  0.1680  0.3080 -0.5766
10362TIP3    H252578   6.686   1.464  15.279  0.5810 -0.7478 -0.0642
10363TIP3   OH252579   5.663   3.624   5.468  0.0268  0.3974  0.0564
10363TIP3    H152580   5.657   3.551   5.407 -1.6276  1.2623 -0.8975
10363TIP3    H252581   5.646   3.584   5.554 -0.7433 -0.3764 -0.4308
10364TIP3   OH252582   5.751   3.324  12.152  0.2499 -0.6293  0.0934
10364TIP3    H152583   5.757   3.415  12.180 -1.2940 -0.0860 -1.1886
10364TIP3    H252584   5.805   3.320  12.073  1.7776 -1.3127  1.1152
10365TIP3   OH252585   4.447   4.460  12.635  0.1062 -0.3330 -0.4916
10365TIP3    H152586   4.365   4.503  12.660  0.0186 -0.4727 -0.5356
10365TIP3    H252587   4.421   4.398  12.567 -0.1048 -1.8552  0.8957
10366TIP3   OH252588   0.244   1.099   1.654  0.0521 -0.1727  0.3202
10366TIP3    H152589   0.156   1.130   1.674  1.1831  1.9411  2.5544
10366TIP3    H252590   0.252   1.015   1.699 -0.6934 -0.1782  0.4433
10367TIP3   OH252591   3.461   0.968  16.123 -0.3400  0.0194 -0.1522
10367TIP3    H152592   3.398   0.953  16.194  0.4617  1.1528  0.8346
10367TIP3    H252593   3.412   1.017  16.058 -0.3814  1.3169  0.8202
10368TIP3   OH252594   5.762   6.814   0.823 -0.6400 -0.2800  0.2581
10368TIP3    H152595   5.765   6.832   0.729 -0.6744 -1.3958  0.0304
10368TIP3    H252596   5.854   6.817   0.851 -0.7708  1.9180  0.5829
10369TIP3   OH252597   1.994   0.300   0.601  0.1258  0.1264 -0.0670
10369TIP3    H152598   2.026   0.383   0.566 -0.7475  0.9618  1.0275
10369TIP3    H252599   2.070   0.260   0.643  0.3486  0.8223  0.1998
10370TIP3   OH252600   2.361   2.782  15.306  0.1539 -0.2350 -0.2675
10370TIP3    H152601   2.441   2.829  15.281  0.7485 -1.6002 -1.0743
10370TIP3    H252602   2.292   2.824  15.255  0.4417  0.5637 -0.0247
10371TIP3   OH252603   1.127   1.860  15.431  0.0536 -0.2361  0.6887
10371TIP3    H152604   1.151   1.930  15.370  0.0795  1.3489  2.4274
10371TIP3    H252605   1.193   1.864  15.499  0.8181 -2.8981  0.1816
10372TIP3   OH252606   4.032   4.212  14.237 -0.2639  0.4071 -0.0874
10372TIP3    H152607   3.950   4.188  14.193  0.0027  1.6820 -1.3845
10372TIP3    H252608   4.098   4.156  14.196 -0.6030 -1.5433  1.8590
10373TIP3   OH252609   6.297   0.119   4.134 -0.1169  0.0449  0.5712
10373TIP3    H152610   6.263   0.209   4.136 -2.0442 -0.6378  1.0877
10373TIP3    H252611   6.230   0.070   4.086  0.4770 -1.2760  1.0572
10374TIP3   OH252612   4.121   3.994   1.314  0.4300  0.3135 -0.3673
10374TIP3    H152613   4.210   4.006   1.345  0.7958 -0.6075 -1.0424
10374TIP3    H252614   4.124   3.917   1.257 -0.7927  0.2499 -0.3899
10375TIP3   OH252615   4.925   2.784   3.597  0.0961  0.9144  0.4313
10375TIP3    H152616   4.974   2.704   3.619  1.7578  1.9111  0.5405
10375TIP3    H252617   4.906   2.824   3.682  0.6816  1.4264  0.3289
10376TIP3   OH252618   1.996   6.001  10.659  0.1956 -0.3495  0.7213
10376TIP3    H152619   2.028   5.917  10.692 -1.2800 -0.3710  2.2522
10376TIP3    H252620   1.995   6.058  10.736  0.3281  0.8253 -0.1100
10377TIP3   OH252621   3.673   3.395  12.614  0.0404  0.3501 -0.1504
10377TIP3    H152622   3.735   3.327  12.584  3.4346  3.4609 -0.9518
10377TIP3    H252623   3.610   3.403  12.542 -0.9650 -2.3757  0.3202
10378TIP3   OH252624   1.190   3.695  11.449 -0.1478 -0.3632 -0.0177
10378TIP3    H152625   1.190   3.627  11.517  0.3147  1.2745  1.6870
10378TIP3    H252626   1.214   3.775  11.495  0.9781  0.6897 -2.2761
10379TIP3   OH252627   5.527   0.561   2.235 -1.0808  0.1746 -0.2340
10379TIP3    H152628   5.584   0.540   2.310 -0.0901 -0.4703 -1.1369
10379TIP3    H252629   5.588   0.589   2.166 -1.9250  0.1320 -1.0092
10380TIP3   OH252630   5.359   2.820  14.326  0.1192  0.7250  0.2406
10380TIP3    H152631   5.323   2.904  14.353 -1.5166 -0.1324  0.8677
10380TIP3    H252632   5.414   2.793  14.399 -0.9782  0.3337  0.9404
10381TIP3   OH252633   0.574   0.223   2.108  0.7867  0.4236 -0.3304
10381TIP3    H152634   0.624   0.303   2.094 -1.2095  2.3573  2.5538
10381TIP3    H252635   0.565   0.217   2.203 -1.8579 -1.4537 -0.6059
10382TIP3   OH252636   5.238   1.725  15.029  0.3878 -0.0467 -0.1420
10382TIP3    H152637   5.285   1.692  14.952 -0.6440 -0.7755 -0.4749
10382TIP3    H252638   5.154   1.755  14.995  0.2404  0.3877  0.5883
10383TIP3   OH252639   2.675   5.754   1.119 -0.0035 -0.3694  0.3129
10383TIP3    H152640   2.702   5.770   1.210  2.2877 -1.2731 -0.1314
10383TIP3    H252641   2.752   5.713   1.079 -0.7213  0.5850 -2.2133
10384TIP3   OH252642   1.523   2.745  11.813 -0.3430 -0.5421  0.0802
10384TIP3    H152643   1.583   2.707  11.748 -0.7035  1.0391 -1.2446
10384TIP3    H252644   1.441   2.696  11.801 -0.2744 -0.5592 -0.3476
10385TIP3   OH252645   3.758   0.902  14.759 -0.4728  0.2306  0.2196
10385TIP3    H152646   3.817   0.907  14.684  0.6585  1.9093  1.1609
10385TIP3    H252647   3.700   0.829  14.739  1.2564 -0.8228 -1.2278
10386TIP3   OH252648   1.934   4.943  13.706 -0.3591  0.1716  0.5440
10386TIP3    H152649   1.995   4.941  13.633  1.0034 -1.0599  1.6603
10386TIP3    H252650   1.865   4.882  13.681 -0.1751  0.1584  0.0608
10387TIP3   OH252651   0.972   3.615   0.058 -0.2491 -0.2122 -0.3144
10387TIP3    H152652   0.958   3.587  -0.032 -2.2226 -0.8418  0.1326
10387TIP3    H252653   0.892   3.662   0.081  0.2448 -0.0090  1.0956
10388TIP3   OH252654   3.604   5.437  11.472 -0.1814 -0.4264 -0.0834
10388TIP3    H152655   3.646   5.519  11.446  1.0310 -1.2532 -0.9123
10388TIP3    H252656   3.525   5.463  11.518  1.0658  1.2343  1.2297
10389TIP3   OH252657   1.320   0.526  14.082  0.1922  0.0994 -0.4862
10389TIP3    H152658   1.361   0.449  14.121  1.6617  1.3257  0.5083
10389TIP3    H252659   1.365   0.600  14.122 -0.7316  1.4822 -1.8890
10390TIP3   OH252660   6.586   3.850  13.460  0.4693  0.2728 -0.1048
10390TIP3    H152661   6.635   3.777  13.423  1.9117  0.6348  0.9904
10390TIP3    H252662   6.645   3.925  13.452 -0.6931  1.1726 -0.5509
10391TIP3   OH252663   0.864   0.796  15.894 -0.2265  0.3277 -0.1415
10391TIP3    H152664   0.863   0.755  15.981  0.8536  0.2841 -0.1400
10391TIP3    H252665   0.921   0.873  15.904  0.3368  0.0284 -0.9308
10392TIP3   OH252666   1.886   5.853   1.765 -0.5356 -0.5425  0.1920
10392TIP3    H152667   1.930   5.826   1.685 -0.1602  0.6879 -0.0443
10392TIP3    H252668   1.949   5.912   1.807 -1.2321 -0.2033  0.7673
10393TIP3   OH252669   5.848   5.754   0.279  0.3690  0.6059 -0.7717
10393TIP3    H152670   5.921   5.720   0.330 -0.0116  2.2696  0.9846
10393TIP3    H252671   5.888   5.786   0.198  1.1530 -0.9239 -1.0303
10394TIP3   OH252672   2.597   5.291  13.258 -0.5240 -0.6881 -0.0625
10394TIP3    H152673   2.574   5.248  13.175  1.2922  0.0651 -1.0118
10394TIP3    H252674   2.679   5.336  13.240 -0.8126  0.7026  1.7608
10395TIP3   OH252675   2.769   6.228  15.856 -0.1045 -0.5604  0.1878
10395TIP3    H152676   2.838   6.164  15.840  0.2468 -0.5938  1.7071
10395TIP3    H252677   2.689   6.184  15.829  0.4074 -0.6034 -1.3874
10396TIP3   OH252678   5.968   6.617   6.495 -0.2918  0.2224  0.2667
10396TIP3    H152679   6.046   6.669   6.474 -1.1675  0.7949 -1.8232
10396TIP3    H252680   5.894   6.673   6.471 -1.4784  0.2788  3.5792
10397TIP3   OH252681   0.603   4.674  13.387  0.5211  0.1603 -1.1831
10397TIP3    H152682   0.606   4.686  13.292  0.3789 -1.5163 -1.4260
10397TIP3    H252683   0.565   4.587  13.399 -0.4723  0.7851  0.4557
10398TIP3   OH252684   1.755   0.957   2.026  0.4240 -0.3659 -0.0393
10398TIP3    H152685   1.670   0.988   1.993  0.2427  0.6676  1.3401
10398TIP3    H252686   1.803   0.933   1.947 -0.9726 -0.5259 -0.8884
10399TIP3   OH252687   6.401   5.800   3.686  0.1917  0.4588 -0.2380
10399TIP3    H152688   6.483   5.823   3.731 -0.9527  0.8848  1.7204
10399TIP3    H252689   6.339   5.868   3.712 -1.0503 -0.3531 -0.9593
10400TIP3   OH252690   3.895   0.279   0.239 -0.3650  0.2982 -0.1392
10400TIP3    H152691   3.963   0.316   0.295  1.3633  0.0604 -1.9438
10400TIP3    H252692   3.908   0.184   0.246 -0.5737  0.2490 -0.4077
10401TIP3   OH252693   5.305   6.285   5.919  0.1053  0.2402  0.3973
10401TIP3    H152694   5.291   6.312   6.010 -1.9255  3.0654 -0.6129
10401TIP3    H252695   5.357   6.356   5.881 -0.4954 -0.0574 -1.0275
10402TIP3   OH252696   4.889   0.514  10.829  0.2946 -0.0988 -0.3466
10402TIP3    H152697   4.838   0.572  10.772 -1.0579 -0.9543 -0.0750
10402TIP3    H252698   4.979   0.546  10.823  0.0934  0.1868 -2.4852
10403TIP3   OH252699   5.564   5.069  15.471 -0.0423 -0.7278  0.3617
10403TIP3    H152700   5.507   5.046  15.544 -0.9737  0.3651  0.0033
10403TIP3    H252701   5.504   5.090  15.399  0.8384 -0.7942 -0.4113
10404TIP3   OH252702   0.090   0.072   3.096  0.3788  0.1615  0.2232
10404TIP3    H152703   0.123   0.007   3.034  1.0091  0.3720  0.3285
10404TIP3    H252704   0.129   0.155   3.067  0.0030  0.4016  0.3999
10405TIP3   OH252705   5.032   5.972  12.504  0.3532 -0.2732  0.1177
10405TIP3    H152706   5.062   6.011  12.422  0.0239 -0.3771 -0.0534
10405TIP3    H252707   5.091   5.899  12.520  0.3884 -0.2817 -0.0532
10406TIP3   OH252708   0.228   4.077  14.180  0.8812  0.0769  0.4398
10406TIP3    H152709   0.139   4.105  14.200  0.2305 -1.0262 -0.7925
10406TIP3    H252710   0.267   4.151  14.134  0.0735 -0.0001 -0.4025
10407TIP3   OH252711   2.635   4.796  10.850  0.4326  0.2623 -0.4081
10407TIP3    H152712   2.637   4.785  10.755  1.2341  1.7885 -0.6015
10407TIP3    H252713   2.549   4.835  10.868  0.9872  1.7233 -0.7648
10408TIP3   OH252714   4.104   0.088  15.244 -0.0834 -0.1405 -0.2118
10408TIP3    H152715   4.148   0.117  15.325  0.1641 -0.8421 -0.0869
10408TIP3    H252716   4.016   0.064  15.272 -0.6812  1.5284 -0.5078
10409TIP3   OH252717   6.173   1.215   1.401  0.5142 -0.3257 -0.1516
10409TIP3    H152718   6.219   1.296   1.420  0.3646 -0.1007 -0.7390
10409TIP3    H252719   6.120   1.234   1.324 -1.3468 -0.2755  1.0876
10410TIP3   OH252720   5.044   6.825  11.315  0.9622  0.2358  0.2111
10410TIP3    H152721   5.003   6.758  11.369 -0.7923  1.2647  0.2539
10410TIP3    H252722   5.109   6.779  11.263  2.7906 -0.8080  3.1813
10411TIP3   OH252723   4.534   5.850  10.872 -0.2671  0.3127 -0.0318
10411TIP3    H152724   4.528   5.759  10.845  1.3034  0.0121  0.5506
10411TIP3    H252725   4.534   5.899  10.789  2.2655 -0.4573 -0.5767
10412TIP3   OH252726   3.096   6.672  14.611  0.0086  0.1103  0.3028
10412TIP3    H152727   3.111   6.749  14.665 -0.8871  0.1937  0.4407
10412TIP3    H252728   3.017   6.632  14.648  0.3809 -0.7920  0.1464
10413TIP3   OH252729   4.725   2.258  13.872 -0.5110  0.3695  0.4061
10413TIP3    H152730   4.665   2.208  13.928 -0.5360  1.2803  1.2275
10413TIP3    H252731   4.670   2.293  13.802 -0.7797  0.4925  0.6785
10414TIP3   OH252732   5.393   3.238   5.236  0.2769 -0.1261 -0.0595
10414TIP3    H152733   5.389   3.166   5.299  2.3537  0.0601  0.3406
10414TIP3    H252734   5.390   3.317   5.289 -1.0565  0.0965 -0.4371
10415TIP3   OH252735   3.542   4.620   0.000 -0.1622 -0.0609 -0.3079
10415TIP3    H152736   3.637   4.632   0.002 -0.0557 -0.8523  1.2650
10415TIP3    H252737   3.521   4.611  -0.093  1.3198 -0.0510 -0.6736
10416TIP3   OH252738   4.868   4.640   5.302 -0.1225 -0.0655 -0.8455
10416TIP3    H152739   4.942   4.661   5.359  0.4274  1.2228 -1.9685
10416TIP3    H252740   4.890   4.555   5.265 -0.1216 -0.5585  0.2509
10417TIP3   OH252741   1.735   1.706   2.829 -0.5274  0.3091  0.3515
10417TIP3    H152742   1.738   1.795   2.865 -0.5921 -0.4059  2.2594
10417TIP3    H252743   1.653   1.670   2.862  0.0584 -0.8329  0.5991
10418TIP3   OH252744   1.668   1.428  14.752 -0.0143  0.1981  0.6885
10418TIP3    H152745   1.592   1.484  14.768  0.8028  0.8159  2.7502
10418TIP3    H252746   1.737   1.487  14.724  0.4944  0.0891  1.6464
10419TIP3   OH252747   6.586   6.290   0.862 -0.4624  0.2647  0.1493
10419TIP3    H152748   6.578   6.360   0.797 -0.4313  0.8315  0.7487
10419TIP3    H252749   6.505   6.239   0.854 -1.0118  1.0727  0.5207
10420TIP3   OH252750   0.369   1.792  17.125 -0.2370 -0.4142 -0.2883
10420TIP3    H152751   0.305   1.736  17.168 -0.8739 -1.1579 -2.1185
10420TIP3    H252752   0.436   1.731  17.092  0.4255  0.1673 -0.0539
10421TIP3   OH252753   4.797   0.205  14.326  0.5088 -0.5040  0.0393
10421TIP3    H152754   4.715   0.156  14.322  0.3429 -0.1959 -0.3317
10421TIP3    H252755   4.865   0.138  14.332  0.1957 -0.7531  1.0510
10422TIP3   OH252756   1.078   4.893   5.001  0.1459 -0.2329 -0.4938
10422TIP3    H152757   1.169   4.920   4.995  1.0001 -2.4305  1.1122
10422TIP3    H252758   1.070   4.854   5.088 -1.9726 -1.3238 -1.0974
10423TIP3   OH252759   6.280   1.319   3.295  0.2868 -0.0395  0.1319
10423TIP3    H152760   6.289   1.224   3.304  0.4756  0.0275  0.6994
10423TIP3    H252761   6.339   1.355   3.361  2.1557  0.5095 -1.7324
10424TIP3   OH252762   6.488   0.523   5.409  0.4515  0.3905 -0.3339
10424TIP3    H152763   6.502   0.455   5.342 -0.9865 -0.8423  0.5462
10424TIP3    H252764   6.561   0.511   5.470  0.4637 -0.0889 -0.4348
10425TIP3   OH252765   3.858   4.773   0.437 -0.4075  0.5785 -0.1845
10425TIP3    H152766   3.809   4.711   0.491  0.5837 -0.4668 -0.4371
10425TIP3    H252767   3.802   4.790   0.362 -2.1727  2.6902  1.4764
10426TIP3   OH252768   4.227   2.448  11.852 -0.1230  0.2771  0.5475
10426TIP3    H152769   4.202   2.360  11.824 -1.1212  0.9835 -0.9449
10426TIP3    H252770   4.313   2.438  11.891 -0.0232 -1.2942 -0.0209
10427TIP3   OH252771   5.445   3.365  16.253 -0.1165  0.1551 -1.1537
10427TIP3    H152772   5.493   3.328  16.178 -0.1259 -0.2675 -0.9545
10427TIP3    H252773   5.359   3.323  16.249  0.0933 -0.3499 -0.5415
10428TIP3   OH252774   2.776   0.753  16.699  0.0088 -0.4263  0.0233
10428TIP3    H152775   2.783   0.661  16.674 -0.8009 -0.7770  1.0245
10428TIP3    H252776   2.859   0.773  16.741 -0.3754 -1.1543  1.1721
10429TIP3   OH252777   4.862   3.976  11.944 -0.0149  0.4463  0.3472
10429TIP3    H152778   4.932   4.015  11.997  0.0381 -2.3822  2.6156
10429TIP3    H252779   4.797   3.946  12.008 -1.1161 -1.0544 -1.3801
10430TIP3   OH252780   0.987   0.700   5.366 -0.2324 -0.3351 -0.6471
10430TIP3    H152781   1.050   0.740   5.306  0.1611  0.8790  0.5221
10430TIP3    H252782   1.019   0.723   5.453 -0.8055 -2.0210  0.0459
10431TIP3   OH252783   2.416   4.444   2.178  0.0912 -0.7628 -0.1081
10431TIP3    H152784   2.377   4.503   2.114 -1.0144 -1.7243 -0.3672
10431TIP3    H252785   2.492   4.491   2.212 -0.8446  0.8503 -0.1771
10432TIP3   OH252786   2.072   4.434  14.425 -0.2427 -0.7190 -0.4684
10432TIP3    H152787   2.024   4.405  14.347 -1.4955  0.0012  0.0132
10432TIP3    H252788   2.032   4.517  14.448  1.2825 -0.0682 -0.0515
10433TIP3   OH252789   6.423   3.459  16.052 -0.0092 -0.4463 -0.0225
10433TIP3    H152790   6.441   3.383  16.108  1.7952 -0.8828 -1.1350
10433TIP3    H252791   6.365   3.425  15.984 -1.0384 -0.2549  0.7336
10434TIP3   OH252792   2.124   4.110   2.677  0.2432 -0.4504  0.2602
10434TIP3    H152793   2.155   4.171   2.610 -0.7027 -0.1830  0.0511
10434TIP3    H252794   2.080   4.040   2.628 -1.4248  0.2966  0.6043
10435TIP3   OH252795   1.446   1.076  13.486 -0.3371 -0.2333 -0.3436
10435TIP3    H152796   1.489   1.128  13.418  0.7934  0.1831  0.6310
10435TIP3    H252797   1.508   1.005  13.505  0.6162  1.0625  1.9365
10436TIP3   OH252798   2.162   5.506  11.098 -0.2015  0.0784 -0.2954
10436TIP3    H152799   2.137   5.546  11.181 -1.0110  0.9044 -0.9087
10436TIP3    H252800   2.079   5.479  11.059 -0.0007  1.1022 -1.5079
10437TIP3   OH252801   6.022   6.074   4.377 -0.0168 -0.6191 -0.0712
10437TIP3    H152802   6.021   5.979   4.364  0.9911 -0.6067 -0.3090
10437TIP3    H252803   5.992   6.085   4.467  1.7618 -1.3231  0.6697
10438TIP3   OH252804   0.633   1.234  12.263  0.2566 -0.5535 -0.1119
10438TIP3    H152805   0.604   1.216  12.173 -0.2803  2.2078 -0.5919
10438TIP3    H252806   0.552   1.236  12.314  0.4458 -0.9582  0.2052
10439TIP3   OH252807   1.969   1.726   0.717 -0.0050  0.2752 -0.3141
10439TIP3    H152808   1.910   1.796   0.689  0.3726  1.1743  1.0413
10439TIP3    H252809   2.020   1.765   0.788  1.1846 -0.9522 -0.4591
10440TIP3   OH252810   3.220   3.642   2.898  0.0265  0.0968  0.1263
10440TIP3    H152811   3.140   3.681   2.864  0.7777  0.2674 -1.5507
10440TIP3    H252812   3.229   3.560   2.848  1.3939  0.5644 -0.4432
10441TIP3   OH252813   5.525   2.706   1.572 -0.6966 -0.1949 -0.1720
10441TIP3    H152814   5.464   2.646   1.530 -1.0336 -0.1368  0.2228
10441TIP3    H252815   5.476   2.740   1.647  0.0431 -0.6317  0.5160
10442TIP3   OH252816   2.389   6.539   1.803 -0.6304  0.0771 -0.6443
10442TIP3    H152817   2.480   6.508   1.800 -0.7465 -0.6697  1.6839
10442TIP3    H252818   2.382   6.599   1.728  0.9609 -1.8888 -2.4822
10443TIP3   OH252819   6.741   4.113  14.037  0.0437 -0.2611 -0.2373
10443TIP3    H152820   6.709   4.181  14.096  0.2909  0.4044 -0.8597
10443TIP3    H252821   6.755   4.037  14.094  1.1997  0.6390  0.7468
10444TIP3   OH252822   6.425   1.560   3.149 -0.0150  0.0506  0.2940
10444TIP3    H152823   6.397   1.553   3.057  0.8398 -0.3775  0.0618
10444TIP3    H252824   6.401   1.476   3.187  1.4089 -0.5272 -0.0407
10445TIP3   OH252825   6.820   6.669   4.668  0.1157 -0.7312 -0.0519
10445TIP3    H152826   6.794   6.757   4.693  2.6371  0.5205 -1.4658
10445TIP3    H252827   6.878   6.640   4.739  1.0145 -0.3263 -0.5961
10446TIP3   OH252828   6.070   1.787   4.777 -0.4471 -0.2724  0.0547
10446TIP3    H152829   6.068   1.838   4.696  1.7942  1.1672  0.7974
10446TIP3    H252830   6.143   1.727   4.765  0.8898  0.9701  1.4887
10447TIP3   OH252831   2.334   5.251   4.486  0.1516 -0.2405  0.4363
10447TIP3    H152832   2.304   5.162   4.467 -0.0208 -0.1536  0.2967
10447TIP3    H252833   2.416   5.260   4.438 -0.6484  0.2311 -0.9076
10448TIP3   OH252834   2.225   0.171  13.998  0.1514  0.0525 -0.1594
10448TIP3    H152835   2.133   0.156  14.022  0.2410  0.2736  0.3304
10448TIP3    H252836   2.229   0.149  13.905 -1.3153  3.7664 -1.2709
10449TIP3   OH252837   6.528   4.259  13.181 -0.3968  0.1502 -0.4069
10449TIP3    H152838   6.547   4.247  13.088  3.3147 -0.7396  0.2677
10449TIP3    H252839   6.493   4.174  13.209  0.1646 -0.1817 -0.6893
10450TIP3   OH252840   5.914   3.863   4.759  0.6581 -0.0780 -0.1252
10450TIP3    H152841   5.959   3.898   4.835 -0.6809  1.8458 -0.1492
10450TIP3    H252842   5.974   3.878   4.686  1.5008 -0.9724  0.3618
10451TIP3   OH252843   4.278   2.515  13.836  0.2317 -0.4589  0.1153
10451TIP3    H152844   4.361   2.521  13.883  0.1651 -0.5354  0.2442
10451TIP3    H252845   4.211   2.520  13.905  0.0979  0.6563 -0.0762
10452TIP3   OH252846   5.637   4.426  14.879 -0.2060 -0.0632  0.7290
10452TIP3    H152847   5.669   4.468  14.959  0.0479  0.9052  0.1368
10452TIP3    H252848   5.600   4.497  14.828 -0.3838 -0.6734 -0.0084
10453TIP3   OH252849   0.064   5.875  13.722 -0.0614 -0.1356 -0.2405
10453TIP3    H152850   0.128   5.946  13.726 -0.2590 -0.0114  1.6130
10453TIP3    H252851  -0.018   5.915  13.749 -0.6233 -0.6392 -1.1411
10454TIP3   OH252852   4.568   0.828  10.389 -0.0648 -0.0732  0.4257
10454TIP3    H152853   4.575   0.743  10.345 -1.7663  0.3690 -0.8396
10454TIP3    H252854   4.473   0.844  10.394  0.2141  1.8653  0.3634
10455TIP3   OH252855   6.133   6.525   0.599  1.1852 -0.0170  0.4109
10455TIP3    H152856   6.122   6.486   0.512  1.6156 -2.3611  1.3486
10455TIP3    H252857   6.217   6.492   0.630  0.6412  0.0771  2.0791
10456TIP3   OH252858   6.482   3.709   3.652  0.0254  0.3671 -0.2118
10456TIP3    H152859   6.463   3.768   3.725  0.4421 -0.3540  0.4890
10456TIP3    H252860   6.469   3.763   3.574  1.1231  1.5994  0.4324
10457TIP3   OH252861   0.285   1.383   5.674 -0.5878 -0.0148  0.2892
10457TIP3    H152862   0.192   1.394   5.697 -0.3380  2.1356  0.4791
10457TIP3    H252863   0.290   1.294   5.639 -2.4564 -0.6595  1.4966
10458TIP3   OH252864   4.666   6.670  10.827  0.4129 -0.6252  0.2350
10458TIP3    H152865   4.603   6.599  10.827  0.0021 -0.2711 -0.1013
10458TIP3    H252866   4.626   6.737  10.770  0.2893  0.3116  1.3922
10459TIP3   OH252867   3.808   6.719  12.349  0.2852 -0.1593  0.2428
10459TIP3    H152868   3.785   6.651  12.285  1.2476  0.0170 -0.3028
10459TIP3    H252869   3.746   6.790  12.332  0.6344 -0.0447 -0.6173
10460TIP3   OH252870   5.977   0.591  13.134  0.1930 -0.2262 -0.4640
10460TIP3    H152871   5.954   0.678  13.102  2.2045  1.2759  1.8514
10460TIP3    H252872   5.999   0.541  13.055  2.6265  2.5172 -1.6834
10461TIP3   OH252873   6.297   0.571   1.316 -0.0023  0.2619 -0.1461
10461TIP3    H152874   6.311   0.574   1.221  0.9482 -0.0748 -0.0321
10461TIP3    H252875   6.303   0.663   1.344 -0.0036  0.3339 -0.3806
10462TIP3   OH252876   4.854   0.005   1.931 -0.1535 -0.2267 -0.1288
10462TIP3    H152877   4.916  -0.064   1.955  0.7446 -0.7961 -3.6326
10462TIP3    H252878   4.773  -0.042   1.910 -0.0211 -0.0564 -1.0250
10463TIP3   OH252879   3.480   5.426  14.478 -0.7553 -0.2425  0.4757
10463TIP3    H152880   3.523   5.422  14.564 -0.1914  0.4206  0.2300
10463TIP3    H252881   3.552   5.428  14.415 -1.1296  1.1301  0.0669
10464TIP3   OH252882   5.306   5.276   5.784 -0.5890  0.2417 -0.9469
10464TIP3    H152883   5.345   5.241   5.865 -1.5952  0.2446 -0.4450
10464TIP3    H252884   5.376   5.328   5.745  0.0278 -0.0380 -0.2557
10465TIP3   OH252885   6.492   6.594   0.792  0.0407 -0.1310 -0.2742
10465TIP3    H152886   6.425   6.656   0.764  0.2995  0.0597 -0.4887
10465TIP3    H252887   6.510   6.542   0.713 -0.1610 -0.4627 -0.1002
10466TIP3   OH252888   6.061   4.801  10.783  0.3770  0.1082  0.0846
10466TIP3    H152889   6.142   4.853  10.784  0.2593  0.3436 -1.1337
10466TIP3    H252890   6.078   4.732  10.719 -0.2257 -0.1101  0.1538
10467TIP3   OH252891   5.737   4.558  15.082  0.1837 -0.4509 -0.6228
10467TIP3    H152892   5.823   4.592  15.106  0.6768 -2.5672  0.8070
10467TIP3    H252893   5.691   4.547  15.165 -1.3604  0.2549 -1.3303
10468TIP3   OH252894   2.250   6.504   1.124 -0.5519 -0.4106 -0.0513
10468TIP3    H152895   2.163   6.529   1.155 -0.3585 -0.6353  0.6830
10468TIP3    H252896   2.311   6.541   1.188 -0.1084 -0.3902 -0.4729
10469TIP3   OH252897   3.516   3.452  15.750 -0.1574  0.5070  0.2318
10469TIP3    H152898   3.573   3.446  15.826 -2.2910  1.5157  2.0546
10469TIP3    H252899   3.446   3.389  15.768 -0.0386 -0.1920 -1.5713
10470TIP3   OH252900   1.544   2.424   4.868 -0.7481  0.3249 -0.1593
10470TIP3    H152901   1.526   2.470   4.785  0.2781  1.2638  0.1165
10470TIP3    H252902   1.494   2.473   4.933 -0.6825  0.2561 -0.0585
10471TIP3   OH252903   0.620   5.483  12.785  0.2589 -0.1458 -0.3845
10471TIP3    H152904   0.575   5.505  12.703 -0.0678  0.2193 -0.1076
10471TIP3    H252905   0.579   5.539  12.851  2.5379  1.8260 -0.4860
10472TIP3   OH252906   6.108   4.310  14.007  0.0784 -0.1717  0.1776
10472TIP3    H152907   6.136   4.219  14.009  0.8095 -0.0374 -1.6746
10472TIP3    H252908   6.129   4.345  14.094  2.1643 -1.0904  0.0863
10473TIP3   OH252909   0.102   5.804   1.844 -0.4745  0.3172 -0.3762
10473TIP3    H152910   0.133   5.714   1.840 -1.9102 -0.1667 -1.3366
10473TIP3    H252911   0.141   5.839   1.924  0.3385 -1.0567 -0.1381
10474TIP3   OH252912   1.071   0.297   2.951 -0.0194 -0.4460  0.0534
10474TIP3    H152913   1.162   0.292   2.980 -0.6390  0.4488  2.3919
10474TIP3    H252914   1.048   0.207   2.926  1.4764 -0.6785 -0.5474
10475TIP3   OH252915   1.456   4.978  11.401 -0.2780  0.2819 -0.2125
10475TIP3    H152916   1.451   4.930  11.319 -1.2908  0.3383 -0.1990
10475TIP3    H252917   1.546   4.964  11.431  0.0784  0.1827 -1.2715
10476TIP3   OH252918   0.001   4.940   3.588  0.0657 -0.0905 -0.0286
10476TIP3    H152919  -0.030   4.945   3.498 -0.4577 -0.6801  0.1130
10476TIP3    H252920  -0.075   4.962   3.641  0.4670  0.6259  0.2706
10477TIP3   OH252921   1.184   4.162  11.625  0.1999  0.3234 -0.1063
10477TIP3    H152922   1.262   4.216  11.614  0.4255 -0.2563 -1.6351
10477TIP3    H252923   1.217   4.079  11.659  0.2942 -0.0127 -1.0040
10478TIP3   OH252924   0.175   4.217   2.456  0.2278 -0.5230 -0.9348
10478TIP3    H152925   0.215   4.270   2.524  0.2713 -1.3110 -0.3283
10478TIP3    H252926   0.083   4.208   2.484  0.9960 -4.0526  1.2143
10479TIP3   OH252927   3.965   5.961   3.431 -0.4592 -0.0061  0.1943
10479TIP3    H152928   3.927   6.037   3.476  1.8899  1.5772 -0.3292
10479TIP3    H252929   3.969   5.987   3.339  2.0432  0.0599  0.2464
10480TIP3   OH252930   1.108   3.713  14.133  0.4209 -0.1124 -0.2715
10480TIP3    H152931   1.061   3.759  14.203  0.6422 -0.9803  0.4673
10480TIP3    H252932   1.136   3.783  14.073 -1.9069  0.4317 -0.8267
10481TIP3   OH252933   4.197   6.131   4.754 -0.5508  0.4819  0.4891
10481TIP3    H152934   4.172   6.112   4.664  1.0324  1.3625 -0.1683
10481TIP3    H252935   4.158   6.059   4.805 -1.1316 -0.2442 -0.9260
10482TIP3   OH252936   3.201   0.738  14.226  0.4324  0.1251  0.2527
10482TIP3    H152937   3.218   0.655  14.271  0.4522  0.6460  1.2365
10482TIP3    H252938   3.107   0.737  14.209  0.6650 -0.7700 -1.1478
10483TIP3   OH252939   3.129   3.716  14.826 -0.2560  0.1468  0.6048
10483TIP3    H152940   3.213   3.671  14.832 -0.0994  0.5101  1.1626
10483TIP3    H252941   3.119   3.736  14.733 -0.1185 -0.6354  0.4130
10484TIP3   OH252942   2.805   3.090  12.800 -0.4665 -0.1020  0.5788
10484TIP3    H152943   2.842   3.150  12.736  1.1693 -1.0841  0.5404
10484TIP3    H252944   2.714   3.079  12.773 -0.3260  0.9785 -0.4228
10485TIP3   OH252945   1.339   0.667  11.620 -0.3478 -0.0424 -0.0025
10485TIP3    H152946   1.366   0.598  11.681 -0.0441  0.3413  0.3043
10485TIP3    H252947   1.249   0.644  11.597 -0.3391 -0.4006  0.2948
10486TIP3   OH252948   0.171   1.700  12.708 -0.8705 -0.4931  0.0186
10486TIP3    H152949   0.098   1.639  12.693 -1.6696  0.3741  0.2609
10486TIP3    H252950   0.146   1.748  12.787  1.0176 -1.6766  1.3911
10487TIP3   OH252951   5.052   3.611  10.988 -0.5825  0.0906  0.3837
10487TIP3    H152952   5.082   3.644  10.903 -0.0482  1.6316  1.1465
10487TIP3    H252953   4.981   3.551  10.966  0.1962 -0.3182 -1.2107
10488TIP3   OH252954   3.575   1.104   5.261 -0.5833 -0.0186  0.5268
10488TIP3    H152955   3.579   1.191   5.222  0.4531  0.2970  1.2863
10488TIP3    H252956   3.516   1.055   5.204  1.5925  0.1318 -2.0823
10489TIP3   OH252957   6.617   3.558   3.198  0.4487 -0.0408 -0.6820
10489TIP3    H152958   6.625   3.465   3.174  2.5432  0.0059 -0.3095
10489TIP3    H252959   6.576   3.598   3.121  0.6206 -1.0701 -1.3425
10490TIP3   OH252960   4.625   3.626   5.928  0.5664  0.4151 -0.3479
10490TIP3    H152961   4.577   3.582   5.999  2.3884 -0.4334  0.4073
10490TIP3    H252962   4.565   3.622   5.853 -0.1816 -1.4883  0.2910
10491TIP3   OH252963   1.589   4.088   3.499 -0.1334  0.6376 -0.2409
10491TIP3    H152964   1.630   4.057   3.418 -1.3428  0.7423 -0.9099
10491TIP3    H252965   1.654   4.070   3.567  0.4532 -0.4727 -1.0675
10492TIP3   OH252966   1.180   0.211  16.288  0.4743  0.2478 -0.2524
10492TIP3    H152967   1.167   0.298  16.326  0.2051  0.4494 -0.8037
10492TIP3    H252968   1.091   0.176  16.279  0.6033 -0.2739  0.3941
10493TIP3   OH252969   0.077   0.165   0.304  0.0255 -0.0612 -0.2413
10493TIP3    H152970   0.010   0.128   0.362 -0.5288 -0.1456 -0.9193
10493TIP3    H252971   0.077   0.259   0.324 -0.1161 -0.1011 -0.0546
10494TIP3   OH252972   4.434   1.621  16.045  0.2477 -0.6395 -0.2653
10494TIP3    H152973   4.482   1.688  16.093 -0.7180 -0.1361  0.0119
10494TIP3    H252974   4.457   1.638  15.953 -0.8874  0.8211 -0.3077
10495TIP3   OH252975   6.395   4.044  16.615 -0.5599 -0.1118  0.4603
10495TIP3    H152976   6.444   3.977  16.663  1.3034  0.0478 -1.0994
10495TIP3    H252977   6.322   3.996  16.576 -0.6646 -0.7293  1.3729
10496TIP3   OH252978   2.608   1.075  16.374  0.0704  0.0060  0.0980
10496TIP3    H152979   2.517   1.102  16.355 -0.9515 -3.3079 -0.3142
10496TIP3    H252980   2.608   1.056  16.468  0.6242  0.7884  0.2700
10497TIP3   OH252981   2.573   6.457   1.143  0.3329  0.3937 -0.0147
10497TIP3    H152982   2.566   6.465   1.048  1.7228  2.3501  0.0030
10497TIP3    H252983   2.533   6.536   1.177 -0.3730 -0.4074  1.0720
10498TIP3   OH252984   1.720   6.771   1.235  0.6291  0.1076 -0.7833
10498TIP3    H152985   1.744   6.862   1.247  1.1092  0.0743 -1.4327
10498TIP3    H252986   1.635   6.773   1.191  0.3865  0.2347 -0.3127
10499TIP3   OH252987   2.642   5.447   5.431 -0.5326  0.1576  0.2241
10499TIP3    H152988   2.673   5.381   5.369 -1.7876  1.0564 -1.4477
10499TIP3    H252989   2.560   5.412   5.465 -1.2728  0.8890 -0.7710
10500TIP3   OH252990   0.946   0.319  17.090  0.0796  0.5966  0.1419
10500TIP3    H152991   0.941   0.405  17.134  0.4501  0.9293 -0.4604
10500TIP3    H252992   1.036   0.289  17.106  0.7171  1.4156 -1.6492
10501TIP3   OH252993   2.432   4.282   4.131 -0.1274  0.5064  0.1849
10501TIP3    H152994   2.350   4.236   4.110  0.6269 -0.0820 -1.7016
10501TIP3    H252995   2.466   4.237   4.208  0.2291 -1.7176 -1.1766
10502TIP3   OH252996   2.425   3.043  13.477 -0.6005 -0.4680 -0.4660
10502TIP3    H152997   2.396   3.069  13.565 -0.2705 -1.6712  0.0161
10502TIP3    H252998   2.386   2.957  13.463  0.2778 -0.7965 -1.0218
10503TIP3   OH252999   6.394   4.068  14.050 -0.2453 -0.6098 -0.3734
10503TIP3    H153000   6.407   4.120  13.971  0.8340  1.7543  1.2367
10503TIP3    H253001   6.302   4.043  14.047 -1.2806  2.6569 -0.6477
10504TIP3   OH253002   6.806   0.658   2.928 -0.3409  0.0892 -0.6515
10504TIP3    H153003   6.807   0.686   2.837  0.8155  1.0114 -0.3795
10504TIP3    H253004   6.865   0.583   2.931  0.0606  0.4058 -0.5657
10505TIP3   OH253005   5.263   5.950  14.736  0.3350 -0.0351 -0.6324
10505TIP3    H153006   5.177   5.990  14.743  0.1143 -0.3551 -1.4249
10505TIP3    H253007   5.272   5.898  14.816 -0.2788 -0.1361 -0.6262
10506TIP3   OH253008   6.428   0.996  15.313 -0.6524  0.4346 -0.6725
10506TIP3    H153009   6.372   0.928  15.349  0.8542 -0.5434 -0.1157
10506TIP3    H253010   6.422   1.068  15.376  1.3645 -0.9721  1.2618
10507TIP3   OH253011   4.344   6.757   6.675 -0.0528  0.1257 -0.7296
10507TIP3    H153012   4.349   6.724   6.765  0.3417 -0.8479 -1.0915
10507TIP3    H253013   4.272   6.709   6.636 -1.0053  1.4035 -0.6186
10508TIP3   OH253014   1.334   1.580  14.750  0.2305  0.3828  0.2780
10508TIP3    H153015   1.372   1.613  14.831 -0.1048  0.1827  0.5183
10508TIP3    H253016   1.239   1.591  14.761 -0.0104 -1.8748  0.9260
10509TIP3   OH253017   6.118   0.668  14.895  0.5313 -0.0565  0.0565
10509TIP3    H153018   6.133   0.733  14.827 -3.6211 -0.0332 -1.1337
10509TIP3    H253019   6.099   0.587  14.847 -1.0517 -0.4033  1.1811
10510TIP3   OH253020   2.925   3.661   3.089  0.1255 -0.2467  0.0717
10510TIP3    H153021   2.980   3.736   3.067  2.3892 -1.6057  0.8174
10510TIP3    H253022   2.840   3.700   3.110  1.5215  2.2437  1.6309
10511TIP3   OH253023   3.623   0.195   4.276  0.2228  0.3095  0.1554
10511TIP3    H153024   3.609   0.289   4.286  0.5219  0.3884 -0.1433
10511TIP3    H253025   3.597   0.176   4.186  3.1758  0.7169 -0.8929
10512TIP3   OH253026   6.472   5.425   2.365 -0.0732  0.4234 -0.1227
10512TIP3    H153027   6.551   5.417   2.418 -1.1781  1.0052  1.7085
10512TIP3    H253028   6.434   5.508   2.392 -3.2149 -1.4691  1.8729
10513TIP3   OH253029   2.790   4.318  14.430 -0.1194 -0.2736 -0.0915
10513TIP3    H153030   2.857   4.285  14.371  0.1895 -1.1253  0.7091
10513TIP3    H253031   2.783   4.411  14.409  0.2595 -0.4793 -1.1840
10514TIP3   OH253032   4.856   1.439   6.102 -0.6691  0.4839 -0.1480
10514TIP3    H153033   4.942   1.428   6.141  0.4977  1.1755 -2.3446
10514TIP3    H253034   4.795   1.439   6.176  1.1849 -0.1541  1.4442
10515TIP3   OH253035   5.553   1.391   3.036  0.8546  0.3343  0.1549
10515TIP3    H153036   5.566   1.482   3.062 -0.5136  0.3561  0.8356
10515TIP3    H253037   5.458   1.379   3.036  0.9263 -0.6143 -1.6508
10516TIP3   OH253038   4.244   1.812   1.553  0.1832 -0.5790  0.2662
10516TIP3    H153039   4.205   1.828   1.467  0.2687 -0.1026  0.3112
10516TIP3    H253040   4.285   1.726   1.546 -2.1605 -1.7853  0.6860
10517TIP3   OH253041   6.388   0.228  14.167 -0.0895  0.6773 -0.1171
10517TIP3    H153042   6.380   0.132  14.169 -3.7806  0.7987 -1.0807
10517TIP3    H253043   6.351   0.256  14.251 -1.4380  1.2618 -0.8762
10518TIP3   OH253044   5.461   6.684  16.357  0.5196 -0.3881 -0.6448
10518TIP3    H153045   5.491   6.627  16.428 -0.6414 -1.8876 -1.2793
10518TIP3    H253046   5.520   6.758  16.358  1.6546 -1.2694  0.7148
10519TIP3   OH253047   3.831   5.740   2.296 -0.4133  0.5078  0.7804
10519TIP3    H153048   3.809   5.690   2.375 -0.5099  0.0679  0.4814
10519TIP3    H253049   3.752   5.736   2.242  0.8396 -2.7332 -1.1596
10520TIP3   OH253050   6.478   4.764  16.014 -0.3450  0.0878 -0.0529
10520TIP3    H153051   6.526   4.835  16.056 -0.9665 -0.0959  1.0270
10520TIP3    H253052   6.545   4.700  15.990  0.0060  0.0259  1.0367
10521TIP3   OH253053   4.520   2.830  12.242 -0.1755  0.0605  0.7331
10521TIP3    H153054   4.580   2.765  12.205  1.2547  1.7226 -0.0628
10521TIP3    H253055   4.566   2.914  12.230 -2.1695  1.2855  1.1970
10522TIP3   OH253056   5.704   1.723   2.372 -0.2551  0.3312  0.5340
10522TIP3    H153057   5.611   1.717   2.392 -0.7491  1.6905 -1.1467
10522TIP3    H253058   5.723   1.816   2.372  0.6081  0.1930 -1.2278
10523TIP3   OH253059   6.085   2.365  14.886 -0.2334 -0.5372  0.0395
10523TIP3    H153060   6.140   2.305  14.937  0.9756 -0.7478 -1.4398
10523TIP3    H253061   6.089   2.330  14.797  0.0046  1.4205 -0.7459
10524TIP3   OH253062   4.303   0.766  16.809  0.0704  0.6798  0.0335
10524TIP3    H153063   4.304   0.791  16.902 -1.4423 -0.1094  0.2967
10524TIP3    H253064   4.227   0.708  16.801  0.4257  0.4037 -1.6228
10525TIP3   OH253065   4.354   0.951   5.951  0.4348  0.0017  0.1440
10525TIP3    H153066   4.268   0.909   5.957 -1.9089  3.0103 -5.0112
10525TIP3    H253067   4.402   0.898   5.888  0.5770  0.6930 -0.3406
10526TIP3   OH253068   0.636   3.821  12.871  0.5621  0.1235  0.3168
10526TIP3    H153069   0.613   3.744  12.922 -1.0016  0.4941  0.2209
10526TIP3    H253070   0.656   3.889  12.935 -2.1782  0.8224  0.5268
10527TIP3   OH253071   5.249   0.417   2.472 -0.6020 -0.0673 -0.0850
10527TIP3    H153072   5.214   0.505   2.485  1.4027  0.6421  1.1158
10527TIP3    H253073   5.237   0.373   2.556 -1.9223 -1.1184 -0.7836
10528TIP3   OH253074   1.616   5.611  11.523 -0.0081  0.1716 -0.0976
10528TIP3    H153075   1.558   5.540  11.496  0.4129  0.6914 -2.5583
10528TIP3    H253076   1.586   5.633  11.612 -0.9602 -2.1874  0.2552
10529TIP3   OH253077   2.609   6.673   4.630 -0.1169  0.0275 -0.3296
10529TIP3    H153078   2.547   6.610   4.666  0.1625 -1.7096 -2.6553
10529TIP3    H253079   2.680   6.677   4.694 -0.5333 -1.4394  0.2478
10530TIP3   OH253080   3.492   1.633  12.080 -0.3421  0.1848  0.4444
10530TIP3    H153081   3.474   1.566  12.015  0.9113  1.4294 -1.2439
10530TIP3    H253082   3.586   1.631  12.093 -0.2946  1.4978  0.4734
10531TIP3   OH253083   0.888   0.371  16.021 -0.2660 -0.0797 -0.1730
10531TIP3    H153084   0.797   0.386  15.997  0.0282 -0.3428 -1.5375
10531TIP3    H253085   0.915   0.451  16.066 -0.5393  0.9734 -1.7718
10532TIP3   OH253086   0.438   6.369  14.677  0.4437 -0.5754 -0.4459
10532TIP3    H153087   0.426   6.387  14.770 -1.2024  1.0869 -0.9053
10532TIP3    H253088   0.481   6.284  14.674 -0.0281 -0.9556  1.8087
10533TIP3   OH253089   1.442   4.438   3.145  0.0856  0.2847 -0.2669
10533TIP3    H153090   1.493   4.357   3.141 -0.6046 -0.1002 -2.2564
10533TIP3    H253091   1.474   4.482   3.224  1.0473 -1.5305  0.4171
10534TIP3   OH253092   2.314   2.776  13.439  0.1864 -0.2353  0.2111
10534TIP3    H153093   2.259   2.765  13.361 -1.7190 -0.2619  1.4974
10534TIP3    H253094   2.257   2.819  13.502  1.2562 -1.3935  2.0443
10535TIP3   OH253095   5.604   1.753  10.827  0.2152  0.4919 -0.3304
10535TIP3    H153096   5.592   1.744  10.733 -1.3720  0.7160 -0.1708
10535TIP3    H253097   5.589   1.665  10.862 -0.2931  0.6309 -0.1914
10536TIP3   OH253098   0.100   3.058  16.126  0.0164  0.8687  0.2298
10536TIP3    H153099   0.045   3.117  16.074 -0.2609 -0.6482 -1.2881
10536TIP3    H253100   0.040   2.992  16.159  0.2574  1.5750  2.2513
10537TIP3   OH253101   6.096   2.535   4.023 -0.3530  0.0770 -0.3619
10537TIP3    H153102   6.100   2.446   3.991  0.6696  0.3851 -1.1351
10537TIP3    H253103   6.010   2.567   3.996 -0.9666 -0.8277  0.4186
10538TIP3   OH253104   0.673   2.679   0.157 -0.1384 -0.0569 -0.5899
10538TIP3    H153105   0.709   2.670   0.246  0.1748 -0.5166 -0.7588
10538TIP3    H253106   0.688   2.771   0.135  0.0672 -0.0151 -0.2875
10539TIP3   OH253107   0.948   1.326  15.610  0.1869  0.3105 -0.7197
10539TIP3    H153108   0.920   1.404  15.659  0.3582 -0.5140  0.7317
10539TIP3    H253109   0.869   1.298  15.563 -0.3849  0.2940  0.2261
10540TIP3   OH253110   0.083   5.654   0.864 -0.1439  0.2795 -0.5005
10540TIP3    H153111   0.044   5.638   0.950  0.0893 -0.6356 -0.5501
10540TIP3    H253112   0.148   5.585   0.854 -0.7833 -0.1671 -1.7740
10541TIP3   OH253113   6.733   4.339  14.504 -0.1662  0.3489  0.0708
10541TIP3    H153114   6.793   4.295  14.565 -2.1801 -0.2079  1.7483
10541TIP3    H253115   6.673   4.389  14.560 -0.1524  2.4461 -1.6290
10542TIP3   OH253116   1.967   1.585   1.806  0.1037  0.5061 -0.1375
10542TIP3    H153117   2.034   1.575   1.738  1.0905 -1.6215  1.0324
10542TIP3    H253118   1.885   1.565   1.762  0.6122  0.1252 -0.9303
10543TIP3   OH253119   6.691   2.409   2.017 -0.0175  0.3450  0.8233
10543TIP3    H153120   6.717   2.319   1.999  0.0932  0.3631  0.8916
10543TIP3    H253121   6.693   2.452   1.931 -2.0534 -0.2164  0.4462
10544TIP3   OH253122   1.747   3.387  16.980 -0.3510  0.6978 -0.6231
10544TIP3    H153123   1.687   3.314  16.993  0.1932  0.1986 -0.8713
10544TIP3    H253124   1.718   3.454  17.042 -0.0842 -0.2028  0.5045
10545TIP3   OH253125   1.056   1.612  14.803  0.2822 -0.1876  0.2798
10545TIP3    H153126   0.991   1.640  14.868  2.4898  0.8325  2.2274
10545TIP3    H253127   1.061   1.685  14.741 -0.0422 -0.0285  0.4404
10546TIP3   OH253128   1.216   5.076   6.187 -0.7007  0.8375  0.2261
10546TIP3    H153129   1.290   5.106   6.135  1.0526  1.9286  3.0738
10546TIP3    H253130   1.228   4.981   6.194 -0.8245  0.7117 -1.0525
10547TIP3   OH253131   4.888   2.544  15.741 -0.4068 -0.1299 -0.1132
10547TIP3    H153132   4.972   2.551  15.695 -0.1638  0.6858  0.4265
10547TIP3    H253133   4.847   2.629  15.728 -0.7475 -0.2138  0.3851
10548TIP3   OH253134   4.641   0.961   4.753  0.1507 -0.2380 -0.3309
10548TIP3    H153135   4.677   1.004   4.676  2.2350  0.3111  0.8845
10548TIP3    H253136   4.712   0.960   4.816 -1.3859 -0.9531  1.4991
10549TIP3   OH253137   1.163   3.683   2.449 -0.0313 -0.3689  0.3925
10549TIP3    H153138   1.148   3.604   2.502  1.5617 -1.1063 -0.1830
10549TIP3    H253139   1.149   3.755   2.510  0.9678 -1.1753  1.6537
10550TIP3   OH253140   4.873   1.044   3.374  0.2108  0.3126 -0.3747
10550TIP3    H153141   4.882   1.127   3.420  1.8624  0.4622 -0.9039
10550TIP3    H253142   4.789   1.009   3.404 -0.9869  2.5797 -0.8719
10551TIP3   OH253143   4.853   5.672  11.447  0.0871  0.2076  0.3403
10551TIP3    H153144   4.942   5.707  11.445  0.7528 -1.3525  1.1599
10551TIP3    H253145   4.813   5.702  11.365  0.9443  1.9522  0.5256
10552TIP3   OH253146   5.886   1.078   6.551 -0.1227 -0.0491 -0.2018
10552TIP3    H153147   5.952   1.027   6.504  0.4627  2.0307 -1.8266
10552TIP3    H253148   5.936   1.149   6.592 -1.1328  0.5251  0.0631
10553TIP3   OH253149   5.248   3.842  14.855 -0.3993 -0.2012 -0.3893
10553TIP3    H153150   5.220   3.843  14.763  0.8533 -0.7600 -0.8002
10553TIP3    H253151   5.211   3.922  14.892 -2.9733 -1.1501 -0.7063
10554TIP3   OH253152   2.067   3.839   2.589  0.0292  0.6495  0.7470
10554TIP3    H153153   2.088   3.777   2.519 -0.3140  1.3469  0.0160
10554TIP3    H253154   2.039   3.784   2.662  1.2026 -0.1388  0.6336
10555TIP3   OH253155   0.165   2.536  12.690 -0.6603 -0.1478 -0.3359
10555TIP3    H153156   0.236   2.478  12.719 -2.7464 -1.8725  1.6333
10555TIP3    H253157   0.122   2.563  12.771 -1.5229  1.9019 -1.4144
10556TIP3   OH253158   0.406   0.687  10.646  1.0232  0.2284  0.4437
10556TIP3    H153159   0.438   0.618  10.588 -0.4775 -1.0006  1.0326
10556TIP3    H253160   0.325   0.653  10.683 -0.5478  2.8502 -0.2996
10557TIP3   OH253161   5.514   1.152   1.399  0.0914 -0.3544  0.6899
10557TIP3    H153162   5.535   1.159   1.492  1.1957  1.7084  0.3427
10557TIP3    H253163   5.567   1.079   1.367  2.3973  1.0634  1.0457
10558TIP3   OH253164   4.085   0.161   0.626 -0.3285  0.7356  0.3798
10558TIP3    H153165   4.059   0.069   0.627  0.8620  0.3810  1.1448
10558TIP3    H253166   4.176   0.160   0.655 -0.2530  2.1503  0.2502
10559TIP3   OH253167   3.618   3.810   4.827  0.4543 -0.3641 -0.1105
10559TIP3    H153168   3.574   3.748   4.769  0.6897 -1.6773  1.0597
10559TIP3    H253169   3.587   3.787   4.915 -0.8728  2.3682  0.2389
10560TIP3   OH253170   3.901   4.696  12.288 -0.0915 -0.3451  0.0352
10560TIP3    H153171   3.949   4.645  12.223 -1.6540 -0.2352 -1.2621
10560TIP3    H253172   3.887   4.781  12.247  0.3036  0.2978  1.1816
10561TIP3   OH253173   1.591   1.806   3.783  0.0191  0.7236  0.1193
10561TIP3    H153174   1.668   1.761   3.748  1.9793  2.7028  1.6002
10561TIP3    H253175   1.559   1.859   3.711  0.7429  0.7329 -0.1994
10562TIP3   OH253176   5.626   6.425   4.456 -0.0430 -0.0141  0.7202
10562TIP3    H153177   5.588   6.490   4.515  1.3397  0.3753  1.2155
10562TIP3    H253178   5.674   6.365   4.513 -0.9925 -1.2977  0.2408
10563TIP3   OH253179   2.284   6.169   4.333  0.1097 -0.2986  0.2230
10563TIP3    H153180   2.375   6.185   4.356 -0.1144 -1.6404  2.3674
10563TIP3    H253181   2.271   6.075   4.349 -1.3057 -0.4328 -1.3933
10564TIP3   OH253182   5.864   0.916   0.636  0.7091 -0.1929  0.3376
10564TIP3    H153183   5.788   0.867   0.605  1.1229 -1.1637  0.7799
10564TIP3    H253184   5.829   0.981   0.697  0.0912  0.4343 -0.6696
10565TIP3   OH253185   1.889   4.372   5.097 -1.5577  0.2247 -0.0011
10565TIP3    H153186   1.919   4.350   5.185  0.5263 -0.1647 -0.7655
10565TIP3    H253187   1.812   4.317   5.084 -0.9248 -0.9431  0.9680
10566TIP3   OH253188   1.678   0.697  11.569 -0.3838 -0.1632 -0.5042
10566TIP3    H153189   1.751   0.642  11.597 -0.9868 -0.6130  0.2066
10566TIP3    H253190   1.609   0.635  11.545 -0.8148  0.2712 -0.3937
10567TIP3   OH253191   2.170   4.494   3.650  0.2627 -0.1642 -0.0538
10567TIP3    H153192   2.161   4.413   3.599 -0.8473 -0.0971 -0.0025
10567TIP3    H253193   2.262   4.496   3.676  0.6704 -0.6317 -1.3469
10568TIP3   OH253194   2.077   4.705  11.288  0.2451  0.1549  0.2599
10568TIP3    H153195   2.141   4.634  11.283  0.1779  0.0355  0.9745
10568TIP3    H253196   2.079   4.733  11.380 -1.4296 -0.4921  0.5277
10569TIP3   OH253197   1.335   4.550  12.012 -0.0607 -0.7848 -0.3194
10569TIP3    H153198   1.318   4.581  12.101  0.1625  1.2521 -0.9261
10569TIP3    H253199   1.294   4.464  12.009 -1.2016 -0.3665  1.3674
10570TIP3   OH253200   0.673   3.540  16.083 -0.2080  1.1481 -0.2034
10570TIP3    H153201   0.667   3.633  16.065  1.7655  1.1557 -1.0957
10570TIP3    H253202   0.724   3.534  16.164 -0.6667  0.8617  0.0656
10571TIP3   OH253203   4.259   4.355   6.138  0.1102  0.6042 -0.1332
10571TIP3    H153204   4.257   4.425   6.203 -0.0076  1.3516 -0.9286
10571TIP3    H253205   4.167   4.337   6.118  0.0133 -1.3197  1.6482
10572TIP3   OH253206   0.619   1.325   0.127 -0.0977  0.1534 -0.1193
10572TIP3    H153207   0.660   1.400   0.170 -0.9068  1.3231 -1.3121
10572TIP3    H253208   0.531   1.321   0.164 -1.0440  1.5981 -2.0602
10573TIP3   OH253209   2.448   6.174   3.235  0.1946  0.6292  0.2860
10573TIP3    H153210   2.415   6.232   3.304  0.3955  1.5014 -0.3353
10573TIP3    H253211   2.463   6.232   3.160 -0.0670 -0.3174 -0.5119
10574TIP3   OH253212   6.281   3.417  15.591  0.4667 -0.2471 -0.4382
10574TIP3    H153213   6.221   3.359  15.543  1.1579 -1.8124  0.5071
10574TIP3    H253214   6.267   3.503  15.552 -2.7925 -0.4044  0.0830
10575TIP3   OH253215   1.479   0.866  15.531 -0.5647  0.0322  0.2582
10575TIP3    H153216   1.512   0.796  15.476 -0.0120  0.0896  0.5112
10575TIP3    H253217   1.384   0.857  15.526 -0.5225 -0.0322 -0.6032
10576TIP3   OH253218   3.075   5.024   0.008  0.3059 -0.3421 -0.6726
10576TIP3    H153219   3.075   5.112  -0.029  0.7760 -0.9547 -2.2212
10576TIP3    H253220   3.013   4.975  -0.047  0.9987 -1.2768 -0.6493
10577TIP3   OH253221   5.175   1.998  14.808  0.7916 -0.3575 -0.2068
10577TIP3    H153222   5.253   2.052  14.825  1.2346 -0.4808 -1.6709
10577TIP3    H253223   5.148   2.023  14.720 -0.9609 -0.1963  0.3414
10578TIP3   OH253224   6.700   3.572   3.493  0.2098 -0.1622 -0.9948
10578TIP3    H153225   6.681   3.592   3.401  1.6946  0.7155 -1.1471
10578TIP3    H253226   6.680   3.653   3.540  1.0964 -0.0258 -0.8188
10579TIP3   OH253227   4.396   1.724  12.145 -0.4375  0.2176  0.8767
10579TIP3    H153228   4.371   1.789  12.079 -1.2516 -0.3611  0.6066
10579TIP3    H253229   4.466   1.674  12.104  0.9580  1.5829  1.4820
10580TIP3   OH253230   1.855   5.506  11.226  0.7110 -0.3212  0.1800
10580TIP3    H153231   1.874   5.502  11.132  0.1195  1.0550 -0.0218
10580TIP3    H253232   1.812   5.590  11.238  0.6966 -0.5190  1.6837
10581TIP3   OH253233   0.223   3.506  12.281 -0.2357  0.1983  0.0458
10581TIP3    H153234   0.182   3.432  12.238 -1.0358  1.3712 -1.2720
10581TIP3    H253235   0.273   3.550  12.212 -1.1831  1.8663  0.3651
10582TIP3   OH253236   1.743   0.440   2.248 -0.2316 -0.5980 -0.1927
10582TIP3    H153237   1.823   0.388   2.259  1.1983  1.4288 -0.6077
10582TIP3    H253238   1.732   0.485   2.332 -1.0613 -0.9879 -0.0805
10583TIP3   OH253239   1.531   0.694  15.230  0.1831  0.0615 -0.6756
10583TIP3    H153240   1.514   0.637  15.306 -0.7976 -0.2063 -1.0765
10583TIP3    H253241   1.489   0.776  15.251  0.4365  0.1931 -0.6752
10584TIP3   OH253242   4.317   6.023   0.369  0.6656 -0.3929  0.1061
10584TIP3    H153243   4.311   6.063   0.283 -0.2322 -0.7118  0.0131
10584TIP3    H253244   4.408   5.993   0.376  0.5777 -0.9405 -0.9804
10585TIP3   OH253245   3.536   2.352  13.078 -0.4484 -0.2998  0.1093
10585TIP3    H153246   3.543   2.436  13.031  0.0296  0.0668  0.8113
10585TIP3    H253247   3.520   2.377  13.169 -1.7192 -1.0059  0.1009
10586TIP3   OH253248   0.401   1.062   2.800 -0.0474 -0.5794  0.6132
10586TIP3    H153249   0.444   1.019   2.727  0.5312 -1.1561  1.2737
10586TIP3    H253250   0.320   1.097   2.764  0.7615  0.1274 -0.5533
10587TIP3   OH253251   6.442   0.072   4.357 -0.2577 -0.2094 -0.0111
10587TIP3    H153252   6.405  -0.003   4.404 -1.0536  0.0859 -0.1411
10587TIP3    H253253   6.400   0.069   4.271  1.7113 -1.1571 -0.9972
10588TIP3   OH253254   6.457   6.073  11.759  0.7081  0.0919  0.1541
10588TIP3    H153255   6.441   5.979  11.757 -0.6013  0.2938  0.5181
10588TIP3    H253256   6.514   6.086  11.835  1.4150 -0.4646 -0.2667
10589TIP3   OH253257   1.298   4.959  15.671 -0.6230  0.1195 -0.6016
10589TIP3    H153258   1.338   4.975  15.756 -1.0165  1.7029 -0.6808
10589TIP3    H253259   1.243   4.882  15.684 -0.0235 -0.1657  0.3374
10590TIP3   OH253260   4.143   4.388   0.969 -0.4057  0.1821  0.1381
10590TIP3    H153261   4.054   4.380   1.005 -0.6008  1.4788 -0.0026
10590TIP3    H253262   4.134   4.452   0.899  0.3232 -0.9472 -1.0439
10591TIP3   OH253263   2.194   1.419   1.130  0.4233 -0.2788  0.0246
10591TIP3    H153264   2.253   1.344   1.125 -0.2628 -0.8384  0.2846
10591TIP3    H253265   2.231   1.474   1.200  0.3097 -0.9208  0.5961
10592TIP3   OH253266   3.198   0.527  15.454 -0.1225  0.0064 -0.1666
10592TIP3    H153267   3.135   0.479  15.507 -0.7967  2.1523  1.1261
10592TIP3    H253268   3.152   0.548  15.374 -0.8038  0.8403  0.4262
10593TIP3   OH253269   3.842   4.537   2.627  0.1105  0.5634 -0.1444
10593TIP3    H153270   3.845   4.626   2.594  0.2679  0.1057 -1.4075
10593TIP3    H253271   3.929   4.521   2.663 -0.1912  1.2066  0.9351
10594TIP3   OH253272   1.598   5.316   0.031 -0.0190  0.0350 -0.3564
10594TIP3    H153273   1.509   5.315  -0.004 -0.0786 -0.4471 -0.1968
10594TIP3    H253274   1.654   5.326  -0.047 -0.2156  0.4509 -0.4450
10595TIP3   OH253275   5.466   6.018  15.624 -0.0358  0.0691  0.0864
10595TIP3    H153276   5.478   6.061  15.539  1.5935  1.0860  0.7768
10595TIP3    H253277   5.504   5.931  15.613 -1.4349 -0.4588 -0.7166
10596TIP3   OH253278   4.354   4.844   0.628 -0.1067  0.3256  0.1201
10596TIP3    H153279   4.361   4.866   0.721  0.9479 -0.9669  0.3839
10596TIP3    H253280   4.261   4.855   0.608 -0.3145  0.8512  1.2618
10597TIP3   OH253281   0.544   6.658  13.200 -0.0561 -0.4073 -0.6906
10597TIP3    H153282   0.538   6.638  13.294  0.6912 -2.4637 -1.0352
10597TIP3    H253283   0.459   6.632  13.165  0.6719 -2.5510 -1.0198
10598TIP3   OH253284   0.492   0.117  17.014  0.5104 -0.2759 -0.4450
10598TIP3    H153285   0.576   0.157  16.994  2.0683 -0.8253  3.9320
10598TIP3    H253286   0.512   0.025  17.031 -1.0755 -0.5708  0.0499
10599TIP3   OH253287   1.493   2.654   5.939 -0.6914  0.0671  0.5176
10599TIP3    H153288   1.579   2.652   5.896  0.1064  0.4773  2.0363
10599TIP3    H253289   1.451   2.732   5.903  0.3182  0.9103  1.1040
10600TIP3   OH253290   2.946   5.554  15.380 -0.2923  0.0667 -0.0061
10600TIP3    H153291   2.917   5.468  15.348 -0.3679  0.0206  0.1802
10600TIP3    H253292   2.958   5.607  15.301  0.2796 -0.2780 -0.1562
10601TIP3   OH253293   0.655   0.996  15.584 -0.1642  0.8046  0.1192
10601TIP3    H153294   0.739   0.951  15.596 -0.1883  0.3759 -1.1638
10601TIP3    H253295   0.680   1.083  15.555 -0.1557  0.9633  0.5935
10602TIP3   OH253296   0.402   0.291  15.192  0.3383  0.5003 -0.1774
10602TIP3    H153297   0.350   0.299  15.112 -2.4790 -0.8433  1.3414
10602TIP3    H253298   0.461   0.367  15.190 -2.0903  2.5358 -1.8310
10603TIP3   OH253299   5.699   3.917   5.949 -0.8308  0.7271 -0.5341
10603TIP3    H153300   5.777   3.864   5.966 -1.5628 -0.0708  0.4451
10603TIP3    H253301   5.726   4.006   5.969 -0.3341  0.3791  0.4205
10604TIP3   OH253302   5.835   2.054  11.057  0.3774  0.3560  0.0094
10604TIP3    H153303   5.765   2.108  11.093 -1.1110 -1.6973  0.3830
10604TIP3    H253304   5.816   2.050  10.963  0.1056 -0.0181  0.0775
10605TIP3   OH253305   5.502   0.954  12.823 -0.4733 -0.3390 -0.1305
10605TIP3    H153306   5.507   0.868  12.782 -0.6236 -0.9398  1.0706
10605TIP3    H253307   5.414   0.985  12.801 -0.4771 -0.5634 -0.4355
10606TIP3   OH253308   5.062   3.806  16.973  0.3156  0.3168  0.5466
10606TIP3    H153309   5.082   3.894  16.941  0.3892  0.9720  2.3249
10606TIP3    H253310   5.112   3.748  16.914 -1.0252  1.3028 -1.7067
10607TIP3   OH253311   0.085   6.418   5.304 -0.0289 -0.3740  0.1705
10607TIP3    H153312   0.072   6.373   5.387  1.8826 -0.3010  0.5601
10607TIP3    H253313   0.136   6.357   5.251 -0.1326  0.0766 -0.4621
10608TIP3   OH253314   6.467   1.822   2.113  0.0155  0.1011  0.5604
10608TIP3    H153315   6.451   1.756   2.181  0.7741 -0.4814  0.1836
10608TIP3    H253316   6.501   1.897   2.161 -0.6397  0.1474  0.9676
10609TIP3   OH253317   4.495   4.240  11.255 -0.2915  0.4965  0.9239
10609TIP3    H153318   4.587   4.266  11.262 -0.2602  0.6067  0.2025
10609TIP3    H253319   4.483   4.219  11.162 -0.5864 -1.0868  1.2983
10610TIP3   OH253320   6.810   5.052  14.753  0.8235 -0.1570 -0.1391
10610TIP3    H153321   6.848   5.030  14.668  1.4165 -0.0291  0.0835
10610TIP3    H253322   6.796   4.967  14.795  3.1493 -0.1927  0.7330
10611TIP3   OH253323   4.313   1.481  16.980  0.8459 -0.2606 -0.0380
10611TIP3    H153324   4.304   1.386  16.989  1.8390 -0.4297 -0.6869
10611TIP3    H253325   4.325   1.513  17.069  0.5234 -0.7383  0.1825
10612TIP3   OH253326   2.560   6.238  10.747 -0.5788  0.3510 -0.2669
10612TIP3    H153327   2.566   6.143  10.754 -0.0499  0.2845 -1.4197
10612TIP3    H253328   2.471   6.255  10.718 -0.2522  0.0969 -1.4728
10613TIP3   OH253329   3.217   1.214   3.035 -0.1726 -0.1554 -0.0704
10613TIP3    H153330   3.264   1.297   3.028  1.0509 -0.7963  0.4305
10613TIP3    H253331   3.251   1.173   3.114 -0.3205 -1.4113 -0.6381
10614TIP3   OH253332   2.385   5.166  14.896  0.2277  0.0398  0.4907
10614TIP3    H153333   2.395   5.254  14.932  1.0081  0.1417  0.0369
10614TIP3    H253334   2.299   5.168  14.854 -2.1921 -0.9838  4.8004
10615TIP3   OH253335   5.156   1.853  15.892  0.1314  0.1578  0.7128
10615TIP3    H153336   5.239   1.862  15.938 -0.2269 -1.3567  1.7527
10615TIP3    H253337   5.167   1.901  15.810  2.1409 -0.2945  0.6854
10616TIP3   OH253338   3.456   6.815   1.149  0.8291 -0.4097  0.4642
10616TIP3    H153339   3.483   6.888   1.205 -2.0230  1.5457 -0.4832
10616TIP3    H253340   3.521   6.814   1.078  2.2333 -0.3841  1.7000
10617TIP3   OH253341   1.273   5.031   5.811  1.0657  0.2520 -0.4992
10617TIP3    H153342   1.232   4.964   5.865 -1.7878  1.7152 -0.6542
10617TIP3    H253343   1.276   5.109   5.867  2.8559  0.4849 -0.8322
10618TIP3   OH253344   1.417   4.837   0.908  0.6314 -0.3904  0.5575
10618TIP3    H153345   1.464   4.920   0.910  4.3005 -2.2419 -0.2167
10618TIP3    H253346   1.333   4.856   0.951  2.0762  3.1742  2.2374
10619TIP3   OH253347   0.767   6.114   0.176  0.1460  0.3805  0.0139
10619TIP3    H153348   0.850   6.157   0.157  0.0904  1.0036  1.0914
10619TIP3    H253349   0.769   6.033   0.125  1.2033  0.6167 -0.3348
10620TIP3   OH253350   0.181   6.716  14.919 -0.0514 -0.0470 -0.0102
10620TIP3    H153351   0.262   6.665  14.909 -0.4071 -0.6432  0.0974
10620TIP3    H253352   0.200   6.778  14.989  0.7427  0.7019 -0.8577
10621TIP3   OH253353   1.283   4.539   4.623  0.2605  0.3389 -0.1582
10621TIP3    H153354   1.287   4.483   4.545  1.3154 -0.2756  0.3153
10621TIP3    H253355   1.277   4.478   4.696  1.2236  0.8305  0.3524
10622TIP3   OH253356   1.738   1.577   3.677  0.3719  0.2605  0.3422
10622TIP3    H153357   1.783   1.598   3.758 -0.8596 -0.2919  1.2044
10622TIP3    H253358   1.806   1.579   3.610  1.3331  1.1348  1.3134
10623TIP3   OH253359   2.179   6.129   2.439 -0.0932 -0.3413 -0.1105
10623TIP3    H153360   2.129   6.049   2.455  1.5296 -1.5632 -0.8136
10623TIP3    H253361   2.265   6.098   2.410  0.2619  1.6672 -1.4189
10624TIP3   OH253362   3.629   0.489  15.182  0.5323  0.4421 -0.2162
10624TIP3    H153363   3.656   0.405  15.145  0.1226  1.0844 -2.0364
10624TIP3    H253364   3.590   0.466  15.267 -0.4838 -1.3247 -1.1187
10625TIP3   OH253365   6.065   1.746  16.019 -0.1550  0.3152 -0.5340
10625TIP3    H153366   6.099   1.825  16.060 -0.5304 -0.3401  1.0972
10625TIP3    H253367   6.130   1.723  15.952  0.4019  1.4750 -0.4093
10626TIP3   OH253368   3.947   4.603   5.990 -0.1783  0.1443 -0.1490
10626TIP3    H153369   3.981   4.515   6.007  0.6938  0.3691 -0.6505
10626TIP3    H253370   3.938   4.607   5.895 -0.1315  0.6292 -0.1354
10627TIP3   OH253371   5.199   6.550  13.280  0.3548  0.1895  0.0433
10627TIP3    H153372   5.144   6.560  13.357  0.9710 -0.2011  0.5360
10627TIP3    H253373   5.169   6.619  13.220 -2.1594 -1.3386 -0.6102
10628TIP3   OH253374   5.254   5.237   4.133  0.0976  0.2419 -0.3782
10628TIP3    H153375   5.305   5.161   4.164 -1.4395 -1.1733 -1.1605
10628TIP3    H253376   5.233   5.285   4.213  1.6975  0.2519  0.0700
10629TIP3   OH253377   1.407   2.185   0.820 -0.0068 -0.1805 -0.1117
10629TIP3    H153378   1.496   2.157   0.844  0.6473  0.2117 -1.9122
10629TIP3    H253379   1.363   2.105   0.793  0.7014 -0.0309 -1.8093
10630TIP3   OH253380   4.438   4.076  12.280  0.4196 -0.1901 -0.0690
10630TIP3    H153381   4.421   4.055  12.188  1.0857  0.3732 -0.3271
10630TIP3    H253382   4.353   4.068  12.322 -0.0248  0.1994 -0.8669
10631TIP3   OH253383   5.822   0.948   0.307  0.0197 -0.0508 -0.8905
10631TIP3    H153384   5.913   0.972   0.286 -0.4505  1.2190 -1.5525
10631TIP3    H253385   5.810   0.979   0.396  0.2366 -0.2311 -0.7962
10632TIP3   OH253386   2.703   0.720   2.358  0.0800 -0.2509 -0.4670
10632TIP3    H153387   2.785   0.689   2.321  1.3729  2.4668 -0.1581
10632TIP3    H253388   2.723   0.736   2.451 -0.9299 -0.0395 -0.2719
10633TIP3   OH253389   6.523   4.343   1.839  0.1624 -0.0614  0.4591
10633TIP3    H153390   6.507   4.405   1.910 -0.0829 -0.3957  0.6973
10633TIP3    H253391   6.447   4.284   1.840 -0.2899  0.4624 -0.6491
10634TIP3   OH253392   3.628   5.255   0.466 -0.2000 -0.2627  0.0735
10634TIP3    H153393   3.633   5.160   0.459  0.0512 -0.1686 -1.5536
10634TIP3    H253394   3.711   5.280   0.507  0.9062 -0.6082 -1.8228
10635TIP3   OH253395   1.096   3.311  16.222 -0.1016  0.0202  0.2648
10635TIP3    H153396   1.071   3.235  16.274 -1.8126 -0.5142 -1.2460
10635TIP3    H253397   1.044   3.304  16.142  1.6650  1.3611 -1.0828
10636TIP3   OH253398   0.459   5.561  12.300  0.3155  0.7737 -0.0356
10636TIP3    H153399   0.459   5.468  12.276  0.4751  0.7256  0.1494
10636TIP3    H253400   0.500   5.563  12.386  0.5328  1.0429 -0.1437
10637TIP3   OH253401   4.843   2.909   2.326 -0.1231  0.2737  0.1760
10637TIP3    H153402   4.920   2.947   2.284 -0.1557  1.0818  0.8181
10637TIP3    H253403   4.837   2.953   2.410 -0.8659 -0.3140  0.4471
10638TIP3   OH253404   1.637   3.596   4.055  0.2415  0.1950 -0.0439
10638TIP3    H153405   1.637   3.500   4.054 -0.6781  0.1888 -0.8643
10638TIP3    H253406   1.727   3.620   4.077  0.5649 -0.8584 -0.1731
10639TIP3   OH253407   1.212   2.110   5.454 -0.5405 -0.3671 -0.5167
10639TIP3    H153408   1.203   2.203   5.431 -1.1180  0.0994  1.3749
10639TIP3    H253409   1.305   2.091   5.440  0.2763  1.3726  1.8285
10640TIP3   OH253410   3.944   1.850   4.764  0.0541  0.4029  0.0780
10640TIP3    H153411   4.017   1.788   4.761 -0.8784 -0.7801  0.7714
10640TIP3    H253412   3.959   1.902   4.843 -0.0966 -0.1669  0.4893
10641TIP3   OH253413   2.178   3.953  16.987 -0.1451  0.2580 -0.4188
10641TIP3    H153414   2.092   3.990  17.009 -0.0114  0.3654 -0.0754
10641TIP3    H253415   2.240   4.005  17.037 -0.1066 -2.0105  2.1706
10642TIP3   OH253416   3.845   4.307  16.885  0.2497  0.3501  0.5598
10642TIP3    H153417   3.856   4.281  16.794 -3.0196 -0.5585  0.3279
10642TIP3    H253418   3.820   4.226  16.930 -1.7461  1.4297  1.5063
10643TIP3   OH253419   0.594   1.849  11.876  0.4144  0.0006 -0.2462
10643TIP3    H153420   0.646   1.913  11.924 -0.5834  1.9819 -1.6436
10643TIP3    H253421   0.513   1.841  11.926  0.4738 -0.0327 -0.1560
10644TIP3   OH253422   1.632   2.168   0.318 -0.3685 -0.8456  0.7283
10644TIP3    H153423   1.719   2.142   0.348 -0.0389 -0.0720  0.4740
10644TIP3    H253424   1.606   2.239   0.376  0.1848  0.5209 -0.6067
10645TIP3   OH253425   6.412   4.661   1.080  0.0139  0.2507  0.2439
10645TIP3    H153426   6.369   4.746   1.086 -0.5342 -0.0671  0.8814
10645TIP3    H253427   6.346   4.598   1.109 -0.1532 -0.5857 -1.7875
10646TIP3   OH253428   3.521   5.383   5.905  0.2203  0.0991  0.0027
10646TIP3    H153429   3.541   5.440   5.979 -0.3288 -0.0502  0.2660
10646TIP3    H253430   3.505   5.443   5.832  0.6494  0.2490  0.0319
10647TIP3   OH253431   1.339   6.506  12.590  0.2564 -0.4549 -0.3041
10647TIP3    H153432   1.376   6.510  12.679  1.8194  1.6615 -0.9632
10647TIP3    H253433   1.345   6.414  12.565  0.5955 -0.9467  1.4440
10648TIP3   OH253434   1.269   3.391  11.006  0.1796  0.1379  0.6920
10648TIP3    H153435   1.213   3.402  11.083 -0.5563  0.1461  0.1561
10648TIP3    H253436   1.255   3.469  10.954  0.0908 -0.2205  0.1719
10649TIP3   OH253437   0.703   1.710  13.544 -0.2416  0.3282  0.0849
10649TIP3    H153438   0.678   1.675  13.629 -2.3580  0.9876 -0.2096
10649TIP3    H253439   0.723   1.802  13.562  0.4374  0.2051  0.0206
10650TIP3   OH253440   2.428   5.665   1.882 -0.2278 -0.0865 -0.4977
10650TIP3    H153441   2.454   5.755   1.903  0.4507 -0.3967  0.0528
10650TIP3    H253442   2.382   5.635   1.961 -1.1484  0.0323 -0.9817
10651TIP3   OH253443   4.031   5.416  12.933  0.1886  0.9118  0.3610
10651TIP3    H153444   3.940   5.408  12.905  0.3835  0.2156 -0.1039
10651TIP3    H253445   4.051   5.333  12.975  1.2370  0.2001 -1.4443
10652TIP3   OH253446   6.315   5.584  16.214  0.1246 -0.3473 -0.4271
10652TIP3    H153447   6.298   5.662  16.265 -1.5894 -1.6069  1.0493
10652TIP3    H253448   6.393   5.605  16.163 -0.1149  2.1855  0.1205
10653TIP3   OH253449   3.863   2.226   0.554 -0.0339 -0.5496  0.0029
10653TIP3    H153450   3.908   2.182   0.626 -0.6009 -0.8197  0.2064
10653TIP3    H253451   3.923   2.294   0.525  0.3228 -0.6276  0.5458
10654TIP3   OH253452   4.336   6.577   2.457  0.2535  0.8363 -0.0378
10654TIP3    H153453   4.285   6.628   2.521 -2.2637 -0.6771 -0.6892
10654TIP3    H253454   4.414   6.550   2.505 -0.8239  1.0259  1.9467
10655TIP3   OH253455   0.388   3.938   0.767  0.5304  0.1363 -0.5400
10655TIP3    H153456   0.479   3.951   0.741  1.2500 -1.2381  1.1019
10655TIP3    H253457   0.382   3.845   0.790 -1.3984  0.1026 -0.9723
10656TIP3   OH253458   6.616   4.966  14.170  0.0231 -0.7871  0.2772
10656TIP3    H153459   6.633   4.952  14.076 -1.7719 -2.9905  0.2063
10656TIP3    H253460   6.525   4.995  14.173  0.5015  0.7279  1.3003
10657TIP3   OH253461   2.732   3.004   2.458 -0.3917 -0.1248 -0.3673
10657TIP3    H153462   2.643   2.971   2.475  0.4166 -2.2804 -0.0483
10657TIP3    H253463   2.775   2.933   2.410  0.9246  1.2450 -1.3151
10658TIP3   OH253464   1.142   0.434   1.851 -0.0796 -0.6989  0.6175
10658TIP3    H153465   1.205   0.506   1.849 -1.5825  0.6364  0.5303
10658TIP3    H253466   1.056   0.475   1.848 -1.0242 -2.5376 -2.3540
10659TIP3   OH253467   4.044   6.692   0.573 -0.4962 -0.0830  0.0938
10659TIP3    H153468   3.985   6.650   0.510  1.3497  0.5996 -2.2646
10659TIP3    H253469   4.110   6.625   0.591 -1.5843 -0.6453  2.2529
10660TIP3   OH253470   2.429   5.442  14.761 -0.3363 -0.2325  0.4920
10660TIP3    H153471   2.439   5.534  14.737 -1.3571 -0.1876  0.1888
10660TIP3    H253472   2.470   5.435  14.847 -0.0013  0.4355  0.3929
10661TIP3   OH253473   5.420   4.069   1.009 -0.0159  0.4248  0.3611
10661TIP3    H153474   5.354   4.119   0.960  0.8959 -1.5382 -3.2960
10661TIP3    H253475   5.369   4.013   1.066 -1.3460  1.1933 -0.0110
10662TIP3   OH253476   1.556   6.512  10.969 -0.2508 -0.5384  0.5067
10662TIP3    H153477   1.618   6.565  10.920 -0.9391 -0.2030 -0.0239
10662TIP3    H253478   1.554   6.551  11.057  0.7788 -0.9751  0.7418
10663TIP3   OH253479   5.610   6.279   2.453  0.0288  0.9826 -0.6700
10663TIP3    H153480   5.611   6.195   2.405 -1.0548  0.7359 -0.2962
10663TIP3    H253481   5.517   6.294   2.472  0.4413  0.8232  1.8023
10664TIP3   OH253482   2.630   6.312  14.789 -0.3775  0.6767  0.5775
10664TIP3    H153483   2.641   6.327  14.883  0.3608  0.6086  0.5078
10664TIP3    H253484   2.630   6.400  14.751 -0.7027  0.7057  0.6421
10665TIP3   OH253485   2.651   4.032  14.731 -0.2903 -0.2861 -0.7217
10665TIP3    H153486   2.603   3.973  14.673 -2.5337  0.0847  0.6380
10665TIP3    H253487   2.595   4.041  14.808  1.6999  0.7274  0.7053
10666TIP3   OH253488   3.954   2.788  16.121  0.8244  0.3600 -0.0847
10666TIP3    H153489   3.907   2.768  16.203  0.0642  1.8998 -0.1127
10666TIP3    H253490   3.957   2.704  16.075 -0.4398 -0.1383  0.6760
10667TIP3   OH253491   1.112   0.240   0.021 -0.6472 -0.2334  0.3716
10667TIP3    H153492   1.068   0.161  -0.012 -0.8567  0.3645 -0.8377
10667TIP3    H253493   1.188   0.206   0.069  0.3369 -1.1684 -1.7098
10668TIP3   OH253494   0.886   3.319  11.751 -0.4696  0.0812 -0.9665
10668TIP3    H153495   0.942   3.383  11.708 -0.3019  0.2283 -0.5345
10668TIP3    H253496   0.799   3.359  11.751 -0.1092  0.9449  0.5473
10669TIP3   OH253497   2.917   5.443   2.521  0.1375 -0.3016 -0.0088
10669TIP3    H153498   2.842   5.443   2.461  0.5797 -1.3000 -0.5836
10669TIP3    H253499   2.888   5.496   2.595 -0.5738  0.6059 -0.9087
10670TIP3   OH253500   4.738   1.320   1.187  0.0389 -0.6454  0.6639
10670TIP3    H153501   4.655   1.299   1.145  0.1923 -0.1213  0.0730
10670TIP3    H253502   4.795   1.247   1.165 -0.0272 -0.6077  0.3575
10671TIP3   OH253503   0.870   5.567  16.435 -0.0155  0.0884 -0.5632
10671TIP3    H153504   0.790   5.526  16.402 -0.7033  1.6186 -0.9230
10671TIP3    H253505   0.883   5.528  16.521 -1.0607 -0.3347 -0.5781
10672TIP3   OH253506   3.301   6.105   1.825 -0.3810  0.4569 -0.6600
10672TIP3    H153507   3.369   6.123   1.760 -0.3604  0.6689 -0.5805
10672TIP3    H253508   3.348   6.065   1.898 -0.3078  0.8209 -0.5090
10673TIP3   OH253509   0.928   4.026  16.807 -0.3825  0.0356  0.1999
10673TIP3    H153510   0.901   3.935  16.817 -0.8281  0.1391 -0.0447
10673TIP3    H253511   0.941   4.036  16.712 -1.7792  0.6281  0.0481
10674TIP3   OH253512   4.939   6.202   5.103 -0.2869 -0.3101  0.0215
10674TIP3    H153513   4.929   6.149   5.182  0.3488 -2.4720 -1.2697
10674TIP3    H253514   4.911   6.145   5.032  0.8640  0.9254 -1.4937
10675TIP3   OH253515   1.758   6.527  13.901  0.2025  0.1727  0.0293
10675TIP3    H153516   1.739   6.507  13.993  2.9149  0.3378  0.6972
10675TIP3    H253517   1.798   6.447  13.867  2.4050  1.2194  0.0225
10676TIP3   OH253518   1.320   1.818   5.874 -0.2828  0.3665 -0.0118
10676TIP3    H153519   1.282   1.754   5.933  1.3331  0.1340  0.8196
10676TIP3    H253520   1.368   1.878   5.931  0.3432  0.8180 -0.9823
10677TIP3   OH253521   5.390   4.262   3.403  0.2718 -0.1752 -0.5149
10677TIP3    H153522   5.448   4.323   3.447 -2.1099  1.1145  1.0467
10677TIP3    H253523   5.326   4.317   3.357 -0.4060 -1.4935 -1.2278
10678TIP3   OH253524   6.523   6.080   3.560 -0.0805 -0.5533 -0.0070
10678TIP3    H153525   6.438   6.114   3.530 -0.1103 -0.9466 -0.3797
10678TIP3    H253526   6.501   6.006   3.616  0.0237 -0.9861 -0.5262
10679TIP3   OH253527   4.458   2.735   5.782 -0.1237  0.5315 -0.3201
10679TIP3    H153528   4.397   2.707   5.850  0.4058 -0.8664 -0.3947
10679TIP3    H253529   4.402   2.750   5.705 -0.8197  2.8323  0.5641
10680TIP3   OH253530   0.039   5.801   5.718 -0.0341 -0.1524 -0.2716
10680TIP3    H153531   0.052   5.762   5.632  0.9112  0.9494 -0.6555
10680TIP3    H253532   0.127   5.819   5.750 -0.3843 -0.2133  0.7724
10681TIP3   OH253533   3.764   6.801  14.854  0.0326  0.1945 -0.3073
10681TIP3    H153534   3.730   6.879  14.810  0.1621 -0.3364 -1.3810
10681TIP3    H253535   3.686   6.749  14.873 -0.0950  0.7509  0.7850
10682TIP3   OH253536   5.760   0.948   1.049 -0.1471 -0.1146 -0.2063
10682TIP3    H153537   5.738   0.862   1.084 -1.7002  0.5292  0.4501
10682TIP3    H253538   5.840   0.972   1.096 -0.3328 -0.7039  0.4428
10683TIP3   OH253539   0.419   0.727   2.423  0.0966 -0.0897 -0.1055
10683TIP3    H153540   0.466   0.644   2.421  0.3718  0.0759 -1.2994
10683TIP3    H253541   0.457   0.779   2.352 -1.1152  0.4654 -0.3924
10684TIP3   OH253542   1.813   0.127  12.813  0.2678  0.0149  0.2032
10684TIP3    H153543   1.788   0.035  12.799  0.7190 -0.1138  0.2388
10684TIP3    H253544   1.755   0.176  12.755 -0.8077 -0.1969  1.0650
10685TIP3   OH253545   4.672   5.317  13.807 -0.0427 -0.4770 -0.1608
10685TIP3    H153546   4.757   5.275  13.796  0.0420 -0.7762  1.4331
10685TIP3    H253547   4.651   5.352  13.720  1.0211 -1.6705 -0.9328
10686TIP3   OH253548   4.290   0.932  12.987 -0.5889 -0.6209  0.0828
10686TIP3    H153549   4.375   0.905  12.952  0.0016  0.5907  0.5144
10686TIP3    H253550   4.272   1.015  12.944 -0.3706  0.3560  1.7788
10687TIP3   OH253551   0.226   5.928   4.682 -0.5037  0.2003  0.1360
10687TIP3    H153552   0.274   5.967   4.609 -0.9735  0.9876  0.2342
10687TIP3    H253553   0.294   5.896   4.741 -0.1047 -1.3682 -1.0903
10688TIP3   OH253554   0.049   6.665   5.942  0.1146 -0.1766 -0.1071
10688TIP3    H153555   0.090   6.609   6.008  2.8102  0.6918 -0.9253
10688TIP3    H253556  -0.003   6.727   5.992  1.0190 -0.3792  1.1324
10689TIP3   OH253557   4.286   4.987  13.007 -0.3067  0.3064  0.3227
10689TIP3    H153558   4.285   5.070  12.958 -0.8888 -0.1311 -0.4370
10689TIP3    H253559   4.362   4.994  13.064  1.6248  0.0676 -2.0390
10690TIP3   OH253560   5.596   0.070  11.546  0.2874 -0.5278 -0.4517
10690TIP3    H153561   5.685   0.091  11.518  0.1935 -0.6331 -0.8375
10690TIP3    H253562   5.540   0.128  11.493  0.2073  1.0106  1.2222
10691TIP3   OH253563   1.597   2.802   3.176  0.5271 -0.1336  1.1120
10691TIP3    H153564   1.618   2.884   3.220  0.4529  0.1975  0.5513
10691TIP3    H253565   1.661   2.740   3.209  1.0114  0.3195  1.0532
10692TIP3   OH253566   1.977   2.461   0.393  0.2453  0.5244 -0.0806
10692TIP3    H153567   2.039   2.527   0.424  1.2238 -1.0061  1.4328
10692TIP3    H253568   2.028   2.405   0.335  0.7893 -1.5020  2.1480
10693TIP3   OH253569   0.786   3.188  15.685 -0.2414 -0.1913 -0.1746
10693TIP3    H153570   0.753   3.101  15.709  1.4279 -1.1190 -1.0631
10693TIP3    H253571   0.733   3.248  15.738 -0.7990 -1.7798  1.1994
10694TIP3   OH253572   4.445   4.346   0.818 -0.0872 -0.5071 -0.2763
10694TIP3    H153573   4.418   4.329   0.908  2.9177 -0.1306  0.8188
10694TIP3    H253574   4.524   4.293   0.806  1.4925  1.9389 -1.5000
10695TIP3   OH253575   3.642   1.412  17.022 -0.5025 -0.0360 -0.3172
10695TIP3    H153576   3.642   1.404  17.117  2.2173 -0.4893 -0.2903
10695TIP3    H253577   3.704   1.346  16.991  1.9667  2.8171 -2.0555
10696TIP3   OH253578   6.155   0.313   4.413  0.1776  0.0150 -0.0956
10696TIP3    H153579   6.143   0.239   4.472  0.4022 -0.6453 -0.8573
10696TIP3    H253580   6.241   0.348   4.435 -0.1570  0.4121  0.6396
10697TIP3   OH253581   2.467   2.435  11.388 -0.1355 -0.1921  0.0875
10697TIP3    H153582   2.413   2.439  11.309 -0.8207 -0.1178  0.5496
10697TIP3    H253583   2.536   2.371  11.367  0.4064  0.7218 -0.9862
10698TIP3   OH253584   2.657   0.592  17.268 -0.6268 -0.1159 -0.1395
10698TIP3    H153585   2.580   0.538  17.252  0.0222 -1.3654  0.8446
10698TIP3    H253586   2.731   0.536  17.245  0.0514  0.4097  0.7023
10699TIP3   OH253587   1.190   5.148   2.210 -0.5065  0.3779  0.4786
10699TIP3    H153588   1.096   5.161   2.196 -0.9176  0.3301  2.8955
10699TIP3    H253589   1.200   5.052   2.213 -0.2315  0.3637 -0.5020
10700TIP3   OH253590   0.735   3.759  15.655 -0.1967  0.1386 -0.3102
10700TIP3    H153591   0.679   3.825  15.613 -1.2185 -0.0286  0.7248
10700TIP3    H253592   0.694   3.675  15.632  0.3499 -0.0611 -0.5612
10701TIP3   OH253593   4.927   5.210  13.806  0.3668 -0.3117  0.2071
10701TIP3    H153594   4.915   5.188  13.898 -0.9253 -1.3578 -0.1830
10701TIP3    H253595   4.995   5.277  13.806 -0.0687  0.1738  1.9740
10702TIP3   OH253596   3.327   1.304   4.122  0.2512  0.7686  0.3791
10702TIP3    H153597   3.311   1.303   4.028  1.3637 -0.2586  0.1670
10702TIP3    H253598   3.388   1.232   4.137  1.2005  1.7809  1.6901
10703TIP3   OH253599   4.077   2.021  15.959  0.8834 -0.2015 -0.8951
10703TIP3    H153600   4.094   2.112  15.935 -0.3426 -0.5025 -3.1584
10703TIP3    H253601   4.150   1.972  15.922  1.0296 -0.2539 -0.5406
10704TIP3   OH253602   1.319   3.911   1.405  0.1515 -0.3017  0.2297
10704TIP3    H153603   1.252   3.874   1.347 -0.7738  0.4931  0.7704
10704TIP3    H253604   1.319   4.004   1.385  1.3079 -0.3358  0.0398
10705TIP3   OH253605   0.027   2.694  13.269  0.2236 -0.0396  0.1332
10705TIP3    H153606   0.084   2.702  13.345  0.1550  0.0636  0.1730
10705TIP3    H253607   0.049   2.769  13.214  0.3253 -0.1540  0.0161
10706TIP3   OH253608   4.155   2.914   3.601  0.1501  0.8717  0.4378
10706TIP3    H153609   4.082   2.967   3.633 -0.8314 -0.0806 -0.1917
10706TIP3    H253610   4.184   2.865   3.679 -1.1792 -0.2150  0.2937
10707TIP3   OH253611   0.371   1.524  12.811 -0.2301 -0.4628 -0.7274
10707TIP3    H153612   0.293   1.572  12.785 -1.2482 -2.0238 -0.6593
10707TIP3    H253613   0.349   1.484  12.895  1.3132  0.5582  0.2227
10708TIP3   OH253614   6.638   1.017  11.869 -0.1938  0.0347  0.2320
10708TIP3    H153615   6.730   0.997  11.886 -0.2429 -0.5235 -0.1134
10708TIP3    H253616   6.638   1.058  11.782 -0.3969 -1.2255 -0.3964
10709TIP3   OH253617   2.776   2.429  12.414  0.4314 -0.9169 -0.0454
10709TIP3    H153618   2.717   2.486  12.464  1.6059 -1.6530  2.3623
10709TIP3    H253619   2.718   2.376  12.359 -0.9307  0.1176  0.3475
10710TIP3   OH253620   5.368   5.122   2.469 -0.0016 -0.0638  0.0258
10710TIP3    H153621   5.441   5.111   2.530 -0.7899 -0.5387  0.9026
10710TIP3    H253622   5.290   5.118   2.524 -0.6505  2.7552 -0.5418
10711TIP3   OH253623   5.124   0.706  13.445 -0.4699  0.3067  0.4500
10711TIP3    H153624   5.059   0.652  13.398 -0.0534  0.2072 -0.0236
10711TIP3    H253625   5.142   0.657  13.525 -0.1532 -0.2369  0.0574
10712TIP3   OH253626   1.174   2.976   5.936 -0.0118 -0.5804  0.4446
10712TIP3    H153627   1.227   3.041   5.982 -2.1518  2.8870 -1.6025
10712TIP3    H253628   1.115   2.942   6.004  3.3127 -3.2281  2.3438
10713TIP3   OH253629   4.773   4.477  16.764 -0.0532  0.6720 -0.2699
10713TIP3    H153630   4.809   4.475  16.676 -1.0157  0.9415 -0.6789
10713TIP3    H253631   4.849   4.493  16.821  0.5785  0.4219 -1.0324
10714TIP3   OH253632   5.245   0.962  14.486 -0.3433  0.5214 -1.4050
10714TIP3    H153633   5.184   1.025  14.525 -0.0281 -0.2715  0.4296
10714TIP3    H253634   5.196   0.925  14.412 -2.6406 -0.9369  0.6775
10715TIP3   OH253635   2.711   1.094   1.321 -0.1038 -0.3884  0.4091
10715TIP3    H153636   2.735   1.004   1.343 -0.9623 -1.2922 -2.0308
10715TIP3    H253637   2.656   1.123   1.393  0.2522 -1.7921  1.2687
10716TIP3   OH253638   1.008   4.303  13.983 -0.1537 -0.5957 -0.0879
10716TIP3    H153639   1.041   4.278  13.896  0.8272  0.7776 -0.1533
10716TIP3    H253640   0.914   4.288  13.978  0.2223 -3.4948 -0.3176
10717TIP3   OH253641   6.017   6.761   0.450  0.4654 -0.3158 -0.1705
10717TIP3    H153642   6.053   6.692   0.506  0.8000 -0.4350 -0.5262
10717TIP3    H253643   5.947   6.800   0.502  2.5175  1.4114  1.4649
10718TIP3   OH253644   6.733   3.265   2.236  0.6267  0.4263  0.0223
10718TIP3    H153645   6.822   3.294   2.256  0.4398 -0.1298  1.8502
10718TIP3    H253646   6.677   3.336   2.267  0.4035  0.6998 -0.9698
10719TIP3   OH253647   4.566   1.731   2.467  0.6307  0.3645  0.3280
10719TIP3    H153648   4.507   1.783   2.412 -0.2279 -0.7526  0.1595
10719TIP3    H253649   4.643   1.787   2.477  0.0028  1.4138 -0.3575
10720TIP3   OH253650   2.875   2.389  15.599  0.0377  0.1211 -0.1408
10720TIP3    H153651   2.922   2.413  15.679 -0.3329  3.1437 -0.7053
10720TIP3    H253652   2.822   2.314  15.624  2.3618 -1.0761  1.5118
10721TIP3   OH253653   4.778   6.109  14.298  0.0811 -0.3447 -0.0906
10721TIP3    H153654   4.763   6.195  14.337  0.8120 -0.1305 -0.2676
10721TIP3    H253655   4.812   6.055  14.370 -2.4481 -1.1563  0.6068
10722TIP3   OH253656   3.721   6.762   1.450  0.1528 -0.0379  0.2716
10722TIP3    H153657   3.807   6.719   1.449  0.3653 -0.0532  4.1456
10722TIP3    H253658   3.662   6.696   1.413  1.5386 -0.5958 -1.0850
10723TIP3   OH253659   1.803   4.478  15.466 -0.3598 -0.1129 -0.2560
10723TIP3    H153660   1.881   4.533  15.475  0.0717 -0.4942 -1.4841
10723TIP3    H253661   1.806   4.420  15.542  0.5990 -0.1801 -0.3366
10724TIP3   OH253662   6.245   1.318  17.034 -0.3713 -0.3625 -0.1468
10724TIP3    H153663   6.211   1.234  17.064 -0.7667  0.0914  0.6913
10724TIP3    H253664   6.235   1.376  17.109 -0.3358  0.4988 -0.7995
10725TIP3   OH253665   2.216   4.449  12.489 -0.8896  0.6331  0.3255
10725TIP3    H153666   2.288   4.411  12.439 -0.6223  0.1934  1.0326
10725TIP3    H253667   2.142   4.391  12.472 -1.3538  1.5791 -1.1242
10726TIP3   OH253668   6.310   2.800  10.570 -0.4936  0.0281  0.3766
10726TIP3    H153669   6.283   2.767  10.484 -2.4001  2.1969  0.0273
10726TIP3    H253670   6.403   2.780  10.576 -0.1676  0.2898 -2.4709
10727TIP3   OH253671   2.171   5.038  11.921  0.5604  0.1496  0.2122
10727TIP3    H153672   2.235   5.105  11.943  0.2648  0.0187  1.5463
10727TIP3    H253673   2.218   4.977  11.864  1.9650 -0.5336  2.0237
10728TIP3   OH253674   2.019   1.593   0.992  0.0404  0.2185  0.3170
10728TIP3    H153675   2.092   1.543   1.028 -0.3234  0.4283  1.3737
10728TIP3    H253676   2.044   1.685   1.005  0.4383  0.3268 -1.0728
10729TIP3   OH253677   6.683   4.344  17.158 -0.2850  0.1795  0.0551
10729TIP3    H153678   6.667   4.262  17.204  1.5329 -0.2670 -0.0106
10729TIP3    H253679   6.722   4.402  17.224  0.1904  0.3210 -0.3396
10730TIP3   OH253680   4.998   5.141   6.436 -0.0232 -0.4974 -0.4521
10730TIP3    H153681   4.923   5.199   6.426  0.3097 -0.0777 -0.5078
10730TIP3    H253682   4.961   5.060   6.473 -0.3220  0.1578  0.7393
10731TIP3   OH253683   1.611   0.447   1.635  0.4269  0.4645  0.1830
10731TIP3    H153684   1.524   0.449   1.676 -0.2009  0.3290 -1.0873
10731TIP3    H253685   1.635   0.539   1.627 -0.6246  0.6375 -1.4876
10732TIP3   OH253686   5.516   0.017   2.364 -0.0791  0.2276  0.1366
10732TIP3    H153687   5.427   0.050   2.372 -0.2803 -0.0725 -0.7649
10732TIP3    H253688   5.547   0.051   2.280  0.8344  0.7322  0.6605
10733TIP3   OH253689   2.244   3.518   3.100 -0.2009 -0.4979  0.0875
10733TIP3    H153690   2.299   3.510   3.022  0.2641 -0.5877  0.4153
10733TIP3    H253691   2.302   3.556   3.166 -0.9096  0.6320  0.0729
10734TIP3   OH253692   2.753   4.823  11.949  0.7615  0.0477 -0.3071
10734TIP3    H153693   2.777   4.908  11.912  2.1300  0.1906  0.8152
10734TIP3    H253694   2.828   4.767  11.932 -0.4730 -1.2432 -1.8087
10735TIP3   OH253695   6.025   5.204  14.138  0.3762 -0.1364 -0.0208
10735TIP3    H153696   5.932   5.182  14.140 -0.3456  2.3041  3.4451
10735TIP3    H253697   6.066   5.138  14.194  0.3487 -0.0434  0.1119
10736TIP3   OH253698   5.865   5.116  16.367  0.6851 -0.4476 -0.3370
10736TIP3    H153699   5.945   5.156  16.333  0.6940 -0.1158  0.0624
10736TIP3    H253700   5.817   5.088  16.289  1.3753 -1.0165 -0.5658
10737TIP3   OH253701   6.100   5.340  12.444 -0.0677  0.3139 -0.2950
10737TIP3    H153702   6.150   5.409  12.401  2.2587 -0.4005  1.1319
10737TIP3    H253703   6.090   5.369  12.534  0.7257 -1.0575  0.2636
10738TIP3   OH253704   0.963   4.577   3.368 -0.4042 -0.2101 -0.4084
10738TIP3    H153705   1.004   4.657   3.401  0.2796  0.0193 -1.7130
10738TIP3    H253706   1.030   4.539   3.310 -1.2157 -1.0193 -0.8343
10739TIP3   OH253707   4.505   0.420  17.064 -0.2971 -0.4027 -0.2853
10739TIP3    H153708   4.563   0.412  17.140  1.2579  1.2687 -1.2044
10739TIP3    H253709   4.558   0.393  16.990 -0.8680  0.5698 -1.0821
10740TIP3   OH253710   4.686   0.563   3.114 -0.3261  0.2232 -0.6617
10740TIP3    H153711   4.613   0.503   3.131  0.7511 -0.7003  1.0179
10740TIP3    H253712   4.760   0.523   3.160  1.2919  1.0453 -2.4357
10741TIP3   OH253713   1.064   3.301   5.173  0.7374 -0.5309  0.3323
10741TIP3    H153714   1.088   3.385   5.134 -0.1972 -0.9944 -1.3501
10741TIP3    H253715   1.042   3.246   5.098 -0.2954 -1.7628  1.5001
10742TIP3   OH253716   3.156   1.399   0.616 -0.3655  0.2682  0.4771
10742TIP3    H153717   3.195   1.388   0.703  1.7776 -3.9710 -0.7673
10742TIP3    H253718   3.103   1.320   0.603  0.0853  0.3168 -2.3320
10743TIP3   OH253719   2.944   3.645   2.377 -0.4789 -0.4495 -0.1430
10743TIP3    H153720   2.901   3.692   2.305  0.7757  2.4788  0.8834
10743TIP3    H253721   2.955   3.556   2.344 -3.1055 -0.1611 -2.1822
10744TIP3   OH253722   0.412   0.421   1.020  0.0243  0.1545 -0.2657
10744TIP3    H153723   0.419   0.351   1.085  0.1720  1.6773  1.4588
10744TIP3    H253724   0.406   0.501   1.073 -0.5642  1.4054 -2.1528
10745TIP3   OH253725   2.164   3.864  14.759  0.7633 -0.0863 -0.6451
10745TIP3    H153726   2.177   3.875  14.665 -2.2722 -1.7345 -1.3989
10745TIP3    H253727   2.202   3.778  14.779 -1.8847 -1.5366 -1.3146
10746TIP3   OH253728   2.252   6.506  16.830 -0.4066 -0.2858 -0.5162
10746TIP3    H153729   2.191   6.574  16.803  0.0271  0.4393  0.2776
10746TIP3    H253730   2.208   6.423  16.808 -1.9590  0.1893  0.6453
10747TIP3   OH253731   4.106   1.446  11.458  0.2565 -0.0344 -0.5921
10747TIP3    H153732   4.048   1.412  11.525 -0.7129  2.6519  0.0880
10747TIP3    H253733   4.179   1.384  11.454  0.6960 -0.0534  3.4106
10748TIP3   OH253734   2.825   6.106  16.670 -0.0863  0.0491  0.1263
10748TIP3    H153735   2.876   6.079  16.594  0.2895  1.1101 -0.0059
10748TIP3    H253736   2.834   6.033  16.732 -0.1938 -0.7098 -0.7345
10749TIP3   OH253737   3.168   5.207  12.942 -0.1437  0.5587 -0.3166
10749TIP3    H153738   3.194   5.296  12.966 -0.2426  0.8051 -1.1038
10749TIP3    H253739   3.231   5.150  12.986 -0.5471  0.9709  0.8398
10750TIP3   OH253740   2.444   6.293  13.052 -0.3221 -0.2699 -0.4225
10750TIP3    H153741   2.462   6.216  13.107 -0.3209 -1.2525 -1.7321
10750TIP3    H253742   2.511   6.289  12.984 -1.8074 -0.5465 -1.9311
10751TIP3   OH253743   4.604   6.550  12.558  0.0235 -0.1789  0.2742
10751TIP3    H153744   4.561   6.506  12.484  2.3921 -1.0868 -0.6702
10751TIP3    H253745   4.679   6.594  12.519  0.1978  1.0463  1.8896
10752TIP3   OH253746   4.750   1.058   2.559  0.7397 -0.0220  0.3398
10752TIP3    H153747   4.845   1.064   2.567  0.7666 -0.0111  0.0269
10752TIP3    H253748   4.727   0.977   2.604  0.7207  0.7588  1.8104
10753TIP3   OH253749   5.746   2.259  11.509 -0.2492  0.7560 -0.2708
10753TIP3    H153750   5.798   2.178  11.508 -0.8002  0.3669  0.8166
10753TIP3    H253751   5.720   2.271  11.418  1.8746  1.0692 -0.8951
10754TIP3   OH253752   3.122   4.481  15.324 -0.1776 -0.5608  0.0283
10754TIP3    H153753   3.072   4.527  15.390 -0.6445 -1.2338  0.1535
10754TIP3    H253754   3.201   4.451  15.369 -0.5846 -1.1858  0.3448
10755TIP3   OH253755   1.094   5.711  10.708  0.5743 -1.1871  0.0663
10755TIP3    H153756   1.136   5.703  10.623  0.1619 -2.1096 -0.0699
10755TIP3    H253757   1.165   5.730  10.769  0.5803  2.3175 -0.8220
10756TIP3   OH253758   1.706   6.709  12.845  0.1155  0.6895 -0.0152
10756TIP3    H153759   1.720   6.657  12.924  1.1831  0.5362 -0.2774
10756TIP3    H253760   1.620   6.748  12.856 -0.1395 -0.0666  0.7998
10757TIP3   OH253761   0.802   1.755  12.663 -0.3504  0.1964 -0.1641
10757TIP3    H153762   0.875   1.742  12.603 -0.5421  0.8593 -0.5501
10757TIP3    H253763   0.735   1.694  12.632  0.2080 -0.7778  0.4983
10758TIP3   OH253764   3.758   1.615  14.022  0.1450  0.0891  0.3094
10758TIP3    H153765   3.743   1.658  13.938  0.5681 -1.4961 -0.6127
10758TIP3    H253766   3.850   1.633  14.042 -0.1839  1.2015  0.8893
10759TIP3   OH253767   5.172   3.230  13.600  0.0393 -0.0511 -0.0252
10759TIP3    H153768   5.169   3.214  13.695  1.3539  2.3483  0.5123
10759TIP3    H253769   5.257   3.195  13.573 -0.2963 -0.6496 -0.3197
10760TIP3   OH253770   2.743   0.305   5.462 -0.0026  0.2991  0.3568
10760TIP3    H153771   2.673   0.322   5.525 -0.6975 -0.6614 -0.1212
10760TIP3    H253772   2.801   0.381   5.468 -1.0903  1.1151  0.7743
10761TIP3   OH253773   1.074   2.806  15.300 -0.0620  0.1769 -0.6905
10761TIP3    H153774   1.023   2.875  15.343  2.1876  0.9832  0.8965
10761TIP3    H253775   1.096   2.746  15.372  1.5187  0.0769 -1.2362
10762TIP3   OH253776   2.813   6.355  15.385  0.3217 -0.5151 -1.1053
10762TIP3    H153777   2.788   6.269  15.420 -0.7687  0.3707  0.4086
10762TIP3    H253778   2.730   6.395  15.360  0.4968  1.1334  0.7432
10763TIP3   OH253779   1.438   3.656  12.726  0.2016  0.3068 -0.0583
10763TIP3    H153780   1.481   3.681  12.645 -0.6814 -0.5365 -0.8220
10763TIP3    H253781   1.425   3.561  12.719  1.2664 -0.0190  1.6516
10764TIP3   OH253782   3.543   2.895  13.073 -0.8279  0.2327  0.0984
10764TIP3    H153783   3.582   2.808  13.061  2.3627  1.5566 -0.0828
10764TIP3    H253784   3.448   2.879  13.070 -0.4102 -3.3223  0.9262
10765TIP3   OH253785   3.700   5.530  16.789 -0.2557  0.3200 -0.3535
10765TIP3    H153786   3.747   5.539  16.706 -2.9692  0.2859 -1.9937
10765TIP3    H253787   3.724   5.443  16.821  0.4083  0.1114 -1.3667
10766TIP3   OH253788   5.319   2.520  13.425 -0.0774  0.2680 -0.7060
10766TIP3    H153789   5.244   2.556  13.473 -0.0415 -1.2706  0.5777
10766TIP3    H253790   5.280   2.468  13.355 -0.2832 -1.3821  0.5873
10767TIP3   OH253791   1.086   3.697   5.426 -0.0628 -0.5586 -0.2348
10767TIP3    H153792   1.083   3.602   5.427 -0.6322 -0.5452 -0.1175
10767TIP3    H253793   1.048   3.721   5.341  0.8291 -0.4475 -0.6219
10768TIP3   OH253794   3.635   5.150  12.408 -0.1659  0.3878  0.1043
10768TIP3    H153795   3.540   5.135  12.407  0.1715 -2.3349  0.4773
10768TIP3    H253796   3.661   5.145  12.316 -0.4158  1.5987 -0.0444
10769TIP3   OH253797   0.856   2.599  16.670  0.1804 -0.0992 -0.5500
10769TIP3    H153798   0.918   2.580  16.600  0.2003 -0.7025 -0.3784
10769TIP3    H253799   0.771   2.606  16.626  0.3017  0.2816 -0.7273
10770TIP3   OH253800   0.050   6.586  12.137  0.1325  0.1977  0.8485
10770TIP3    H153801   0.134   6.595  12.092  1.0322  0.9062  2.5872
10770TIP3    H253802  -0.011   6.635  12.082  0.5669 -1.2004 -1.0162
10771TIP3   OH253803   2.299   5.902   0.518  0.3547  0.1676 -0.8410
10771TIP3    H153804   2.387   5.939   0.529 -0.1689  1.5725 -1.2131
10771TIP3    H253805   2.314   5.808   0.505  1.7891  0.3718 -0.8130
10772TIP3   OH253806   1.084   0.837   1.183 -0.3843 -0.2083  0.0509
10772TIP3    H153807   1.045   0.914   1.226 -0.2124 -0.1130  0.0374
10772TIP3    H253808   1.038   0.831   1.099 -0.4906 -0.1985  0.1079
10773TIP3   OH253809   3.297   6.636  10.834 -0.1602  0.8242 -0.6410
10773TIP3    H153810   3.316   6.628  10.741 -1.2155 -1.2195 -0.7368
10773TIP3    H253811   3.347   6.565  10.875 -1.6699  0.0891 -0.0057
10774TIP3   OH253812   1.850   1.187   4.387  0.9142 -0.2499 -0.7778
10774TIP3    H153813   1.921   1.249   4.374  0.7540  0.3056  0.7665
10774TIP3    H253814   1.856   1.163   4.480 -1.1098  0.0878 -0.5048
10775TIP3   OH253815   3.241   2.829   3.231  0.4799 -0.3834 -0.4065
10775TIP3    H153816   3.220   2.867   3.317  0.7667 -0.7816 -0.1536
10775TIP3    H253817   3.195   2.745   3.230 -1.3419  0.5796 -1.5498
10776TIP3   OH253818   1.905   0.783   0.945 -0.5398  0.2844 -0.7347
10776TIP3    H153819   1.957   0.709   0.915 -1.5892 -0.2213 -1.3322
10776TIP3    H253820   1.848   0.747   1.013 -0.6110  0.6896 -0.5752
10777TIP3   OH253821   5.767   0.859  17.188  0.0847  0.1524  0.3769
10777TIP3    H153822   5.772   0.768  17.161 -2.2503 -0.2506  1.0099
10777TIP3    H253823   5.729   0.905  17.113 -0.1617  0.2884  0.5781
10778TIP3   OH253824   1.865   6.577   4.929 -0.4926  0.2145 -0.3044
10778TIP3    H153825   1.878   6.506   4.992 -1.0008 -0.1699 -0.6224
10778TIP3    H253826   1.776   6.564   4.895 -1.3835  2.1953  1.0853
10779TIP3   OH253827   6.738   0.809  10.755 -0.0849  0.1978  0.4256
10779TIP3    H153828   6.736   0.784  10.848 -0.4008 -1.6111 -0.0244
10779TIP3    H253829   6.774   0.732  10.711  0.0770  1.0444 -0.9577
10780TIP3   OH253830   1.832   1.668   6.626  0.0001  0.4796  0.9013
10780TIP3    H153831   1.903   1.729   6.605  0.4935 -0.5427 -0.5120
10780TIP3    H253832   1.755   1.705   6.584  0.0224  0.7686  1.1093
10781TIP3   OH253833   0.974   1.118   4.655  0.0015  0.3741  0.5437
10781TIP3    H153834   1.042   1.070   4.703 -1.2826  0.3989  2.5212
10781TIP3    H253835   0.911   1.051   4.629  0.8703  0.3002 -1.5898
10782TIP3   OH253836   3.933   2.025  13.141  0.2395 -0.3141 -0.4887
10782TIP3    H153837   4.024   2.056  13.148  0.6441 -1.3770 -0.8567
10782TIP3    H253838   3.891   2.058  13.221  0.8975  0.3443 -0.3999
10783TIP3   OH253839   1.731   2.587  12.946  0.2245 -0.2272  0.2078
10783TIP3    H153840   1.662   2.553  12.889  0.5697  1.4579 -1.3142
10783TIP3    H253841   1.684   2.641  13.010  0.0594  0.4575 -0.4766
10784TIP3   OH253842   2.171   4.329   2.230 -0.3174 -0.1848  0.0178
10784TIP3    H153843   2.258   4.338   2.192  0.5327 -0.0606  1.9075
10784TIP3    H253844   2.118   4.394   2.185  0.7814  0.3529 -0.5306
10785TIP3   OH253845   6.080   3.222  15.476 -0.1404 -0.2874 -0.4856
10785TIP3    H153846   6.024   3.276  15.532 -0.1248 -1.8593  1.1629
10785TIP3    H253847   6.046   3.133  15.488  1.5831 -1.0239 -0.8616
10786TIP3   OH253848   5.048   3.060   2.221 -0.3348  0.4116 -0.4704
10786TIP3    H153849   5.017   3.116   2.149  1.5907  0.8831 -0.9796
10786TIP3    H253850   5.074   3.120   2.290  0.6865  0.1238 -0.5810
10787TIP3   OH253851   6.108   3.219  15.160  0.2066 -0.1599  0.1913
10787TIP3    H153852   6.034   3.172  15.123 -0.7848  1.9125 -0.6373
10787TIP3    H253853   6.080   3.239  15.250  0.1029 -0.0984  0.1460
10788TIP3   OH253854   6.263   5.324  16.159  0.5331  0.2050 -0.0947
10788TIP3    H153855   6.330   5.274  16.205  2.0224  0.5315 -1.7702
10788TIP3    H253856   6.293   5.415  16.164  0.2751  0.3483 -0.9354
10789TIP3   OH253857   4.499   5.626  11.424  0.6811 -0.0314  0.2078
10789TIP3    H153858   4.523   5.608  11.515  1.1746 -0.3329  0.0241
10789TIP3    H253859   4.408   5.654  11.428  0.4753 -0.7471  0.7159
10790TIP3   OH253860   3.582   1.169   0.215 -0.0546 -0.1167 -1.0063
10790TIP3    H153861   3.570   1.102   0.148  3.6741 -1.7222 -0.3166
10790TIP3    H253862   3.532   1.137   0.290 -0.6784 -0.5657 -1.5950
10791TIP3   OH253863   2.465   2.606   3.958  0.3291  0.1210 -0.0402
10791TIP3    H153864   2.533   2.539   3.958  1.6246  1.3752  1.0788
10791TIP3    H253865   2.511   2.688   3.940 -1.3399  0.6620 -2.2916
10792TIP3   OH253866   2.685   3.568   1.456  0.7391 -0.0201 -0.1281
10792TIP3    H153867   2.687   3.592   1.363 -0.3750  0.1900 -0.1154
10792TIP3    H253868   2.665   3.474   1.456 -0.0362  0.1340 -0.1056
10793TIP3   OH253869   3.993   5.895   6.471 -0.3453  0.0461 -0.3752
10793TIP3    H153870   3.899   5.913   6.471 -0.1989  0.8628  0.0915
10793TIP3    H253871   4.032   5.969   6.518  0.4086 -0.9853  0.6898
10794TIP3   OH253872   4.653   2.650  11.033 -0.5503 -0.0380  0.1193
10794TIP3    H153873   4.716   2.616  11.096 -1.1187 -0.5474  0.4264
10794TIP3    H253874   4.570   2.607  11.056 -0.5599 -1.0107 -1.5832
10795TIP3   OH253875   0.705   5.383  16.265  0.0725 -0.2944  0.5022
10795TIP3    H153876   0.699   5.370  16.171 -0.1160  0.9628  0.3201
10795TIP3    H253877   0.779   5.328  16.293 -0.3141 -1.2101 -0.2540
10796TIP3   OH253878   0.387   5.935   4.420  0.4936  0.0769  0.3225
10796TIP3    H153879   0.350   6.023   4.410 -3.3848 -1.2922  0.8508
10796TIP3    H253880   0.324   5.877   4.377  2.3066 -2.5588  0.9669
10797TIP3   OH253881   2.920   3.600  17.220  0.4968  0.1903 -0.4683
10797TIP3    H153882   2.962   3.664  17.278  2.7599  0.5251 -2.3559
10797TIP3    H253883   2.862   3.653  17.165  1.4512  0.4885 -1.2148
10798TIP3   OH253884   6.346   6.093   3.954 -0.3629  0.3184 -0.0818
10798TIP3    H153885   6.300   6.162   4.002  1.3598  1.4327  0.0974
10798TIP3    H253886   6.415   6.065   4.014 -0.2507 -0.6502 -0.6506
10799TIP3   OH253887   2.208   6.462   4.526 -0.1732 -0.2665  0.1281
10799TIP3    H153888   2.282   6.403   4.545 -1.3302 -1.3192  1.6760
10799TIP3    H253889   2.162   6.420   4.454 -0.2947 -0.6192  0.4067
10800TIP3   OH253890   5.022   0.068   2.769  0.5170 -0.5640 -0.1283
10800TIP3    H153891   4.976   0.088   2.687 -1.9249 -2.6892  0.5671
10800TIP3    H253892   5.108   0.037   2.741 -0.2765 -1.3316 -1.9178
10801TIP3   OH253893   0.084   0.338  15.242 -0.1041 -0.3839 -0.3372
10801TIP3    H153894   0.100   0.312  15.333 -2.7436 -1.3163 -0.0464
10801TIP3    H253895   0.017   0.278  15.211 -1.8605  2.0977 -1.7539
10802TIP3   OH253896   6.489   4.572   0.810 -0.0915  0.1014  0.9981
10802TIP3    H153897   6.431   4.624   0.754 -1.4581 -1.8137  0.5419
10802TIP3    H253898   6.460   4.591   0.899  0.3450  1.1464  0.9306
10803TIP3   OH253899   3.386   4.055   1.584 -0.7361 -0.1037  0.0901
10803TIP3    H153900   3.433   4.017   1.658  1.0801 -0.7106 -1.3020
10803TIP3    H253901   3.444   4.124   1.551 -2.5277  1.7459  0.5575
10804TIP3   OH253902   2.332   4.340  11.674  0.2252  0.6433  0.0771
10804TIP3    H153903   2.301   4.338  11.583 -0.5073  1.6782  0.2879
10804TIP3    H253904   2.252   4.341  11.726  0.6102  2.1046  0.6798
10805TIP3   OH253905   6.004   2.245  15.886 -0.5110  0.0848  0.3009
10805TIP3    H153906   5.935   2.224  15.823 -0.8139 -2.0653  1.2321
10805TIP3    H253907   6.068   2.173  15.876  1.1682  1.5276  0.1080
10806TIP3   OH253908   0.879   6.096  11.224 -0.3174  0.4858  0.0417
10806TIP3    H153909   0.835   6.165  11.175 -2.4524 -0.7453  0.1171
10806TIP3    H253910   0.908   6.137  11.305 -0.0450  1.6540 -0.6285
10807TIP3   OH253911   1.479   3.127   5.045 -0.0538 -0.0280 -0.1369
10807TIP3    H153912   1.552   3.188   5.057 -0.0612  0.0584 -0.5225
10807TIP3    H253913   1.434   3.126   5.129  0.6827 -0.4592  0.2623
10808TIP3   OH253914   3.192   5.951  11.011 -0.0938 -0.1819 -0.1638
10808TIP3    H153915   3.162   6.034  11.047 -0.3078  0.4608 -1.7346
10808TIP3    H253916   3.134   5.934  10.936 -0.4421 -2.0534  0.4619
10809TIP3   OH253917   5.707   0.011  14.042 -0.0927  0.0730  0.0393
10809TIP3    H153918   5.689   0.104  14.035  1.3572  0.3219 -0.8817
10809TIP3    H253919   5.801   0.003  14.022  0.3036 -1.3424  2.1668
10810TIP3   OH253920   0.061   4.436  12.290  0.5500  0.2591 -1.0805
10810TIP3    H153921   0.027   4.428  12.379  0.1963 -0.8747 -1.3003
10810TIP3    H253922   0.093   4.348  12.269  2.5726  1.0088 -1.3091
10811TIP3   OH253923   4.904   1.435  14.227 -0.5995  0.5459 -0.3317
10811TIP3    H153924   4.931   1.352  14.188 -1.3359 -0.0218  0.3408
10811TIP3    H253925   4.860   1.482  14.156 -0.4075  0.2608 -0.6454
10812TIP3   OH253926   1.513   5.052   4.183  0.2066 -0.2337 -0.0629
10812TIP3    H153927   1.427   5.018   4.208  0.2940 -0.7290 -0.4229
10812TIP3    H253928   1.535   5.115   4.252  0.4715 -1.6190  1.1680
10813TIP3   OH253929   6.044   4.720   4.715  0.1496  0.1249  0.1185
10813TIP3    H153930   5.963   4.678   4.744 -0.5661  0.1977 -1.6149
10813TIP3    H253931   6.016   4.808   4.688  0.9652  0.4472  0.3099
10814TIP3   OH253932   1.784   3.191  13.659  0.0373  0.3183  0.3742
10814TIP3    H153933   1.875   3.205  13.686 -0.5421  1.5559  1.8036
10814TIP3    H253934   1.732   3.227  13.730 -1.5921  0.0012 -0.6069
10815TIP3   OH253935   4.998   1.570   3.454  0.1115 -0.0494 -0.6914
10815TIP3    H153936   5.079   1.518   3.453 -0.4535 -0.9699 -2.3182
10815TIP3    H253937   4.939   1.522   3.513  0.4080  0.0880 -0.2773
10816TIP3   OH253938   2.725   0.948   5.069 -0.4631  0.8992 -0.3048
10816TIP3    H153939   2.704   0.879   5.006  0.4418  1.3973 -1.1891
10816TIP3    H253940   2.719   0.906   5.155 -1.0294  0.0250 -0.7607
10817TIP3   OH253941   3.106   4.140  13.470 -0.0393  0.5575  0.1662
10817TIP3    H153942   3.068   4.077  13.531 -2.9356  2.6219  0.7041
10817TIP3    H253943   3.125   4.218  13.524  2.1754  0.7193 -0.7130
10818TIP3   OH253944   5.890   1.977  16.773  0.2270  0.0418  0.3086
10818TIP3    H153945   5.970   1.934  16.741  0.1776 -1.3089  1.8757
10818TIP3    H253946   5.833   1.904  16.798 -0.8898  1.0217  0.6533
10819TIP3   OH253947   2.170   5.311   3.148 -0.5339  0.1099  0.4282
10819TIP3    H153948   2.222   5.360   3.085  1.1374 -3.1400 -0.9738
10819TIP3    H253949   2.081   5.313   3.113 -0.9118  3.2078  1.2563
10820TIP3   OH253950   3.251   6.340  14.525  0.0781 -0.5629 -0.0103
10820TIP3    H153951   3.305   6.380  14.457 -0.0202 -1.5652 -0.6934
10820TIP3    H253952   3.270   6.391  14.604  0.7425  0.1543 -0.6177
10821TIP3   OH253953   2.636   4.143   2.770  0.0118  0.6038  0.1759
10821TIP3    H153954   2.594   4.126   2.854  1.5911  1.8844  1.2657
10821TIP3    H253955   2.724   4.107   2.778  0.2503  0.9049 -0.8579
10822TIP3   OH253956   1.007   6.147   1.826  0.4495  0.4049 -0.9138
10822TIP3    H153957   1.013   6.071   1.883 -1.0391  0.6467 -0.3921
10822TIP3    H253958   0.956   6.211   1.876 -2.7839 -0.1303 -3.2125
10823TIP3   OH253959   1.501   1.556  13.731 -0.1775 -0.2844  0.3126
10823TIP3    H153960   1.465   1.513  13.809  0.2743 -1.5326 -0.1460
10823TIP3    H253961   1.463   1.508  13.658  1.2540 -0.6494 -0.2053
10824TIP3   OH253962   3.907   5.096   2.054  0.6390  0.4026 -0.3173
10824TIP3    H153963   3.979   5.156   2.036  0.4669  0.4617 -0.8249
10824TIP3    H253964   3.906   5.036   1.980 -0.6424  1.1877 -0.9675
10825TIP3   OH253965   1.526   4.672   3.688 -0.3080  0.1366 -0.2312
10825TIP3    H153966   1.432   4.666   3.669  0.3473 -0.5410 -3.9870
10825TIP3    H253967   1.547   4.589   3.731 -0.8811 -1.2983 -2.5555
10826TIP3   OH253968   2.997   5.137  13.717 -0.3520  0.1394 -0.5176
10826TIP3    H153969   3.021   5.195  13.789 -0.4649 -0.8893  0.3803
10826TIP3    H253970   3.078   5.092  13.695 -0.6467 -0.6985  0.0578
10827TIP3   OH253971   2.325   0.933  12.328  0.6757 -0.1535  0.5709
10827TIP3    H153972   2.410   0.909  12.292 -0.2836 -0.5101 -1.5722
10827TIP3    H253973   2.336   1.023  12.358  1.5141  0.1679 -0.6535
10828TIP3   OH253974   2.283   3.083   3.646  0.4611 -0.2672 -0.3284
10828TIP3    H153975   2.234   3.023   3.701 -0.3859  1.0811  0.4496
10828TIP3    H253976   2.261   3.058   3.557 -0.7999 -0.3856 -0.0024
10829TIP3   OH253977   3.003   5.398  16.923 -0.4817  0.1418 -0.5595
10829TIP3    H153978   2.915   5.413  16.890 -0.7228 -0.7569 -0.3291
10829TIP3    H253979   3.007   5.448  17.004 -1.6227 -1.7917  0.7373
10830TIP3   OH253980   4.397   2.927  15.715 -0.2764 -0.1571  0.0165
10830TIP3    H153981   4.408   2.950  15.623 -2.1899 -0.5221 -0.3427
10830TIP3    H253982   4.393   2.831  15.716 -0.6762 -0.1408  0.4163
10831TIP3   OH253983   3.894   3.372   3.625 -0.0891  0.4088  0.1779
10831TIP3    H153984   3.846   3.435   3.571  1.8190  0.6606 -1.3311
10831TIP3    H253985   3.937   3.315   3.562  0.5254 -0.6301  1.4967
10832TIP3   OH253986   2.126   2.134  16.340 -0.7402 -0.6890  0.1501
10832TIP3    H153987   2.036   2.132  16.373 -0.7046 -0.2097  0.2836
10832TIP3    H253988   2.161   2.218  16.371 -1.4871  0.9721 -3.0545
10833TIP3   OH253989   1.942   6.580   1.232  0.1611  0.1632 -0.6356
10833TIP3    H153990   1.920   6.490   1.257 -0.4673  0.5986  0.3915
10833TIP3    H253991   1.867   6.632   1.258  1.7103  1.4585  1.5922
10834TIP3   OH253992   3.279   6.276  13.952  0.1021  0.1390  0.0183
10834TIP3    H153993   3.325   6.354  13.984  1.2697 -0.5834  0.1293
10834TIP3    H253994   3.245   6.234  14.031 -0.4464  0.4597 -0.0344
10835TIP3   OH253995   5.475   2.537  14.499 -0.2554 -0.3010  0.5304
10835TIP3    H153996   5.562   2.501  14.515 -0.3031 -0.5976  0.1475
10835TIP3    H253997   5.480   2.628  14.528  1.0275  0.5318 -2.0620
10836TIP3   OH253998   4.932   4.466  10.284 -0.0443 -0.0184 -0.0518
10836TIP3    H153999   4.850   4.503  10.317 -0.3774 -0.3233 -0.5194
10836TIP3    H254000   4.924   4.372  10.303 -0.7827 -0.4059 -2.0536
10837TIP3   OH254001   0.147   2.454   5.848 -0.2560  0.0898  0.1590
10837TIP3    H154002   0.189   2.539   5.864 -0.6683  0.4827 -0.7994
10837TIP3    H254003   0.159   2.406   5.930  0.8768  0.6913  0.3688
10838TIP3   OH254004   2.919   2.793  16.359  0.3058 -0.4155  0.0007
10838TIP3    H154005   2.860   2.727  16.323 -0.8615 -0.0992  1.2454
10838TIP3    H254006   2.886   2.876  16.323  0.2966 -0.2896  0.2952
10839TIP3   OH254007   6.074   4.787  16.818 -0.0809  0.7506  0.0341
10839TIP3    H154008   6.098   4.716  16.877 -2.2667 -0.4555 -0.4229
10839TIP3    H254009   6.119   4.864  16.854  1.8748 -0.6890  0.8782
10840TIP3   OH254010   2.105   6.706  13.937 -0.0086 -0.1201 -0.4912
10840TIP3    H154011   2.181   6.738  13.888  1.3470 -0.9132  0.9587
10840TIP3    H254012   2.066   6.785  13.975  0.2754  0.2749 -1.0147
10841TIP3   OH254013   1.971   0.466  14.243  0.1923 -0.8117 -0.1162
10841TIP3    H154014   1.901   0.530  14.255  0.3387 -0.6988  0.1723
10841TIP3    H254015   1.968   0.443  14.151  0.9531  0.5742 -0.5212
10842TIP3   OH254016   3.583   3.902  16.885  0.4910 -0.0988  0.3149
10842TIP3    H154017   3.603   3.823  16.835  0.1368 -0.0221  0.0454
10842TIP3    H254018   3.494   3.886  16.919 -0.4930  1.0890 -1.5626
10843TIP3   OH254019   3.632   4.458  12.581 -0.0626  0.1856  0.2624
10843TIP3    H154020   3.655   4.545  12.613  0.8691  1.3743 -3.2451
10843TIP3    H254021   3.539   4.450  12.601 -0.9456  3.3048 -1.7991
10844TIP3   OH254022   0.868   6.675  10.821 -0.7786  0.3049 -0.2023
10844TIP3    H154023   0.940   6.669  10.884  0.1161 -0.6599 -1.2697
10844TIP3    H254024   0.910   6.699  10.738 -1.8323  0.7693 -0.6186
10845TIP3   OH254025   1.989   2.474  16.665  0.3119 -0.7036 -0.4277
10845TIP3    H154026   2.043   2.487  16.743 -1.3148  0.3789  0.5979
10845TIP3    H254027   1.985   2.378  16.655  3.8643 -0.8709 -1.7116
10846TIP3   OH254028   1.345   3.299  15.658  0.8322 -0.3025 -0.1941
10846TIP3    H154029   1.328   3.210  15.628 -0.4604 -0.5730  1.2032
10846TIP3    H254030   1.337   3.352  15.579 -4.0384 -0.7875 -0.3734
10847TIP3   OH254031   6.186   4.882  12.542  0.2557 -0.2301  0.2524
10847TIP3    H154032   6.118   4.931  12.496  0.4797 -0.4041 -0.2694
10847TIP3    H254033   6.157   4.791  12.538  0.8384 -0.3941 -0.5650
10848TIP3   OH254034   3.169   6.025  12.669  0.5047  0.3307  0.6232
10848TIP3    H154035   3.126   6.047  12.751 -0.0496  0.3967  0.3163
10848TIP3    H254036   3.142   6.094  12.608  3.7443  2.3999  1.2729
10849TIP3   OH254037   4.732   6.493   5.400 -0.3451  0.2378  0.3266
10849TIP3    H154038   4.692   6.514   5.484 -0.5280 -0.6675  0.4776
10849TIP3    H254039   4.674   6.428   5.360 -2.0397  2.9367 -1.9860
10850TIP3   OH254040   5.005   1.458  16.160 -0.6983  0.5017  0.3367
10850TIP3    H154041   4.994   1.482  16.252  0.0302  0.4160  0.4537
10850TIP3    H254042   5.083   1.403  16.159 -1.8905 -1.2558 -0.0350
10851TIP3   OH254043   5.287   5.532   0.412 -0.2632 -0.2761 -0.0680
10851TIP3    H154044   5.363   5.531   0.469  1.0172  2.2137 -1.5463
10851TIP3    H254045   5.323   5.543   0.324 -2.2931  0.1724 -0.9110
10852TIP3   OH254046   0.108   1.618  14.158  0.2122 -0.5733 -0.3574
10852TIP3    H154047   0.202   1.630  14.172  0.1340 -0.8432  0.4477
10852TIP3    H254048   0.102   1.578  14.071  1.0164 -2.8867  0.5617
10853TIP3   OH254049   5.485   6.666   2.801 -0.8656 -0.1845  0.1366
10853TIP3    H154050   5.574   6.653   2.769 -0.4974  0.7786  0.7245
10853TIP3    H254051   5.461   6.583   2.842 -0.8621 -0.9950 -1.4358
10854TIP3   OH254052   0.607   3.798  12.020  0.1069  0.0567  0.1078
10854TIP3    H154053   0.650   3.786  12.106  3.7469  0.0823 -1.5081
10854TIP3    H254054   0.578   3.889  12.021  1.4687  0.5219  0.8173
10855TIP3   OH254055   4.556   5.045  16.057  0.3982  0.5587 -0.3183
10855TIP3    H154056   4.584   4.989  16.129 -1.0373  2.1613  1.6205
10855TIP3    H254057   4.634   5.094  16.033  1.0208 -0.3714 -0.2471
10856TIP3   OH254058   1.310   4.796   0.669 -0.6517  1.2579 -0.1440
10856TIP3    H154059   1.305   4.889   0.649  1.3692  1.5993  0.7051
10856TIP3    H254060   1.323   4.793   0.764 -0.0554  0.1409 -0.2487
10857TIP3   OH254061   5.018   2.616  14.468  0.1097  0.4013  0.3100
10857TIP3    H154062   5.077   2.559  14.418  1.5281  0.5261  1.7775
10857TIP3    H254063   5.027   2.702  14.426 -0.0812  0.1299 -0.3064
10858TIP3   OH254064   4.437   5.894  11.142 -0.0418 -0.3764  0.2304
10858TIP3    H154065   4.494   5.860  11.072  0.5580 -0.0346  0.5476
10858TIP3    H254066   4.369   5.941  11.095 -0.2701 -1.0805 -0.1720
10859TIP3   OH254067   4.223   0.476  14.092 -0.4000  0.1992  0.0988
10859TIP3    H154068   4.175   0.476  14.174  1.0776 -1.3307  1.0394
10859TIP3    H254069   4.265   0.562  14.088 -0.9441  0.4936  0.6653
10860TIP3   OH254070   6.402   0.237   3.755  0.0558  0.3306  0.2338
10860TIP3    H154071   6.385   0.252   3.662  0.9517  1.5611  0.2400
10860TIP3    H254072   6.374   0.318   3.797 -0.7657 -0.3841  1.1162
10861TIP3   OH254073   3.271   5.980   0.028  0.6949 -0.7167 -0.7789
10861TIP3    H154074   3.300   5.989   0.119  0.4129 -0.5280 -0.7051
10861TIP3    H254075   3.327   6.040  -0.021  0.5518 -0.4852 -0.6629
10862TIP3   OH254076   4.938   6.400  12.363  0.2279  0.0548  0.1022
10862TIP3    H154077   4.895   6.344  12.428  2.2752 -1.2995  0.3967
10862TIP3    H254078   4.896   6.377  12.280 -0.4579 -0.3184  0.5430
10863TIP3   OH254079   5.698   4.993   2.137 -0.2631 -0.0048  0.0181
10863TIP3    H154080   5.640   5.064   2.167  1.3140  1.1765  0.4269
10863TIP3    H254081   5.740   4.962   2.218  0.4447 -0.1024 -0.3807
10864TIP3   OH254082   4.331   4.949  14.827  0.0896  0.1850  0.7416
10864TIP3    H154083   4.255   4.893  14.847  0.1860  0.3385  1.5396
10864TIP3    H254084   4.310   5.033  14.867  0.0380  0.6821 -0.2854
10865TIP3   OH254085   6.199   6.218  11.874 -0.3283 -0.3985  0.1909
10865TIP3    H154086   6.275   6.218  11.817 -0.5593  0.2003 -0.1170
10865TIP3    H254087   6.148   6.141  11.847  0.8910 -1.7032  1.3976
10866TIP3   OH254088   4.311   0.695  16.043 -0.0010 -0.0381  0.3989
10866TIP3    H154089   4.365   0.774  16.032 -0.6019  0.1789 -1.4851
10866TIP3    H254090   4.233   0.712  15.989  0.2994 -2.3008 -0.8788
10867TIP3   OH254091   6.698   1.242  11.329 -0.5794 -0.0297 -0.1714
10867TIP3    H154092   6.748   1.315  11.365  0.8127 -0.8381 -0.3773
10867TIP3    H254093   6.749   1.213  11.253 -0.4975 -1.8870  0.5247
10868TIP3   OH254094   5.570   0.950   2.838 -0.1070  0.0476 -0.0313
10868TIP3    H154095   5.526   1.004   2.904  1.5185  0.7013  0.5699
10868TIP3    H254096   5.566   1.002   2.758  1.0136  0.8857  0.4253
10869TIP3   OH254097   1.027   6.115   2.876  0.2081  0.0885 -0.7654
10869TIP3    H154098   1.120   6.135   2.877  0.5622 -1.3136  0.9040
10869TIP3    H254099   0.987   6.183   2.931  0.3784  0.1491 -0.7170
10870TIP3   OH254100   5.811   3.947   5.253 -0.6970  0.0692 -0.0021
10870TIP3    H154101   5.835   3.863   5.214 -1.2115 -0.0737 -0.0191
10870TIP3    H254102   5.820   3.932   5.348 -0.2954  0.1521 -0.0245
10871TIP3   OH254103   4.883   4.079   3.082 -0.2721  0.6044 -0.0642
10871TIP3    H154104   4.865   4.172   3.096  1.4828  0.8808  0.4758
10871TIP3    H254105   4.821   4.054   3.013 -2.3491  1.5818  1.3384
10872TIP3   OH254106   6.528   0.930   2.513  0.0672  0.0654  0.1718
10872TIP3    H154107   6.438   0.900   2.525 -0.1624  1.4081  2.2918
10872TIP3    H254108   6.556   0.888   2.432 -2.7158  0.2296 -0.9972
10873TIP3   OH254109   0.315   2.808  13.908 -0.6039  0.6986 -0.3057
10873TIP3    H154110   0.374   2.848  13.971 -0.1855  0.0281 -0.2595
10873TIP3    H254111   0.230   2.807  13.951 -0.7894  2.2170 -0.6041
10874TIP3   OH254112   3.176   5.467  15.538 -0.2150 -0.4803 -0.1391
10874TIP3    H154113   3.122   5.535  15.497 -2.0276 -1.7693 -0.0230
10874TIP3    H254114   3.191   5.498  15.627 -0.0871  0.2585 -0.4113
10875TIP3   OH254115   0.225   1.793   1.863  0.3784  0.0626  0.3480
10875TIP3    H154116   0.281   1.804   1.940 -0.3179 -0.1381  0.8894
10875TIP3    H254117   0.287   1.790   1.790  1.2803 -2.4459  1.1236
10876TIP3   OH254118   3.917   6.742   0.862  0.0162  0.0946 -0.1922
10876TIP3    H154119   4.002   6.717   0.897 -0.9839 -2.1576  0.7872
10876TIP3    H254120   3.920   6.717   0.770  0.3568 -0.1042 -0.1259
10877TIP3   OH254121   1.356   1.242   0.318  0.0017 -0.0833  0.2657
10877TIP3    H154122   1.351   1.309   0.386 -0.7036 -0.7397  0.8948
10877TIP3    H254123   1.440   1.256   0.276  0.3707  0.4627  1.1536
10878TIP3   OH254124   1.589   6.422   0.105 -0.1622 -0.4298  0.3337
10878TIP3    H154125   1.513   6.364   0.094  0.8990 -1.4233 -2.4755
10878TIP3    H254126   1.553   6.510   0.095 -1.3908 -0.6522  2.2072
10879TIP3   OH254127   2.409   6.775  11.597  0.0400 -0.2518 -0.5713
10879TIP3    H154128   2.443   6.687  11.613 -1.0949 -0.5947  0.1325
10879TIP3    H254129   2.376   6.803  11.683  0.8270  1.0671 -0.6791
10880TIP3   OH254130   1.403   3.506   4.906 -0.0475  0.1055  0.3447
10880TIP3    H154131   1.406   3.591   4.951  0.6768  0.9801 -1.2579
10880TIP3    H254132   1.311   3.495   4.884  0.1523  1.7235 -1.5846
10881TIP3   OH254133   0.058   2.946  12.436 -0.4631 -0.1445 -0.5210
10881TIP3    H154134   0.152   2.941  12.452 -0.4761 -0.6489 -0.5938
10881TIP3    H254135   0.018   2.908  12.515 -0.7703  3.8504  1.5022
10882TIP3   OH254136   2.785   0.413   1.602  0.4641 -0.4844  0.1385
10882TIP3    H154137   2.708   0.447   1.648 -0.2135 -0.8434 -0.6902
10882TIP3    H254138   2.841   0.489   1.589 -0.7648  0.2540 -1.1875
10883TIP3   OH254139   2.313   1.904   6.461  0.3210 -0.1403 -0.8762
10883TIP3    H154140   2.402   1.901   6.495  0.1026 -1.3903 -0.3566
10883TIP3    H254141   2.313   1.841   6.388 -0.4813 -1.2252  0.0383
10884TIP3   OH254142   2.137   6.170  13.611 -0.4878  0.9332  0.2046
10884TIP3    H154143   2.224   6.197  13.640 -0.5839 -0.2008  1.6314
10884TIP3    H254144   2.154   6.096  13.552 -0.5275 -0.4108  1.8268
10885TIP3   OH254145   6.792   6.266  11.706  0.2233 -0.0346 -0.3802
10885TIP3    H154146   6.710   6.309  11.683 -0.0454 -0.2896  0.0677
10885TIP3    H254147   6.793   6.186  11.653  0.9481  0.7268 -1.5620
10886TIP3   OH254148   4.792   0.553   0.797  0.1783 -0.0975  0.0184
10886TIP3    H154149   4.765   0.461   0.793  1.8275 -0.7411  1.8420
10886TIP3    H254150   4.798   0.572   0.890 -1.5484  2.3742 -0.2920
10887TIP3   OH254151   3.534   5.343  12.135 -0.5980  0.3475 -0.2950
10887TIP3    H154152   3.438   5.347  12.126 -0.6585  1.6489  0.6592
10887TIP3    H254153   3.559   5.430  12.165  0.8297 -0.1610  0.0644
10888TIP3   OH254154   5.857   5.854   2.025 -0.5979  0.3189  0.3855
10888TIP3    H154155   5.936   5.820   1.983 -0.0306  0.6773  1.1406
10888TIP3    H254156   5.836   5.934   1.978  0.6276  1.2694  1.4008
10889TIP3   OH254157   1.560   3.956  11.168  0.3566  0.4161 -0.2435
10889TIP3    H154158   1.572   3.974  11.074  0.4042  1.3436 -0.0736
10889TIP3    H254159   1.466   3.954  11.181  0.3400  1.2246 -0.1600
10890TIP3   OH254160   5.957   1.863   0.532 -0.3095  0.2691  0.0564
10890TIP3    H154161   5.888   1.837   0.593  0.7224 -0.1991  1.0484
10890TIP3    H254162   5.975   1.784   0.482 -0.2462  0.2992  0.0323
10891TIP3   OH254163   6.024   5.762   3.715 -0.3424  0.5572  0.0971
10891TIP3    H154164   5.935   5.794   3.734  0.3569  1.7131  1.6332
10891TIP3    H254165   6.081   5.837   3.733  1.1515 -0.8207  1.3922
10892TIP3   OH254166   5.496   3.340   2.965 -0.6058  0.8588  0.7597
10892TIP3    H154167   5.532   3.332   3.054 -0.8074 -0.5812  0.7336
10892TIP3    H254168   5.565   3.385   2.916  0.0292  0.5721  1.3572
10893TIP3   OH254169   1.198   4.257   5.159 -0.2733 -0.3007  0.1288
10893TIP3    H154170   1.201   4.352   5.168  1.2921 -0.3712  0.7699
10893TIP3    H254171   1.125   4.230   5.215  0.5383  0.3967  1.5955
10894TIP3   OH254172   6.220   6.516   3.655 -0.3480 -0.5800  0.0082
10894TIP3    H154173   6.272   6.597   3.658 -1.6847  0.4108 -1.5840
10894TIP3    H254174   6.282   6.448   3.681  0.6980  0.9745  1.9204
10895TIP3   OH254175   3.188   6.712   0.120 -0.2121  0.1154 -0.6574
10895TIP3    H154176   3.109   6.742   0.165  0.1084 -1.4611  1.1357
10895TIP3    H254177   3.196   6.620   0.145  3.4319  0.7421  1.2276
10896TIP3   OH254178   0.424   2.084   1.883 -0.0225 -0.1841 -0.1366
10896TIP3    H154179   0.407   2.088   1.789  1.1156 -1.3708 -0.4245
10896TIP3    H254180   0.355   2.137   1.922 -0.5482  0.2867 -1.6334
10897TIP3   OH254181   2.108   1.321   4.397 -0.4280  0.0796  0.0324
10897TIP3    H154182   2.187   1.310   4.343 -2.6300 -2.3416 -3.0804
10897TIP3    H254183   2.073   1.406   4.371  0.5516  0.7093  0.6845
10898TIP3   OH254184   2.317   0.119   6.503  0.1171  0.1935  0.0966
10898TIP3    H154185   2.363   0.036   6.508 -2.4827 -1.3837 -0.3377
10898TIP3    H254186   2.263   0.113   6.425 -1.4236  1.5765  0.9788
10899TIP3   OH254187   5.339   1.840  16.840  0.2701  0.6328  0.2395
10899TIP3    H154188   5.318   1.933  16.844  0.4001  1.0330 -4.0127
10899TIP3    H254189   5.430   1.837  16.813 -0.0338 -0.6673 -0.7539
10900TIP3   OH254190   5.879   0.733   2.220  0.2243 -0.2390 -0.1035
10900TIP3    H154191   5.853   0.734   2.312  1.7074  1.2568  0.3502
10900TIP3    H254192   5.966   0.693   2.220  1.4481  2.2752 -0.4303
10901TIP3   OH254193   0.389   4.796   3.273 -0.3364  0.0244  0.5055
10901TIP3    H154194   0.418   4.854   3.203 -0.7128 -0.5465 -0.1354
10901TIP3    H254195   0.414   4.842   3.354  1.6449 -0.0915  0.0081
10902TIP3   OH254196   1.591   1.128   4.941 -0.4801 -0.0222 -0.0412
10902TIP3    H154197   1.578   1.099   5.031 -1.5192 -0.1852 -0.2214
10902TIP3    H254198   1.678   1.166   4.940 -0.8105  0.8396  1.2669
10903TIP3   OH254199   2.655   5.227  13.823  0.1238  0.2786 -0.0689
10903TIP3    H154200   2.589   5.183  13.771  0.5611 -0.7329  0.2166
10903TIP3    H254201   2.649   5.319  13.797 -2.6201  0.5621  1.2468
10904TIP3   OH254202   6.526   2.078  14.533  0.7566 -0.6911  0.4201
10904TIP3    H154203   6.560   1.989  14.538 -1.3719 -1.5557  0.6080
10904TIP3    H254204   6.513   2.093  14.439  2.8407  0.1922  0.2065
10905TIP3   OH254205   1.059   4.062  14.728  0.1468  0.5243  0.1062
10905TIP3    H154206   1.052   4.097  14.816 -0.3304 -0.3976  0.4509
10905TIP3    H254207   0.989   4.106  14.679 -0.5255 -0.0046  0.5634
10906TIP3   OH254208   1.091   4.425   1.630  0.3174 -0.2329  0.4933
10906TIP3    H154209   1.035   4.417   1.707 -0.7833 -2.8313 -0.4719
10906TIP3    H254210   1.037   4.472   1.566  0.3239 -0.2058  0.5077
10907TIP3   OH254211   6.556   6.702  12.268  0.1187 -0.0432  0.8313
10907TIP3    H154212   6.618   6.733  12.202 -0.6176  0.9697  0.5987
10907TIP3    H254213   6.577   6.609  12.279  1.7693  0.3036  0.8720
10908TIP3   OH254214   2.951   4.244  12.488  0.4280 -0.2344  0.1899
10908TIP3    H154215   2.876   4.186  12.475 -2.3327  2.8485  0.8478
10908TIP3    H254216   2.932   4.289  12.570  1.9762  2.0673 -0.6158
10909TIP3   OH254217   3.713   1.988   2.266  0.0790 -0.0832 -0.5368
10909TIP3    H154218   3.667   2.034   2.196  1.4939  0.1741 -1.3445
10909TIP3    H254219   3.662   2.007   2.345 -0.0083  1.9703 -1.0250
10910TIP3   OH254220   0.345   4.848  13.974  0.1531  0.2631  0.2266
10910TIP3    H154221   0.306   4.925  14.016 -0.8282 -0.0389 -0.1124
10910TIP3    H254222   0.427   4.835  14.021  0.2604  1.4277  0.3859
10911TIP3   OH254223   2.992   2.467   2.010  0.5099  0.2594 -0.5770
10911TIP3    H154224   2.995   2.374   2.033  0.1961  0.3880  0.0025
10911TIP3    H254225   3.036   2.472   1.925  0.2472 -0.4654 -0.7667
10912TIP3   OH254226   2.559   5.923   3.191  0.0517 -0.0292  0.1550
10912TIP3    H154227   2.520   6.008   3.206  1.9236  0.9477 -0.1979
10912TIP3    H254228   2.555   5.879   3.276 -0.9082  0.4143  0.3398
10913TIP3   OH254229   0.195   6.142  14.787  0.0033 -0.2671 -0.7827
10913TIP3    H154230   0.180   6.086  14.863 -1.4440  0.1180 -0.7537
10913TIP3    H254231   0.116   6.132  14.734 -0.7192  2.3598 -0.3585
10914TIP3   OH254232   3.666   6.292   1.965  0.5643 -0.0476  1.1029
10914TIP3    H154233   3.753   6.325   1.988  0.4013 -0.0495  1.7496
10914TIP3    H254234   3.680   6.237   1.888  0.9133  1.1615  0.2641
10915TIP3   OH254235   4.248   2.407  14.919  0.3233 -0.6173 -0.4610
10915TIP3    H154236   4.172   2.419  14.862  0.2954  1.6601 -0.0434
10915TIP3    H254237   4.311   2.359  14.866  0.0644  0.8612 -2.2284
10916TIP3   OH254238   5.746   0.657   4.829  0.3848 -0.0469  0.2412
10916TIP3    H154239   5.684   0.646   4.901 -0.9018  1.1229 -0.6451
10916TIP3    H254240   5.750   0.752   4.816  0.7746 -0.2308 -1.0829
10917TIP3   OH254241   0.274   6.404  15.681  0.3477 -0.0286 -0.5226
10917TIP3    H154242   0.314   6.461  15.747  0.3959 -0.7782  0.1135
10917TIP3    H254243   0.266   6.459  15.604  0.6750  0.7507 -0.0166
10918TIP3   OH254244   1.442   1.071   4.710  0.5922 -0.1315  0.1918
10918TIP3    H154245   1.510   1.084   4.643 -0.4000  0.3342 -0.7650
10918TIP3    H254246   1.489   1.076   4.793  2.2398 -2.8490 -0.4391
10919TIP3   OH254247   1.021   5.652   5.196  0.1358 -0.0025  0.0993
10919TIP3    H154248   1.052   5.648   5.287  1.5987  1.7324 -0.2632
10919TIP3    H254249   1.089   5.607   5.145  0.0951  0.3927 -0.3070
10920TIP3   OH254250   6.027   0.201  12.885 -0.0196  0.2975 -0.9674
10920TIP3    H154251   6.065   0.136  12.826 -1.1553  0.2298 -1.6451
10920TIP3    H254252   6.036   0.161  12.972 -1.4167 -1.1775 -1.4407
10921TIP3   OH254253   5.504   3.230  12.727 -0.3385  0.3134  0.1151
10921TIP3    H154254   5.435   3.169  12.750 -0.2921 -0.0781 -0.7559
10921TIP3    H254255   5.464   3.316  12.737 -0.8775  0.0971 -0.1313
10922TIP3   OH254256   0.776   5.061  12.261 -0.3180 -0.0274 -0.2972
10922TIP3    H154257   0.803   5.150  12.237 -1.7587  1.7981  3.8639
10922TIP3    H254258   0.829   5.040  12.338 -2.6645 -1.0553  1.1612
10923TIP3   OH254259   3.345   1.178  15.139 -0.6430  0.1236  0.1037
10923TIP3    H154260   3.326   1.146  15.227 -0.6664 -1.1307 -0.3457
10923TIP3    H254261   3.338   1.101  15.083 -0.8585  0.9489 -1.0380
10924TIP3   OH254262   3.273   0.964  11.752 -0.5168 -0.2021 -0.0642
10924TIP3    H154263   3.272   0.869  11.738 -0.5163 -0.0400 -1.2335
10924TIP3    H254264   3.328   0.998  11.682 -1.3709  0.7544 -0.3008
10925TIP3   OH254265   0.556   4.231   5.883  0.6133 -0.2682  0.2395
10925TIP3    H154266   0.649   4.242   5.904  0.2173  1.3744  1.2794
10925TIP3    H254267   0.518   4.191   5.961  0.0477  1.2021  0.7455
10926TIP3   OH254268   5.784   5.500   1.823  0.2735  0.4187 -0.4535
10926TIP3    H154269   5.779   5.536   1.912  1.3677  2.2097 -1.0574
10926TIP3    H254270   5.774   5.576   1.766 -0.7023 -0.7346 -1.8955
10927TIP3   OH254271   1.567   3.205  16.320  0.5190 -0.2086  0.1382
10927TIP3    H154272   1.638   3.144  16.300  0.5847 -0.3027  0.6594
10927TIP3    H254273   1.512   3.203  16.241  1.8258  0.9383 -0.8649
10928TIP3   OH254274   3.893   4.923  12.640 -0.2415 -0.1960 -0.5169
10928TIP3    H154275   3.957   4.984  12.675 -0.1258 -0.2622 -0.6131
10928TIP3    H254276   3.829   4.912  12.711 -0.3706  0.1886 -0.5730
10929TIP3   OH254277   4.952   1.784   0.654  0.0908 -0.0361 -0.3219
10929TIP3    H154278   4.888   1.715   0.669  2.2058 -2.1132 -0.3236
10929TIP3    H254279   4.907   1.846   0.596 -1.7350 -1.6273 -0.7117
10930TIP3   OH254280   5.587   0.196   0.854  0.0224  0.2408 -0.2252
10930TIP3    H154281   5.607   0.209   0.947 -2.9677 -0.7115  0.6681
10930TIP3    H254282   5.651   0.132   0.824  1.9976  1.6828  0.7251
10931TIP3   OH254283   4.036   0.457  16.394 -0.0271  0.2054 -0.5478
10931TIP3    H154284   4.050   0.368  16.427 -1.7165  0.4598  1.1088
10931TIP3    H254285   3.985   0.446  16.314  1.8154 -0.3607 -1.6767
10932TIP3   OH254286   3.166   4.294   5.962  0.3821 -0.7499 -0.4169
10932TIP3    H154287   3.162   4.244   6.043  1.6003 -0.7107 -0.3202
10932TIP3    H254288   3.241   4.352   5.972 -1.9241  2.4456  0.1965
10933TIP3   OH254289   5.062   6.544   4.052 -0.0746  0.4305 -0.0663
10933TIP3    H154290   5.149   6.579   4.032 -0.0325  0.4900  0.2261
10933TIP3    H254291   5.011   6.620   4.080 -0.2235  0.3971 -0.2381
10934TIP3   OH254292   5.143   3.411   2.045  0.2231  0.9312  0.5250
10934TIP3    H154293   5.143   3.329   2.095  0.3625  0.0887 -0.8100
10934TIP3    H254294   5.050   3.426   2.025  0.2054  1.0577  0.6999
10935TIP3   OH254295   5.645   6.739  11.256 -0.3196 -0.0270 -0.4511
10935TIP3    H154296   5.574   6.803  11.249 -0.3399  0.0231  0.1914
10935TIP3    H254297   5.675   6.727  11.166 -1.6627 -0.6361 -0.8494
10936TIP3   OH254298   3.054   4.343   5.176 -0.2015 -0.0924 -0.2387
10936TIP3    H154299   2.969   4.317   5.140 -0.7010  0.6826  0.3548
10936TIP3    H254300   3.109   4.265   5.167 -0.9178 -0.5384 -0.8054
10937TIP3   OH254301   2.622   1.416  15.006 -0.0713 -0.1787 -0.5508
10937TIP3    H154302   2.572   1.493  15.031 -0.0509  0.0644 -1.2185
10937TIP3    H254303   2.711   1.433  15.039  0.1546  0.5043 -1.4662
10938TIP3   OH254304   2.631   5.389   1.779  0.4679  0.2339  0.2714
10938TIP3    H154305   2.618   5.366   1.687  0.6528  1.3001 -0.0299
10938TIP3    H254306   2.614   5.483   1.783 -0.9944 -0.0359  1.6102
10939TIP3   OH254307   3.581   6.445   0.468  0.0975  0.3389 -0.4881
10939TIP3    H154308   3.519   6.425   0.398 -2.1364 -0.9601  1.6863
10939TIP3    H254309   3.645   6.375   0.464 -1.3479 -1.0703  0.1526
10940TIP3   OH254310   2.852   6.568  14.389  0.3575 -0.7134  0.1106
10940TIP3    H154311   2.905   6.511  14.334  0.0815 -1.0853  0.2192
10940TIP3    H254312   2.782   6.599  14.331  0.7592 -0.1233 -0.0655
10941TIP3   OH254313   2.294   1.468   4.641 -0.3395 -0.1982 -0.4728
10941TIP3    H154314   2.321   1.552   4.605 -0.1777  0.1622  0.4587
10941TIP3    H254315   2.344   1.403   4.592  0.6489  0.3369 -0.1814
10942TIP3   OH254316   6.156   0.001  16.861 -0.2107  0.2177 -0.2288
10942TIP3    H154317   6.104   0.031  16.935 -0.2633  0.6087 -0.4184
10942TIP3    H254318   6.235  -0.036  16.899  0.4509  1.7678 -0.0273
10943TIP3   OH254319   1.762   5.278  17.058  0.2612  0.3240 -0.6929
10943TIP3    H154320   1.767   5.192  17.016 -2.0128 -0.6545  0.8707
10943TIP3    H254321   1.684   5.318  17.021 -1.7977 -0.5494  2.3553
10944TIP3   OH254322   4.325   1.985  13.747  0.0996 -0.2904 -0.1782
10944TIP3    H154323   4.296   2.064  13.793 -2.0076 -0.9513 -0.2698
10944TIP3    H254324   4.365   2.017  13.666  1.8731  0.7727  1.0435
10945TIP3   OH254325   3.488   3.792   5.078  0.0285 -0.1259  0.2509
10945TIP3    H154326   3.462   3.714   5.127 -4.3732  1.0619  0.2934
10945TIP3    H254327   3.550   3.837   5.134  0.6157 -2.2458  1.4158
10946TIP3   OH254328   4.649   6.193   2.221 -0.2883  0.0941  0.0330
10946TIP3    H154329   4.621   6.130   2.154 -0.0652  1.6847 -1.6259
10946TIP3    H254330   4.593   6.269   2.207 -0.0580  0.5644  1.5284
10947TIP3   OH254331   0.389   0.571   5.482 -0.1235 -0.1263  0.4252
10947TIP3    H154332   0.445   0.521   5.540  1.4957  1.0252 -0.0603
10947TIP3    H254333   0.323   0.610   5.539 -0.4783 -1.5452  1.0070
10948TIP3   OH254334   1.985   2.745   1.033  0.1529  0.0822  0.8564
10948TIP3    H154335   2.027   2.669   1.073  2.3871 -1.5540 -3.9462
10948TIP3    H254336   1.909   2.709   0.987  1.0561  0.7356 -1.2332
10949TIP3   OH254337   6.563   5.815  13.043  0.5189 -0.2965  0.0707
10949TIP3    H154338   6.568   5.901  13.083  0.9353  0.1415 -0.8977
10949TIP3    H254339   6.540   5.832  12.951 -1.4794 -1.3185  0.3113
10950TIP3   OH254340   2.678   6.354  12.844  0.1185  0.3831 -0.6152
10950TIP3    H154341   2.600   6.361  12.790 -0.4073 -0.8335 -0.0381
10950TIP3    H254342   2.748   6.394  12.791 -0.6656  0.5180 -1.5692
10951TIP3   OH254343   5.410   3.736   4.922  0.2667 -0.4284 -0.0602
10951TIP3    H154344   5.399   3.807   4.859 -0.5770  0.1762  0.7499
10951TIP3    H254345   5.474   3.770   4.985 -0.0467 -0.4256  0.2611
10952TIP3   OH254346   1.254   2.756  12.059  0.0003  0.2171 -0.9522
10952TIP3    H154347   1.317   2.783  11.993 -0.2447 -1.1350 -1.7959
10952TIP3    H254348   1.171   2.748  12.012 -0.5893  0.9599 -0.0848
10953TIP3   OH254349   6.224   2.572  17.277 -0.5835  0.3006 -0.4544
10953TIP3    H154350   6.233   2.589  17.184  0.4532 -0.6185 -0.5386
10953TIP3    H254351   6.136   2.535  17.286 -0.1320 -1.0837 -1.3273
10954TIP3   OH254352   2.421   4.028  16.197 -0.1291 -0.7457  0.1500
10954TIP3    H154353   2.389   4.071  16.276  1.6159 -0.9864  1.0364
10954TIP3    H254354   2.514   4.050  16.194 -0.1876 -0.6107 -1.9430
10955TIP3   OH254355   4.223   1.209  12.417  0.4999  0.1095 -0.3684
10955TIP3    H154356   4.137   1.220  12.376  0.2508 -0.0852  0.0882
10955TIP3    H254357   4.279   1.274  12.375  0.0011  0.5725 -0.3179
10956TIP3   OH254358   1.417   6.104  13.832 -0.6117  0.8763  0.2638
10956TIP3    H154359   1.356   6.096  13.905 -0.1908 -0.7903  0.4911
10956TIP3    H254360   1.496   6.142  13.870 -0.2476 -0.3665  0.8199
10957TIP3   OH254361   0.035   6.303  11.076 -0.1769 -0.1418 -0.2457
10957TIP3    H154362  -0.021   6.380  11.088 -0.7267 -0.3637 -1.3013
10957TIP3    H254363   0.002   6.261  10.997 -0.0776 -1.6510  0.4843
10958TIP3   OH254364   6.638   6.461  15.728  0.1862 -0.1692  0.5629
10958TIP3    H154365   6.716   6.494  15.685 -0.9722  0.7653 -0.9354
10958TIP3    H254366   6.596   6.539  15.764  0.2046 -0.7278  1.8563
10959TIP3   OH254367   6.474   4.375   5.717  0.1260  0.6304  0.0274
10959TIP3    H154368   6.443   4.345   5.802  2.1171 -0.6298  0.3885
10959TIP3    H254369   6.501   4.466   5.732 -1.6078  1.1652  0.1196
10960TIP3   OH254370   5.761   2.220   5.458  0.0336  0.1289  0.3674
10960TIP3    H154371   5.786   2.128   5.455 -0.7516 -0.1068  0.7039
10960TIP3    H254372   5.673   2.222   5.421 -0.2566  0.6333  1.0562
10961TIP3   OH254373   2.574   6.763  13.621  0.0490  0.2568  0.6069
10961TIP3    H154374   2.591   6.825  13.692 -0.1649  0.8157  0.1717
10961TIP3    H254375   2.573   6.677  13.664  0.3860  0.5463  1.2049
10962TIP3   OH254376   4.507   1.782   4.778 -0.0623  0.6985  0.0153
10962TIP3    H154377   4.482   1.710   4.835  0.7353  0.5957  0.2466
10962TIP3    H254378   4.433   1.792   4.718 -0.0157 -0.5812 -0.2772
10963TIP3   OH254379   2.467   0.441  11.635  0.3250 -0.1682 -0.1955
10963TIP3    H154380   2.537   0.376  11.642  0.6270  0.0514 -1.1099
10963TIP3    H254381   2.498   0.503  11.569 -0.3819  0.3805 -0.0260
10964TIP3   OH254382   4.108   5.116  15.239 -0.0997  0.1214 -0.0044
10964TIP3    H154383   4.054   5.044  15.272 -0.7614  0.2714 -0.7360
10964TIP3    H254384   4.109   5.105  15.144  0.8357  0.3598 -0.0408
10965TIP3   OH254385   5.095   5.943  15.575  0.1108 -0.1870  0.2156
10965TIP3    H154386   5.090   5.999  15.652 -0.0744  0.3010 -0.1485
10965TIP3    H254387   5.006   5.909  15.564  0.1583 -0.3302  0.2705
10966TIP3   OH254388   6.190   4.248   2.566  0.7020  0.0723  0.1795
10966TIP3    H154389   6.277   4.257   2.606  0.4283  1.2350  0.5630
10966TIP3    H254390   6.152   4.171   2.606  1.9284 -1.0338 -0.7052
10967TIP3   OH254391   5.449   3.993  11.595  0.0709  0.0787  0.0574
10967TIP3    H154392   5.445   4.081  11.557 -0.4325 -0.7150 -1.8596
10967TIP3    H254393   5.379   3.945  11.550  0.9372 -1.5469  0.3818
10968TIP3   OH254394   0.307   4.434  14.648 -0.5781  0.2664  0.5379
10968TIP3    H154395   0.363   4.494  14.697  0.1324  0.3412 -0.3370
10968TIP3    H254396   0.349   4.348  14.660 -0.1873  0.3443 -0.2335
10969TIP3   OH254397   6.319   1.289   3.025 -0.3270  0.2489  0.0629
10969TIP3    H154398   6.286   1.335   3.102  0.6791  1.2961 -0.0936
10969TIP3    H254399   6.311   1.196   3.046 -0.7344  0.5179  1.1293
10970TIP3   OH254400   1.125   0.503  13.859  0.4815  0.2654 -0.4418
10970TIP3    H154401   1.200   0.547  13.900  1.1204  0.5776 -1.8756
10970TIP3    H254402   1.061   0.494  13.930  1.3089  1.2905  0.4828
10971TIP3   OH254403   2.812   5.661   1.766 -0.1297  0.2934  0.0833
10971TIP3    H154404   2.834   5.754   1.775  0.0290  0.0858  2.6276
10971TIP3    H254405   2.720   5.661   1.740 -0.7002  1.2395  1.9120
10972TIP3   OH254406   5.439   2.325   3.833 -0.1531 -0.1524 -0.2108
10972TIP3    H154407   5.419   2.283   3.749 -1.0245  0.0612 -0.1229
10972TIP3    H254408   5.518   2.280   3.864 -0.7696 -1.4005 -0.3561
10973TIP3   OH254409   0.268   5.060   1.148  0.2523  0.1361  0.0575
10973TIP3    H154410   0.181   5.055   1.189 -0.0183  1.6893 -0.2826
10973TIP3    H254411   0.307   5.139   1.184  1.6905 -0.7160  0.4507
10974TIP3   OH254412   4.284   5.960  14.511  0.2142  0.4846  0.3239
10974TIP3    H154413   4.199   5.943  14.471  0.4733  1.9033 -0.9003
10974TIP3    H254414   4.262   5.994  14.598 -0.5422  1.8979 -0.3784
10975TIP3   OH254415   1.622   4.320  12.112 -0.4092 -0.1648  0.3406
10975TIP3    H154416   1.596   4.234  12.146  0.1408 -0.3020  0.4180
10975TIP3    H254417   1.586   4.382  12.176  0.6952 -0.4267  1.2410
10976TIP3   OH254418   1.659   4.756  15.027 -0.2258 -0.2309  0.9739
10976TIP3    H154419   1.587   4.753  15.091 -0.7466  1.0722  0.4702
10976TIP3    H254420   1.623   4.806  14.953  0.8766 -0.4212  0.2954
10977TIP3   OH254421   3.115   4.792  11.480 -0.3915 -0.0703 -0.1261
10977TIP3    H154422   3.175   4.855  11.521 -2.0444  0.9045  0.8871
10977TIP3    H254423   3.158   4.770  11.397  0.9958  1.1868  0.2027
10978TIP3   OH254424   4.714   1.800  14.300  0.2586 -0.2057  0.2319
10978TIP3    H154425   4.799   1.798  14.343 -0.5791  0.6794  2.0177
10978TIP3    H254426   4.705   1.889  14.268  0.6062 -0.6912 -1.3477
10979TIP3   OH254427   3.464   5.396  14.108  0.1719  0.2949 -0.1435
10979TIP3    H154428   3.549   5.436  14.128 -0.1890  1.7715 -1.3451
10979TIP3    H254429   3.476   5.303  14.128  1.8658  0.5704  0.3088
10980TIP3   OH254430   4.849   1.828  13.087  0.9313  0.3573 -0.1278
10980TIP3    H154431   4.787   1.902  13.080  0.3532  0.1497  2.1550
10980TIP3    H254432   4.905   1.851  13.160 -0.3636 -2.1836  1.8165
10981TIP3   OH254433   3.599   5.897  16.889 -0.6147 -0.3453 -0.7288
10981TIP3    H154434   3.668   5.934  16.834  0.4022 -0.9621  0.0976
10981TIP3    H254435   3.553   5.835  16.832 -0.2008 -0.2555 -1.1611
10982TIP3   OH254436   4.242   0.938   2.957 -0.1262 -0.3004  0.2887
10982TIP3    H154437   4.237   0.944   2.862  1.8488  0.4696  0.1765
10982TIP3    H254438   4.298   0.863   2.974  0.4431  0.2174  0.7798
10983TIP3   OH254439   2.416   5.180   5.148  0.3043 -0.3091 -0.7310
10983TIP3    H154440   2.433   5.105   5.205 -0.2028 -0.1397 -0.3483
10983TIP3    H254441   2.456   5.156   5.065  2.8770  0.2828  0.2496
10984TIP3   OH254442   0.479   2.438  15.423  0.1071 -0.1953 -0.3476
10984TIP3    H154443   0.574   2.440  15.412  0.0221  0.4246 -1.0374
10984TIP3    H254444   0.464   2.475  15.510  0.4681  0.2758 -0.4819
10985TIP3   OH254445   4.724   0.396   5.081  0.1819 -0.1418  0.1628
10985TIP3    H154446   4.776   0.466   5.043 -0.2028  0.8312  1.3583
10985TIP3    H254447   4.778   0.317   5.070  1.1437  0.5456 -0.1556
10986TIP3   OH254448   3.318   0.136  11.980 -0.5771  0.4131 -0.4919
10986TIP3    H154449   3.263   0.202  12.023  1.2518  1.3330  0.5981
10986TIP3    H254450   3.407   0.157  12.009  0.1443 -2.2521 -0.5130
10987TIP3   OH254451   3.278   1.608  13.025  0.0816  0.2303 -0.3853
10987TIP3    H154452   3.218   1.570  12.961 -0.3920  0.6004 -0.1634
10987TIP3    H254453   3.329   1.672  12.975  0.6923 -0.4745 -0.6974
10988TIP3   OH254454   3.999   6.024  15.628 -0.6390  0.0368  0.0197
10988TIP3    H154455   4.032   5.972  15.555 -2.5428  1.1479 -1.7084
10988TIP3    H254456   3.979   5.959  15.696  0.9125 -1.0352 -0.4863
10989TIP3   OH254457   3.090   4.120   2.308 -0.4055  0.2373  0.2646
10989TIP3    H154458   3.000   4.150   2.314 -0.4011  0.9274 -2.1282
10989TIP3    H254459   3.122   4.156   2.225  2.1052  0.0836  1.0730
10990TIP3   OH254460   3.155   5.667  14.323 -0.0167  0.4800 -0.1328
10990TIP3    H154461   3.157   5.697  14.414  1.0739  2.1437 -0.6602
10990TIP3    H254462   3.063   5.651  14.305 -0.1962 -0.4235  1.4158
10991TIP3   OH254463   5.912   6.528  14.156 -0.7151 -0.6011  0.3946
10991TIP3    H154464   5.961   6.449  14.179 -0.6606 -1.2619 -1.7788
10991TIP3    H254465   5.843   6.498  14.098 -1.8456  0.7365  0.9731
10992TIP3   OH254466   4.821   3.328   0.083 -0.5834  0.0179  0.4038
10992TIP3    H154467   4.788   3.262   0.143  0.6138 -0.9629  0.0338
10992TIP3    H254468   4.916   3.324   0.092 -0.4862  2.0334  0.7034
10993TIP3   OH254469   3.729   6.458   5.712  0.1114 -0.5421  0.3015
10993TIP3    H154470   3.678   6.425   5.786 -2.1605 -0.6573 -1.1948
10993TIP3    H254471   3.774   6.535   5.746 -1.9784  0.2380  1.5211
10994TIP3   OH254472   4.356   1.494  13.841  0.0396  0.3763  0.5810
10994TIP3    H154473   4.321   1.576  13.806  0.5291  0.7882  1.0271
10994TIP3    H254474   4.432   1.475  13.786 -1.2355 -0.8745 -0.8162
10995TIP3   OH254475   3.734   5.819   1.257  0.0364 -0.2760 -0.2799
10995TIP3    H154476   3.714   5.822   1.163 -0.2063  0.2979 -0.2138
10995TIP3    H254477   3.813   5.764   1.262  1.0855  1.0787 -1.0111
10996TIP3   OH254478   5.811   4.509  16.626 -0.3118 -0.5806 -0.3178
10996TIP3    H154479   5.749   4.576  16.595 -0.9003 -0.2357  1.4683
10996TIP3    H254480   5.897   4.543  16.602 -0.6934  0.0401 -0.8427
10997TIP3   OH254481   4.024   3.142   0.828  0.5488  0.0650 -0.1262
10997TIP3    H154482   4.057   3.202   0.761  1.2434  2.7225  2.4010
10997TIP3    H254483   3.942   3.182   0.857  1.5626  0.5068  2.3672
10998TIP3   OH254484   6.638   4.664  11.948  0.2525 -0.9856  0.0538
10998TIP3    H154485   6.655   4.650  12.041  0.0187 -0.9661  0.1006
10998TIP3    H254486   6.716   4.629  11.904  0.7485 -0.2096  0.2982
10999TIP3   OH254487   1.927   5.025  12.939 -0.1659  0.1550 -0.0524
10999TIP3    H154488   1.969   5.000  12.857 -2.2013 -2.0241 -0.5569
10999TIP3    H254489   1.852   5.078  12.913  0.8394  1.9928  0.6603
11000TIP3   OH254490   2.245   2.806  16.125 -0.3092  0.2350  0.2981
11000TIP3    H154491   2.174   2.742  16.120 -1.6964  1.3706  3.2642
11000TIP3    H254492   2.200   2.890  16.139  1.5488  1.4675 -0.7732
11001TIP3   OH254493   2.768   1.212   4.662 -0.5524 -0.2228 -0.2067
11001TIP3    H154494   2.793   1.164   4.584  0.8511  1.8873 -1.1574
11001TIP3    H254495   2.847   1.212   4.717 -0.5190  0.8873 -0.2167
11002TIP3   OH254496   3.266   1.517   1.040 -0.1179 -0.4249 -0.3849
11002TIP3    H154497   3.194   1.457   1.056 -1.3065  0.2190 -2.8994
11002TIP3    H254498   3.340   1.461   1.019  0.1373 -1.0777  1.9299
11003TIP3   OH254499   2.427   5.482  13.384  0.4654 -0.0136 -0.5824
11003TIP3    H154500   2.472   5.408  13.343 -1.9246 -2.8280  1.4354
11003TIP3    H254501   2.490   5.553  13.382  2.7963 -1.9507 -3.0126
11004TIP3   OH254502   4.440   0.150  12.971  0.8180 -0.3793  0.6370
11004TIP3    H154503   4.503   0.097  12.923  1.9410  1.0896  0.4096
11004TIP3    H254504   4.467   0.240  12.955 -2.3278  0.4479 -0.8524
11005TIP3   OH254505   5.466   5.671   2.591 -0.5068  0.5669 -0.5015
11005TIP3    H154506   5.441   5.708   2.506 -2.7834 -1.0238 -0.6014
11005TIP3    H254507   5.383   5.658   2.636  0.5530 -0.1786  1.3112
11006TIP3   OH254508   3.784   4.965   5.106  0.7512  0.4119  0.2785
11006TIP3    H154509   3.698   4.927   5.085  0.3335  1.2747  0.3780
11006TIP3    H254510   3.847   4.897   5.082  0.1750  0.5434 -1.8051
11007TIP3   OH254511   1.078   3.899   6.229 -0.6365 -0.0812 -0.5275
11007TIP3    H154512   1.055   3.965   6.295  1.2893  0.2864 -0.1614
11007TIP3    H254513   1.169   3.877   6.248 -1.1338 -2.6932 -0.8094
11008TIP3   OH254514   5.086   4.997  11.647 -0.1503  0.0829 -0.0976
11008TIP3    H154515   5.075   5.077  11.595 -0.4909 -0.8332 -1.4918
11008TIP3    H254516   5.085   5.027  11.738 -1.4649  1.5418 -0.5472
11009TIP3   OH254517   3.456   5.056   3.428  0.2586 -0.0445  0.8430
11009TIP3    H154518   3.457   5.041   3.523  0.3591 -1.4396  0.6509
11009TIP3    H254519   3.547   5.078   3.406  0.1230  0.8371  1.1396
11010TIP3   OH254520   4.771   5.316   4.415 -0.2354  0.4881  0.4174
11010TIP3    H154521   4.813   5.232   4.436 -0.4770  0.0861 -0.6054
11010TIP3    H254522   4.705   5.328   4.483 -1.3912 -1.0374 -0.3580
11011TIP3   OH254523   1.250   0.947  10.868  0.1564  0.3826 -0.5691
11011TIP3    H154524   1.328   0.941  10.923 -0.1831  0.0705 -0.1132
11011TIP3    H254525   1.278   0.997  10.792  1.1742 -0.8793 -1.0554
11012TIP3   OH254526   3.407   5.849  13.535 -0.3788 -0.2905 -0.2710
11012TIP3    H154527   3.428   5.882  13.447  2.8095 -0.3660  0.3406
11012TIP3    H254528   3.408   5.754  13.525  1.3228 -0.3423  0.0204
11013TIP3   OH254529   4.017   3.758   0.862 -0.1822  0.3003 -0.1213
11013TIP3    H154530   3.963   3.678   0.859  0.7161 -0.2997 -2.6372
11013TIP3    H254531   4.095   3.732   0.911 -1.3056  0.6521  1.9548
11014TIP3   OH254532   2.363   5.225   1.298 -0.5402 -0.2821 -0.2250
11014TIP3    H154533   2.299   5.154   1.295 -0.6324 -0.1821 -0.7843
11014TIP3    H254534   2.310   5.305   1.294 -0.4574 -0.1699  0.7513
11015TIP3   OH254535   4.120   0.899  11.099  0.1751  0.0950  0.3173
11015TIP3    H154536   4.113   0.987  11.135 -0.4259  0.6273 -1.0110
11015TIP3    H254537   4.032   0.880  11.065  0.8954  0.0652 -1.7136
11016TIP3   OH254538   3.268   3.914   0.928  0.1217  0.2507 -0.3050
11016TIP3    H154539   3.192   3.927   0.985 -0.8637  0.9751 -1.7451
11016TIP3    H254540   3.246   3.958   0.846  0.9950 -1.7871 -1.7292
11017TIP3   OH254541   2.566   2.895   6.466  0.1767  0.3601 -0.4732
11017TIP3    H154542   2.571   2.963   6.400  0.6820  0.7569 -0.0358
11017TIP3    H254543   2.655   2.890   6.502  0.5575 -1.6010 -1.5580
11018TIP3   OH254544   6.656   1.541  12.806 -0.0017  0.9058  0.1625
11018TIP3    H154545   6.659   1.595  12.885  0.4040 -0.5394  1.1756
11018TIP3    H254546   6.613   1.460  12.834 -0.4725  0.6292 -1.2789
11019TIP3   OH254547   1.835   0.219   1.792  0.5944  0.7340 -0.3454
11019TIP3    H154548   1.856   0.294   1.847  4.9537  1.7605 -2.9282
11019TIP3    H254549   1.910   0.160   1.802 -1.5425 -2.1966 -0.3092
11020TIP3   OH254550   5.540   3.943  12.257  0.0076  0.5032  0.1113
11020TIP3    H154551   5.618   3.999  12.260 -0.5698  1.3178  0.4568
11020TIP3    H254552   5.569   3.860  12.294  0.6472  0.8838  0.4938
11021TIP3   OH254553   4.673   6.645   1.920  0.0710 -0.0257  0.0809
11021TIP3    H154554   4.584   6.667   1.890  0.2644 -1.0050 -1.2729
11021TIP3    H254555   4.669   6.657   2.015 -1.3621  0.4505 -0.0083
11022TIP3   OH254556   4.464   1.857   3.452 -0.1369 -0.3318 -0.4076
11022TIP3    H154557   4.559   1.862   3.437 -0.3030  1.5890 -1.1768
11022TIP3    H254558   4.432   1.795   3.387  0.4602 -0.1425 -0.8852
11023TIP3   OH254559   0.260   4.310  12.497 -0.2825  0.0581  0.0243
11023TIP3    H154560   0.213   4.351  12.570 -0.1044  1.8817 -0.8286
11023TIP3    H254561   0.338   4.365  12.484 -0.0954 -0.4665 -1.2738
11024TIP3   OH254562   6.578   6.737  13.554  0.0600 -0.3450 -0.7243
11024TIP3    H154563   6.512   6.674  13.527  1.6749 -2.4096 -0.0925
11024TIP3    H254564   6.599   6.785  13.473  0.5991 -2.3822 -1.8688
11025TIP3   OH254565   4.120   3.949  11.213 -0.0387  0.0088 -0.1678
11025TIP3    H154566   4.114   4.022  11.152 -1.9618  0.7797  0.8640
11025TIP3    H254567   4.095   3.872  11.162 -1.6265  0.6405 -0.4012
11026TIP3   OH254568   1.195   6.649   0.005  0.7455 -0.2044  0.7507
11026TIP3    H154569   1.175   6.713  -0.063 -0.4599 -2.0281 -0.7205
11026TIP3    H254570   1.246   6.582  -0.040  0.0376 -1.3904  1.6571
11027TIP3   OH254571   4.442   5.634  15.945 -0.3341  0.0602 -0.2619
11027TIP3    H154572   4.503   5.610  15.875  0.9350  1.8367  0.1437
11027TIP3    H254573   4.356   5.614  15.909  0.3699 -0.5772 -1.7061
11028TIP3   OH254574   1.329   1.416   3.849 -0.3072  0.2616  0.3131
11028TIP3    H154575   1.309   1.326   3.875  1.2054 -0.7155 -1.5993
11028TIP3    H254576   1.244   1.454   3.827 -0.7589 -1.6780 -1.6152
11029TIP3   OH254577   0.949   0.413   2.126  0.0416  0.1110  0.0194
11029TIP3    H154578   1.028   0.453   2.088  1.2678 -0.4876  1.8293
11029TIP3    H254579   0.919   0.352   2.059  0.1597  1.4991 -1.3569
11030TIP3   OH254580   3.682   0.142  13.698  0.2790 -0.2981 -0.1594
11030TIP3    H154581   3.678   0.237  13.690  0.0226 -0.3363 -0.5083
11030TIP3    H254582   3.762   0.117  13.653 -0.1471 -0.3315 -0.9151
11031TIP3   OH254583   4.876   2.911  16.227 -0.6433  0.4857  0.3183
11031TIP3    H154584   4.821   2.898  16.304 -2.0028  0.7536 -0.5732
11031TIP3    H254585   4.894   2.823  16.195 -1.9035  0.4193 -0.2788
11032TIP3   OH254586   1.826   6.521   0.031 -0.0460 -0.1672 -0.1916
11032TIP3    H154587   1.748   6.469   0.053  0.4024 -1.6241 -1.8727
11032TIP3    H254588   1.891   6.457   0.004  1.0123  1.1803 -0.9722
11033TIP3   OH254589   4.623   4.836  16.884  0.3515  0.4803  0.1568
11033TIP3    H154590   4.583   4.752  16.905 -0.8608  1.0974  0.4092
11033TIP3    H254591   4.560   4.901  16.915  0.7966  1.4755 -0.9441
11034TIP3   OH254592   5.592   4.531  15.302 -0.5216 -0.1409 -0.4126
11034TIP3    H154593   5.623   4.594  15.367 -1.1220  0.1739 -0.4177
11034TIP3    H254594   5.496   4.536  15.308 -0.6068  0.4370 -1.8325
11035TIP3   OH254595   2.094   4.494  15.227 -0.6246  0.6815  0.2952
11035TIP3    H154596   2.054   4.444  15.156  1.6507  0.7924 -1.1641
11035TIP3    H254597   2.092   4.585  15.196  0.7096  0.6863  0.1840
11036TIP3   OH254598   2.874   4.624  16.649 -0.3043  0.2303 -0.4333
11036TIP3    H154599   2.949   4.678  16.622  1.2918 -0.5645  2.0781
11036TIP3    H254600   2.893   4.600  16.740 -3.8358  0.3050  0.4703
11037TIP3   OH254601   3.880   3.000   5.419 -0.2711  0.5655  0.8195
11037TIP3    H154602   3.947   3.020   5.353 -0.4807 -0.0253  0.4128
11037TIP3    H254603   3.918   2.928   5.470 -1.3390 -1.0920 -0.6253
11038TIP3   OH254604   5.256   3.274   3.685 -0.2305 -0.1123 -0.4948
11038TIP3    H154605   5.277   3.312   3.600 -1.2893 -1.3972 -1.3754
11038TIP3    H254606   5.162   3.261   3.683 -0.3959  0.6301  1.2414
11039TIP3   OH254607   6.311   1.630   0.777  0.5646 -0.3908  0.0682
11039TIP3    H154608   6.362   1.635   0.696 -0.3005 -0.2934 -0.4884
11039TIP3    H254609   6.274   1.542   0.776  1.3159 -0.7249  0.8462
11040TIP3   OH254610   3.484   5.737  11.678  0.2637  0.7429  0.1584
11040TIP3    H154611   3.443   5.651  11.664  1.4620  0.5040 -2.5207
11040TIP3    H254612   3.528   5.728  11.762 -3.0217  0.2290  2.0081
11041TIP3   OH254613   5.479   0.318  15.074 -0.6817  0.2276 -0.4339
11041TIP3    H154614   5.390   0.302  15.108 -0.2661 -0.6995  0.2548
11041TIP3    H254615   5.522   0.369  15.143 -0.9060  1.3720 -1.1109
11042TIP3   OH254616   3.615   5.727  11.921 -0.3237  0.4158 -0.4044
11042TIP3    H154617   3.625   5.675  12.001  0.4442  0.3218 -0.5571
11042TIP3    H254618   3.643   5.815  11.946 -2.8063  1.1223  0.2031
11043TIP3   OH254619   0.106   4.278  13.557 -0.0973  0.2119 -0.2669
11043TIP3    H154620   0.145   4.316  13.478 -0.8813 -0.3194 -0.9169
11043TIP3    H254621   0.048   4.346  13.590  0.7582  0.7035  0.2593
11044TIP3   OH254622   4.725   3.310  13.408 -0.2579  0.5238  0.3133
11044TIP3    H154623   4.678   3.226  13.405  1.7498 -0.6755  0.5996
11044TIP3    H254624   4.811   3.288  13.442 -0.1022  2.9575  1.6918
11045TIP3   OH254625   1.020   2.830  14.298  0.2563 -0.1375  0.1292
11045TIP3    H154626   1.027   2.866  14.210  0.7460  1.1262  0.6586
11045TIP3    H254627   1.111   2.824  14.329  0.1410 -1.2688  0.2925
11046TIP3   OH254628   2.181   2.673  16.379  0.1783 -0.7619 -0.2743
11046TIP3    H154629   2.222   2.727  16.312 -0.4137  0.1486  0.0751
11046TIP3    H254630   2.221   2.702  16.461 -2.4814  1.5546  0.3234
11047TIP3   OH254631   6.210   3.904   3.866  0.0502 -0.2657  0.2126
11047TIP3    H154632   6.271   3.976   3.880 -0.5953  0.0522  1.4652
11047TIP3    H254633   6.232   3.839   3.932  0.1932 -0.9513 -0.4842
11048TIP3   OH254634   0.085   6.062   4.066 -1.0072 -0.1734 -0.1383
11048TIP3    H154635   0.098   5.968   4.061 -0.1108 -0.0082 -1.6820
11048TIP3    H254636   0.170   6.097   4.092 -0.5059  0.3617 -2.2767
11049TIP3   OH254637   3.559   2.715   0.731  0.3411 -0.0696 -0.1826
11049TIP3    H154638   3.623   2.778   0.763 -0.0818  0.3636 -0.1758
11049TIP3    H254639   3.481   2.730   0.784  0.2176 -0.5697 -0.2114
11050TIP3   OH254640   0.417   5.641   5.983  0.2844 -0.4214  0.2581
11050TIP3    H154641   0.400   5.702   5.911  1.0794 -1.5525 -0.9288
11050TIP3    H254642   0.340   5.649   6.039 -1.4561 -1.0994 -1.8806
11051TIP3   OH254643   4.503   6.738   1.038  0.2749  0.5385 -0.7494
11051TIP3    H154644   4.535   6.750   1.127  0.5530  0.8314 -0.8901
11051TIP3    H254645   4.527   6.818   0.992  0.2668  0.3275 -1.1270
11052TIP3   OH254646   4.659   5.977  11.425 -0.0258 -0.0427  0.0161
11052TIP3    H154647   4.697   5.968  11.512  0.2711 -0.1306 -0.1214
11052TIP3    H254648   4.565   5.964  11.439  0.1393 -1.2846  0.1497
11053TIP3   OH254649   1.486   4.467   0.048 -0.6629 -0.1241  0.6979
11053TIP3    H154650   1.401   4.505   0.026  0.2019  0.8614 -1.1373
11053TIP3    H254651   1.509   4.508   0.132 -0.1134  2.9746 -0.8248
11054TIP3   OH254652   3.713   0.886   3.780  0.3503 -0.0549 -0.2192
11054TIP3    H154653   3.706   0.949   3.708 -1.4274  0.4669  0.3795
11054TIP3    H254654   3.666   0.809   3.749 -1.3637  0.5517  0.7341
11055TIP3   OH254655   2.070   0.207   2.724 -0.1114  0.4967  0.4719
11055TIP3    H154656   2.063   0.297   2.756 -1.7429  0.3110  0.7184
11055TIP3    H254657   1.980   0.183   2.701  0.6474 -0.2231 -1.9779
11056TIP3   OH254658   3.705   5.095  16.350  0.1851  0.2908 -0.1538
11056TIP3    H154659   3.658   5.120  16.270 -0.5415 -1.4069 -0.2945
11056TIP3    H254660   3.764   5.025  16.323 -0.4761 -0.6966  0.8915
11057TIP3   OH254661   6.815   0.798  13.374  0.4382  0.6339  0.0472
11057TIP3    H154662   6.821   0.703  13.360  0.7346  0.8653 -1.5328
11057TIP3    H254663   6.721   0.817  13.371  0.4400  0.5391 -0.7767
11058TIP3   OH254664   6.781   5.057   4.793  0.2694  0.3317 -0.5447
11058TIP3    H154665   6.694   5.083   4.763 -0.8960 -3.0491 -0.5771
11058TIP3    H254666   6.825   5.024   4.715 -0.2331 -2.2245  0.1606
11059TIP3   OH254667   2.242   2.206   2.894  0.1890 -0.1743  0.4197
11059TIP3    H154668   2.198   2.198   2.810  0.5405 -0.8398  0.2903
11059TIP3    H254669   2.299   2.282   2.885 -0.3237  0.2045  0.3170
11060TIP3   OH254670   0.488   5.594  13.003  0.1536  0.2398  0.3038
11060TIP3    H154671   0.423   5.662  13.021 -0.3273  0.7217 -2.6978
11060TIP3    H254672   0.440   5.512  13.012 -0.1519  0.4585  0.7065
11061TIP3   OH254673   1.590   4.114   0.770  0.4835 -0.4730 -0.1600
11061TIP3    H154674   1.651   4.068   0.828 -0.4539 -0.3999  0.9145
11061TIP3    H254675   1.623   4.204   0.768 -0.0786 -0.2109  1.1685
11062TIP3   OH254676   3.747   2.679  16.876 -0.1096 -0.0466  0.3742
11062TIP3    H154677   3.743   2.725  16.792 -1.6065  2.7288  1.8253
11062TIP3    H254678   3.669   2.708  16.923 -0.1323 -2.6998  2.2194
11063TIP3   OH254679   1.681   3.822  14.105  0.0605  0.1005 -0.1105
11063TIP3    H154680   1.733   3.744  14.122 -0.7764 -0.7757 -1.3958
11063TIP3    H254681   1.643   3.845  14.190  1.2958 -0.1535  0.5162
11064TIP3   OH254682   2.708   1.390   2.930 -0.0535 -0.4165  0.2009
11064TIP3    H154683   2.727   1.471   2.977 -0.9038  0.2960 -0.6392
11064TIP3    H254684   2.789   1.368   2.884  0.3189 -0.2958  0.7953
11065TIP3   OH254685   0.244   5.681  11.752  0.0568 -0.0668  0.3431
11065TIP3    H154686   0.165   5.644  11.792  0.2141 -0.9242 -0.1127
11065TIP3    H254687   0.219   5.697  11.661  0.9856 -2.2789 -0.3542
11066TIP3   OH254688   5.304   5.483   1.638  0.1838 -0.7004  0.2038
11066TIP3    H154689   5.396   5.471   1.662  1.1094  1.6625 -1.7266
11066TIP3    H254690   5.307   5.531   1.555 -2.8228 -1.4267 -0.4478
11067TIP3   OH254691   6.245   3.060   3.531  0.2906  0.2524 -0.3035
11067TIP3    H154692   6.152   3.046   3.550  0.2074  1.8464  0.5662
11067TIP3    H254693   6.252   3.048   3.437 -0.3970 -1.9203 -0.1307
11068TIP3   OH254694   4.987   5.470  14.233 -0.6847  0.1185 -0.0397
11068TIP3    H154695   4.946   5.387  14.258 -0.0612  0.2774  1.6308
11068TIP3    H254696   5.047   5.447  14.163 -0.8991 -0.7547  0.0459
11069TIP3   OH254697   0.773   5.884   0.001  0.0640  0.0232 -0.1065
11069TIP3    H154698   0.759   5.882  -0.093 -1.4582  0.5247  0.0836
11069TIP3    H254699   0.867   5.867   0.012  0.2592 -0.0514 -1.6923
11070TIP3   OH254700   4.482   1.443   4.163 -0.3900 -0.0940  0.4501
11070TIP3    H154701   4.524   1.528   4.161  0.2355 -0.3444  1.7632
11070TIP3    H254702   4.411   1.453   4.228 -1.1912 -0.1993 -0.3870
11071TIP3   OH254703   0.347   0.507   1.668 -0.1751  0.1065 -0.8188
11071TIP3    H154704   0.412   0.560   1.715 -0.6645  1.0654 -1.1813
11071TIP3    H254705   0.341   0.426   1.718 -1.0101  1.2761  1.0824
11072TIP3   OH254706   0.502   4.765  15.617  0.3107  0.1072 -0.4352
11072TIP3    H154707   0.470   4.684  15.579 -0.0881  0.2745 -0.4656
11072TIP3    H254708   0.498   4.751  15.711 -0.5531  0.3795 -0.4179
11073TIP3   OH254709   4.062   6.052  13.086 -0.3342  0.5421  0.3353
11073TIP3    H154710   4.112   5.974  13.062 -0.5197  0.5492 -0.0847
11073TIP3    H254711   4.048   6.098  13.004 -0.1491  1.0688  0.5948
11074TIP3   OH254712   4.232   5.004  11.113  0.3285  0.0258 -0.4077
11074TIP3    H154713   4.157   5.063  11.103 -0.2285 -0.7533 -1.0129
11074TIP3    H254714   4.223   4.942  11.040  0.7989 -0.9028  0.2943
11075TIP3   OH254715   6.732   0.883   0.245 -0.8241 -0.4067 -0.1082
11075TIP3    H154716   6.726   0.794   0.211 -0.0782 -0.5953  0.2291
11075TIP3    H254717   6.753   0.937   0.169 -0.7041 -0.6030 -0.2146
11076TIP3   OH254718   1.346   5.259   1.439 -0.4657 -0.0538  0.3243
11076TIP3    H154719   1.297   5.339   1.456  1.0808  0.3442  3.7738
11076TIP3    H254720   1.280   5.189   1.448 -1.0642  0.6339  1.5269
11077TIP3   OH254721   6.392   2.981   4.754  0.1640  0.8598  0.6599
11077TIP3    H154722   6.478   3.009   4.723  0.8345 -0.2235  1.4881
11077TIP3    H254723   6.338   3.060   4.749  0.4647  0.9969 -2.2934
11078TIP3   OH254724   1.419   1.912  13.480 -0.4122 -0.3124 -0.4499
11078TIP3    H154725   1.476   1.898  13.404  0.4717 -1.6193  0.4153
11078TIP3    H254726   1.331   1.894  13.448 -0.0115 -1.1734 -1.0936
11079TIP3   OH254727   3.905   1.581   1.973  0.5466  0.4669  0.2669
11079TIP3    H154728   3.939   1.500   2.011  1.6532  1.3178  1.1606
11079TIP3    H254729   3.979   1.619   1.926  0.6124  1.8808  1.4401
11080TIP3   OH254730   1.975   5.917   5.099 -0.2288  0.0387  0.1915
11080TIP3    H154731   1.901   5.976   5.111 -1.2612 -1.2007  0.1646
11080TIP3    H254732   2.047   5.974   5.071 -0.6600  1.5283  1.8790
11081TIP3   OH254733   5.971   0.454   4.856 -0.4922  0.1054 -0.5201
11081TIP3    H154734   5.904   0.515   4.824 -1.3696  0.6743  2.1086
11081TIP3    H254735   5.920   0.381   4.892  0.4773 -1.1140 -1.5537
11082TIP3   OH254736   2.185   3.568  14.802 -0.4460 -0.2667 -0.3162
11082TIP3    H154737   2.137   3.491  14.771  0.0573 -0.6320 -0.1984
11082TIP3    H254738   2.271   3.561  14.762  0.5582 -1.2743  1.8725
11083TIP3   OH254739   6.565   2.702   0.490 -0.0234  0.0144 -0.2194
11083TIP3    H154740   6.581   2.653   0.571  2.4366  1.7962  0.4870
11083TIP3    H254741   6.526   2.784   0.518 -0.4520  0.0852 -0.9902
11084TIP3   OH254742   0.535   3.500  13.793  0.3626  0.1546 -0.3220
11084TIP3    H154743   0.546   3.497  13.888 -0.6824  0.3272 -0.1751
11084TIP3    H254744   0.504   3.413  13.769 -1.5216  0.7390 -0.1720
11085TIP3   OH254745   4.729   0.288   0.886  0.1813  0.1481 -1.3684
11085TIP3    H154746   4.638   0.263   0.905  0.4544 -2.5617 -3.0515
11085TIP3    H254747   4.761   0.325   0.968 -2.6495  2.0958 -0.9836
11086TIP3   OH254748   3.712   6.698  16.859 -0.0735  0.3356  0.5210
11086TIP3    H154749   3.623   6.665  16.846  0.2068 -0.7903  1.3321
11086TIP3    H254750   3.700   6.782  16.903 -0.7521  0.4040  0.2170
11087TIP3   OH254751   6.585   0.015  13.070  0.3762 -0.2003  0.0904
11087TIP3    H154752   6.499  -0.020  13.093 -1.1389  2.1372 -1.5380
11087TIP3    H254753   6.580   0.031  12.976  1.9817  1.5444  0.2420
11088TIP3   OH254754   3.334   6.658  13.177 -0.4022  0.2072  0.5294
11088TIP3    H154755   3.349   6.564  13.190 -0.1186 -0.4435 -3.2544
11088TIP3    H254756   3.412   6.700  13.213  0.0402 -1.1115  1.2038
11089TIP3   OH254757   2.210   1.423  11.473 -0.1404 -0.3937  0.2049
11089TIP3    H154758   2.219   1.491  11.407  0.3445 -0.4859  0.1708
11089TIP3    H254759   2.220   1.341  11.424 -3.2255 -0.6592 -0.2211
11090TIP3   OH254760   3.661   0.515   0.308 -0.2405 -0.0007  0.0107
11090TIP3    H154761   3.723   0.443   0.295 -0.0732 -0.0121  0.8142
11090TIP3    H254762   3.705   0.591   0.272 -0.8896 -0.4807 -1.9104
11091TIP3   OH254763   0.873   2.721   5.595 -0.5768  0.4638 -0.2091
11091TIP3    H154764   0.966   2.737   5.609 -0.8476  0.1946  2.5437
11091TIP3    H254765   0.841   2.799   5.549  0.9511  0.5999 -1.1024
11092TIP3   OH254766   5.837   1.908   1.030  0.2212  0.7479 -0.7207
11092TIP3    H154767   5.925   1.935   1.056  0.6666  1.4437 -2.8055
11092TIP3    H254768   5.832   1.926   0.937 -1.2899 -1.6166 -1.1961
11093TIP3   OH254769   6.116   0.959   0.239  0.3594 -0.0866 -0.4218
11093TIP3    H154770   6.157   1.012   0.171 -1.4021  1.7082 -0.1911
11093TIP3    H254771   6.178   0.964   0.313  0.7082  0.8227 -0.7520
11094TIP3   OH254772   0.336   3.286   6.556 -0.1219  0.0321 -0.2319
11094TIP3    H154773   0.295   3.212   6.511 -0.9811  0.0664  0.4778
11094TIP3    H254774   0.327   3.267   6.649 -0.0602  0.8687 -0.0414
11095TIP3   OH254775   5.270   1.197   1.295  0.0950 -0.4997 -0.4011
11095TIP3    H154776   5.208   1.151   1.351 -2.1551  0.8679 -1.6196
11095TIP3    H254777   5.351   1.199   1.345 -1.4665 -0.3480  2.3120
11096TIP3   OH254778   5.729   0.966   4.029  0.1865 -0.0516  0.2437
11096TIP3    H154779   5.685   0.992   3.949 -3.5834 -1.0666  1.7704
11096TIP3    H254780   5.792   0.900   4.002 -1.4206 -0.8285 -1.8319
11097TIP3   OH254781   6.800   5.836  14.457 -0.2038  0.1143 -0.6379
11097TIP3    H154782   6.792   5.741  14.454  1.7268 -0.0653 -2.2272
11097TIP3    H254783   6.831   5.860  14.370 -1.2182  2.2913 -0.4584
11098TIP3   OH254784   6.370   2.486  11.305 -0.3579  0.2177  0.0596
11098TIP3    H154785   6.370   2.487  11.401  0.6155  0.9439  0.0645
11098TIP3    H254786   6.335   2.400  11.282 -1.1278  0.2458  1.0583
11099TIP3   OH254787   0.561   0.544   0.702 -0.2597 -0.8436 -0.0740
11099TIP3    H154788   0.609   0.555   0.784 -0.0690 -0.5732 -0.2216
11099TIP3    H254789   0.485   0.491   0.726 -0.7039  0.0192  0.4562
11100TIP3   OH254790   0.117   1.626   1.300 -0.5404  0.6090  0.2697
11100TIP3    H154791   0.122   1.558   1.367 -0.1491  0.7896  0.4271
11100TIP3    H254792   0.189   1.686   1.321  1.3586 -0.7732 -1.9240
11101TIP3   OH254793   4.834   3.618  13.783 -0.0822 -0.7002  0.0480
11101TIP3    H154794   4.774   3.691  13.801  0.6975 -0.0667  0.1317
11101TIP3    H254795   4.836   3.611  13.687 -0.7783 -1.1511  0.0571
11102TIP3   OH254796   5.620   1.978   4.513 -0.1753  0.0052  0.7458
11102TIP3    H154797   5.553   1.993   4.446  0.0103 -0.5631  0.4294
11102TIP3    H254798   5.629   2.063   4.557 -1.6641 -0.1100  1.3167
11103TIP3   OH254799   6.611   5.629  13.596 -0.1936  0.2352 -0.8743
11103TIP3    H154800   6.589   5.722  13.589  0.7753  0.3774 -4.0068
11103TIP3    H254801   6.695   5.622  13.549  0.6029 -1.9826  0.7455
11104TIP3   OH254802   5.045   6.130  14.737 -0.0828  0.4348 -0.7468
11104TIP3    H154803   4.956   6.159  14.759  0.1939 -1.8450  5.0245
11104TIP3    H254804   5.101   6.174  14.801  2.7113  0.0074 -2.7331
11105TIP3   OH254805   5.381   4.963   5.741 -0.1824  0.0354 -0.2886
11105TIP3    H154806   5.293   4.982   5.771 -0.4368 -1.2906 -0.1621
11105TIP3    H254807   5.399   4.874   5.771  0.4073 -0.4940 -2.0791
11106TIP3   OH254808   5.264   3.342  13.325 -0.7613  0.0679  0.4398
11106TIP3    H154809   5.297   3.327  13.236  0.4133  1.3403  0.6332
11106TIP3    H254810   5.189   3.284  13.332 -0.0982 -1.0279 -0.9322
11107TIP3   OH254811   5.713   1.652   2.965 -0.3642  0.0844  0.1593
11107TIP3    H154812   5.790   1.703   2.941 -0.7381  0.5660 -0.0441
11107TIP3    H254813   5.708   1.584   2.899 -1.0877  1.0907 -0.8559
11108TIP3   OH254814   0.135   4.634   0.148 -0.8378  0.0770  0.1607
11108TIP3    H154815   0.059   4.680   0.111 -1.4538 -0.4959  0.6916
11108TIP3    H254816   0.129   4.651   0.242  0.2540  0.8431  0.1131
11109TIP3   OH254817   4.013   4.816  17.137 -0.0568 -0.0102  0.0763
11109TIP3    H154818   4.053   4.809  17.050  3.2038 -1.1879  1.5123
11109TIP3    H254819   4.026   4.907  17.162  2.5343 -0.4799  0.7418
11110TIP3   OH254820   5.589   6.648   0.952  0.8142 -0.8127  0.3006
11110TIP3    H154821   5.665   6.697   0.921  0.2607 -0.7235 -1.0319
11110TIP3    H254822   5.534   6.639   0.874 -0.8128 -0.3769  1.3477
11111TIP3   OH254823   5.942   4.922   2.335 -0.2743  0.3433  0.3174
11111TIP3    H154824   5.982   4.883   2.413 -2.2510 -1.1270  0.6796
11111TIP3    H254825   5.978   4.873   2.262  0.2387  0.5115  0.4567
11112TIP3   OH254826   1.290   6.485  12.074  0.6032  0.1401  0.4952
11112TIP3    H154827   1.322   6.400  12.103  2.7457  0.1081 -1.6776
11112TIP3    H254828   1.310   6.488  11.981 -0.0593  2.7619  0.3556
11113TIP3   OH254829   6.291   3.485  12.877  0.8218  0.3979 -0.5211
11113TIP3    H154830   6.212   3.441  12.909  0.5835  0.4519 -1.0160
11113TIP3    H254831   6.347   3.414  12.847  0.3034  0.4302 -1.6177
11114TIP3   OH254832   6.468   2.914  13.810  0.7737 -0.2875  0.7655
11114TIP3    H154833   6.474   2.846  13.877 -0.3396  0.9611  2.2058
11114TIP3    H254834   6.519   2.986  13.845  1.8297 -0.2883 -0.6835
11115TIP3   OH254835   0.197   0.611  14.095  0.0463  0.0850 -0.0352
11115TIP3    H154836   0.111   0.573  14.075  0.1605 -0.5488  0.6512
11115TIP3    H254837   0.254   0.579  14.025  0.0092 -0.5559  0.2186
11116TIP3   OH254838   2.101   2.012  14.108 -0.3314 -0.2407 -0.0028
11116TIP3    H154839   2.155   2.088  14.087 -0.4302 -0.2025 -0.1191
11116TIP3    H254840   2.052   1.994  14.028  0.5447 -1.1377 -0.3549
11117TIP3   OH254841   2.873   2.547   1.694  0.7425  0.4984  0.5430
11117TIP3    H154842   2.784   2.513   1.681  0.8169 -0.5175  2.2796
11117TIP3    H254843   2.930   2.480   1.657  0.8378  1.7278 -1.7338
11118TIP3   OH254844   2.740   3.226   2.605 -0.3131 -0.3437  0.6181
11118TIP3    H154845   2.737   3.138   2.569 -0.4284  1.0342 -3.1727
11118TIP3    H254846   2.653   3.263   2.587  0.4009  1.2027  0.1616
11119TIP3   OH254847   5.108   3.368  11.442 -0.6961 -0.1031  0.2746
11119TIP3    H154848   5.111   3.460  11.417  0.4370 -0.3110 -0.4469
11119TIP3    H254849   5.165   3.324  11.378  1.6878 -0.7937  2.6721
11120TIP3   OH254850   6.654   5.111   5.718 -0.0184 -0.0872  0.0263
11120TIP3    H154851   6.734   5.089   5.766  2.2859  2.9532 -1.9589
11120TIP3    H254852   6.669   5.201   5.688 -4.6474  1.0081  0.2496
11121TIP3   OH254853   5.175   1.914   0.986 -0.2065 -0.3709 -0.3362
11121TIP3    H154854   5.233   1.975   0.940  2.1144 -0.2299  2.5023
11121TIP3    H254855   5.163   1.842   0.925 -0.6789  1.5697 -2.6827
11122TIP3   OH254856   3.077   0.882   0.595  0.4095 -0.6769  0.5828
11122TIP3    H154857   3.015   0.810   0.594  1.2265 -1.4630 -2.0432
11122TIP3    H254858   3.160   0.842   0.623  0.7027 -0.6445 -0.2041
11123TIP3   OH254859   4.340   3.950   4.187  0.1174 -0.5212  0.7248
11123TIP3    H154860   4.294   3.929   4.268 -0.4962 -1.3993  0.1586
11123TIP3    H254861   4.433   3.937   4.208  0.1424  1.0315  1.7998
11124TIP3   OH254862   3.993   0.527  16.944  0.1770 -0.6601  1.0977
11124TIP3    H154863   4.029   0.604  16.988 -0.9044  1.9283 -2.1751
11124TIP3    H254864   3.898   0.534  16.956 -0.0248 -0.7295 -0.3334
11125TIP3   OH254865   4.559   0.230   3.833 -0.4264  0.4813  0.3871
11125TIP3    H154866   4.479   0.246   3.884 -0.4485  0.5857  0.3214
11125TIP3    H254867   4.554   0.138   3.808 -1.4179  0.8947 -1.1129
11126TIP3   OH254868   3.720   2.948  11.673  0.0616 -0.1034 -0.2679
11126TIP3    H154869   3.778   3.022  11.691 -1.4460  0.9051  0.7714
11126TIP3    H254870   3.761   2.873  11.716  0.8336  0.4841  0.0295
11127TIP3   OH254871   6.140   1.702   5.538  0.1265 -0.0493 -0.9461
11127TIP3    H154872   6.073   1.750   5.588  0.6282  1.2900 -1.4983
11127TIP3    H254873   6.220   1.754   5.550  0.7933 -0.9888 -1.2456
11128TIP3   OH254874   0.582   4.817  14.112 -0.1730  0.3299 -0.2661
11128TIP3    H154875   0.562   4.726  14.133  0.1406  0.2639 -0.2520
11128TIP3    H254876   0.669   4.832  14.148  0.3970  0.2056 -1.5181
11129TIP3   OH254877   3.729   1.565   2.376  0.1810 -0.0262  0.2596
11129TIP3    H154878   3.733   1.470   2.367 -2.9734 -0.2336  0.0690
11129TIP3    H254879   3.716   1.598   2.287 -0.0787  0.4554  0.4670
11130TIP3   OH254880   1.915   3.809  16.616  0.6142  0.0815  0.0974
11130TIP3    H154881   1.851   3.773  16.555  0.8243  0.1063 -0.1377
11130TIP3    H254882   1.909   3.753  16.693 -0.2878  0.5828  0.4099
11131TIP3   OH254883   5.854   3.655  13.246 -0.5519  0.4314  0.5945
11131TIP3    H154884   5.810   3.707  13.178  0.5858 -0.5892 -1.0215
11131TIP3    H254885   5.944   3.645  13.213  0.0902  0.0200  2.3630
11132TIP3   OH254886   5.240   1.731  14.204  0.2494  0.2234 -0.6401
11132TIP3    H154887   5.217   1.767  14.118  1.2525  0.2029 -0.9264
11132TIP3    H254888   5.296   1.656  14.184 -0.1792 -0.2762  0.0167
11133TIP3   OH254889   1.497   5.158  14.508 -0.2391 -0.2621 -0.3130
11133TIP3    H154890   1.482   5.161  14.414  2.8220  1.3383 -0.8793
11133TIP3    H254891   1.583   5.118  14.517 -0.5523 -0.5559  1.8464
11134TIP3   OH254892   1.388   2.006  15.103  0.0329  0.2351 -0.0309
11134TIP3    H154893   1.323   2.038  15.166  1.4672  0.9401  1.1624
11134TIP3    H254894   1.338   1.952  15.042 -1.3649 -1.0142  2.0777
11135TIP3   OH254895   0.875   4.377   1.182  0.2263 -0.1682  0.2523
11135TIP3    H154896   0.831   4.309   1.131 -0.8327 -0.0628  0.9974
11135TIP3    H254897   0.854   4.459   1.138 -0.4982 -0.1000  0.7117
11136TIP3   OH254898   3.363   1.817   6.323 -0.1897  0.0046 -0.2591
11136TIP3    H154899   3.392   1.760   6.394 -1.1037  0.1271  0.2333
11136TIP3    H254900   3.435   1.878   6.310  0.3578 -0.5926 -0.0564
11137TIP3   OH254901   6.124   2.316  12.520  0.1015  0.0342 -0.1230
11137TIP3    H154902   6.056   2.349  12.462 -0.3389  1.4242  1.1281
11137TIP3    H254903   6.163   2.394  12.559 -1.3265 -0.7934  3.3728
11138TIP3   OH254904   5.230   6.338   5.158  0.0212  0.3626 -0.2160
11138TIP3    H154905   5.231   6.277   5.084  1.2641 -0.6731  0.5939
11138TIP3    H254906   5.139   6.339   5.186  0.0353 -1.6291  0.0954
11139TIP3   OH254907   3.644   0.330   1.565 -0.8362  0.0993 -0.4777
11139TIP3    H154908   3.718   0.386   1.540  0.8389 -0.3883  2.8576
11139TIP3    H254909   3.570   0.391   1.572  0.4362  1.5935  0.9134
11140TIP3   OH254910   0.824   2.824   3.430  0.1873 -0.0885  0.1835
11140TIP3    H154911   0.799   2.908   3.393 -0.0212 -0.2387 -0.0224
11140TIP3    H254912   0.906   2.801   3.387 -0.9212 -1.0813 -1.5070
11141TIP3   OH254913   3.353   4.552  11.852  0.1721 -0.1045 -0.2531
11141TIP3    H154914   3.406   4.549  11.773  0.9335  0.9143  0.2008
11141TIP3    H254915   3.267   4.581  11.821 -0.2000 -1.8624 -1.0032
11142TIP3   OH254916   2.668   1.789   3.246  0.2008  0.8876 -0.1958
11142TIP3    H154917   2.609   1.804   3.172  2.6030 -1.0236 -2.7597
11142TIP3    H254918   2.721   1.868   3.251  2.9207 -0.4243 -3.6923
11143TIP3   OH254919   1.149   6.550  13.435 -0.1871  0.1343  0.7263
11143TIP3    H154920   1.127   6.641  13.457  0.1730 -0.2294  2.8226
11143TIP3    H254921   1.220   6.528  13.496  0.8601 -1.0538 -0.8615
11144TIP3   OH254922   6.443   1.199   2.010  0.6018  0.7906  0.5851
11144TIP3    H154923   6.481   1.122   1.967  2.2730  1.7019  0.3581
11144TIP3    H254924   6.391   1.163   2.082  0.7372 -0.5804  0.0315
11145TIP3   OH254925   1.564   0.291   2.443 -0.3602 -0.2254  0.1703
11145TIP3    H154926   1.617   0.243   2.380  0.4771  0.5791  0.2350
11145TIP3    H254927   1.563   0.381   2.410  0.2829  0.2589  1.4102
11146TIP3   OH254928   6.291   0.619  13.080  0.0150 -0.6837 -0.0093
11146TIP3    H154929   6.381   0.644  13.055 -0.7040  1.8832 -0.3222
11146TIP3    H254930   6.264   0.558  13.012  1.2262 -0.8298 -0.3896
11147TIP3   OH254931   1.312   0.391   0.451  0.0713  0.6244  0.2259
11147TIP3    H154932   1.221   0.373   0.426  0.2644  0.8185 -0.6330
11147TIP3    H254933   1.321   0.486   0.443 -0.2868  0.9123  2.5324
11148TIP3   OH254934   5.636   2.114   2.161  0.3790 -0.2833 -0.4498
11148TIP3    H154935   5.606   2.036   2.114 -1.2241 -0.7712  1.2487
11148TIP3    H254936   5.588   2.186   2.121  0.8524 -0.3504 -1.1440
11149TIP3   OH254937   3.110   3.492  16.910  0.3523 -0.4993 -0.6410
11149TIP3    H154938   3.029   3.516  16.864 -0.0137 -0.3560  0.0595
11149TIP3    H254939   3.086   3.494  17.002  2.2623  4.2225  0.0421
11150TIP3   OH254940   1.334   0.521  12.601  0.4948  0.0728  0.2853
11150TIP3    H154941   1.265   0.586  12.615 -0.1834 -0.7472  0.8389
11150TIP3    H254942   1.309   0.477  12.520 -0.5117 -1.2701  1.2803
11151TIP3   OH254943   3.117   1.048  10.516 -0.3074 -0.0027  0.0011
11151TIP3    H154944   3.095   0.959  10.542  1.2435  0.0288  1.5890
11151TIP3    H254945   3.055   1.103  10.565 -0.9680 -0.1638 -0.6341
11152TIP3   OH254946   2.359   2.215   0.257 -0.1584 -0.2719  0.0334
11152TIP3    H154947   2.401   2.175   0.181  0.5016 -0.7900  0.6443
11152TIP3    H254948   2.408   2.296   0.272 -0.3352 -0.1343 -0.1412
11153TIP3   OH254949   2.561   4.018  11.355  0.5629  0.4084 -0.3163
11153TIP3    H154950   2.530   3.995  11.443  0.7341 -1.2034 -0.6509
11153TIP3    H254951   2.481   4.032  11.305  0.4636  1.1442  0.0266
11154TIP3   OH254952   5.025   3.747  15.169 -0.0305 -0.3172 -0.2764
11154TIP3    H154953   5.014   3.841  15.157 -0.3083 -0.1051  1.4324
11154TIP3    H254954   5.011   3.710  15.082 -0.5136  1.1666 -0.8530
11155TIP3   OH254955   3.778   4.061  17.015 -0.2029  0.1909  0.0268
11155TIP3    H154956   3.861   4.013  17.009 -0.2771  0.2000 -1.5803
11155TIP3    H254957   3.713   4.003  16.976 -0.6598  0.8129 -0.1627
11156TIP3   OH254958   0.755   2.127  13.856 -0.4552 -0.0568  0.6784
11156TIP3    H154959   0.745   2.221  13.842 -0.7502 -0.1327  0.3714
11156TIP3    H254960   0.671   2.089  13.829 -0.0309 -0.4965 -0.0756
11157TIP3   OH254961   3.588   5.871   4.383  0.2440 -0.0462 -0.2628
11157TIP3    H154962   3.684   5.877   4.376  0.2229  0.7366 -0.0290
11157TIP3    H254963   3.563   5.951   4.429 -0.6070  0.1867 -1.1031
11158TIP3   OH254964   4.568   4.675   3.859 -0.3680  0.5141 -0.1497
11158TIP3    H154965   4.618   4.642   3.934 -0.0286 -0.2615 -0.7059
11158TIP3    H254966   4.560   4.599   3.801 -1.4353  0.8672 -0.4713
11159TIP3   OH254967   0.924   5.421  16.693  0.0443  0.8200 -0.1821
11159TIP3    H154968   0.915   5.508  16.732  1.1333  1.3476 -1.0780
11159TIP3    H254969   1.016   5.398  16.705  0.0985  0.4249 -1.2902
11160TIP3   OH254970   6.560   4.264  11.524 -0.0424  0.4661  0.2716
11160TIP3    H154971   6.528   4.187  11.477 -0.4667  0.7725  0.0564
11160TIP3    H254972   6.521   4.257  11.611  0.5196  0.0483  0.5038
11161TIP3   OH254973   2.774   5.977  12.792  0.0800  0.5229 -0.1871
11161TIP3    H154974   2.789   5.886  12.817 -0.5453  0.6940  0.8617
11161TIP3    H254975   2.758   6.022  12.875 -0.1631  1.4814 -0.7451
11162TIP3   OH254976   6.595   0.250  11.485  0.4094 -0.2532 -0.2095
11162TIP3    H154977   6.560   0.321  11.540 -0.6470 -1.2723  0.4842
11162TIP3    H254978   6.519   0.195  11.467  1.5246 -2.2135  0.8287
11163TIP3   OH254979   6.041   5.839  14.506  0.0084 -0.3534  0.3993
11163TIP3    H154980   6.000   5.822  14.591  0.2096 -0.2725  0.5117
11163TIP3    H254981   6.001   5.774  14.447  0.5982 -1.0794  0.7768
11164TIP3   OH254982   1.087   2.623  10.710  0.1527 -0.0955 -0.5594
11164TIP3    H154983   1.020   2.650  10.773  1.7925 -1.3721  1.8723
11164TIP3    H254984   1.096   2.529  10.724  1.9603 -0.0677 -1.3297
11165TIP3   OH254985   0.028   2.302   0.334 -0.2164 -0.2429  0.3713
11165TIP3    H154986   0.089   2.326   0.264 -1.0565  0.9192  0.0057
11165TIP3    H254987   0.067   2.336   0.414  0.8930 -1.8266  0.5519
11166TIP3   OH254988   2.683   5.812  14.402 -0.0757  0.0876 -0.0339
11166TIP3    H154989   2.744   5.822  14.475  0.9329  0.2256 -0.8774
11166TIP3    H254990   2.735   5.831  14.324 -0.7122 -1.6242 -0.9360
11167TIP3   OH254991   2.931   4.539  16.886 -0.3879  0.5541 -0.1156
11167TIP3    H154992   2.859   4.484  16.917 -1.8284  2.4982  0.2002
11167TIP3    H254993   2.964   4.582  16.965 -0.7549  1.7744 -0.6072
11168TIP3   OH254994   3.687   6.374  14.384  0.1661  0.1364 -0.0355
11168TIP3    H154995   3.680   6.466  14.407 -1.8297  0.1260 -0.4461
11168TIP3    H254996   3.654   6.327  14.461 -0.8497 -0.1290 -0.6122
11169TIP3   OH254997   0.662   0.905  13.869 -0.1755  0.2892 -0.8205
11169TIP3    H154998   0.644   0.972  13.935  1.4723  0.7806 -0.8356
11169TIP3    H254999   0.729   0.849  13.908  1.2208  0.8962 -2.2274
11170TIP3   OH255000   0.073   0.102  13.450  0.3237  0.3830 -0.3265
11170TIP3    H155001   0.139   0.171  13.451 -0.2582  1.0135 -2.1077
11170TIP3    H255002   0.117   0.025  13.486  1.4249  1.2898  0.3024
11171TIP3   OH255003   2.090   5.151  15.846 -0.3347  0.0829  0.0098
11171TIP3    H155004   2.095   5.154  15.941 -0.0231 -0.4570  0.0154
11171TIP3    H255005   2.006   5.192  15.825 -1.5193 -1.8837  0.6749
11172TIP3   OH255006   4.409   1.974  13.486  0.0544 -0.1649 -0.7686
11172TIP3    H155007   4.476   1.997  13.422 -0.5140 -0.4341 -1.4709
11172TIP3    H255008   4.331   1.956  13.434 -0.7271  0.7015  0.0723
11173TIP3   OH255009   0.981   4.387   1.865  0.2337  0.2834  0.5724
11173TIP3    H155010   1.045   4.422   1.927 -1.5259  2.0833  1.4951
11173TIP3    H255011   0.917   4.458   1.854 -1.8015 -1.5294  0.0017
11174TIP3   OH255012   0.494   2.662   1.457 -0.2039 -0.3582  0.7902
11174TIP3    H155013   0.414   2.675   1.406 -0.4493  0.1437  1.2865
11174TIP3    H255014   0.538   2.748   1.455  0.7040 -0.8232 -0.1043
11175TIP3   OH255015   4.501   5.600  14.186  0.0846  0.0707  0.1732
11175TIP3    H155016   4.545   5.611  14.102  1.8351 -0.5694  0.9697
11175TIP3    H255017   4.530   5.674  14.239  0.7528 -0.7144  0.9274
11176TIP3   OH255018   3.520   3.931   3.595 -0.2746 -0.0989 -0.3729
11176TIP3    H155019   3.542   3.947   3.503  0.5312  0.2318 -0.1303
11176TIP3    H255020   3.567   3.851   3.617  1.6238  1.1762  0.4461
11177TIP3   OH255021   1.486   1.880   4.971  0.3425  0.0679  0.0993
11177TIP3    H155022   1.552   1.868   4.903  0.7977  0.8315  0.3912
11177TIP3    H255023   1.537   1.904   5.049 -0.1929 -0.4829  0.6256
11178TIP3   OH255024   4.451   4.833  15.910  0.0169  0.4424  0.4731
11178TIP3    H155025   4.488   4.911  15.953 -0.5673  1.7929 -1.3424
11178TIP3    H255026   4.387   4.800  15.973  0.1493  1.5495  1.2299
11179TIP3   OH255027   5.353   1.645  11.147 -0.5587 -0.4988 -0.5247
11179TIP3    H155028   5.369   1.737  11.165  0.5008 -0.9206  0.9421
11179TIP3    H255029   5.282   1.621  11.207 -0.0341 -0.8855 -0.0415
11180TIP3   OH255030   2.204   6.411  15.432  0.0324 -0.4759 -0.1865
11180TIP3    H155031   2.229   6.470  15.503  0.1959  0.8293 -1.2924
11180TIP3    H255032   2.253   6.331  15.448  0.8660  0.1749  0.5951
11181TIP3   OH255033   3.170   6.487  12.545  0.4635  0.5741  0.2151
11181TIP3    H155034   3.260   6.517  12.527  0.5755  0.8141  1.1489
11181TIP3    H255035   3.118   6.567  12.548  0.3809  0.5077  0.5891
11182TIP3   OH255036   6.232   0.687   2.844  0.5113 -0.5553  0.0951
11182TIP3    H155037   6.251   0.766   2.895  0.8887 -0.8132  0.3523
11182TIP3    H255038   6.150   0.708   2.799  1.6863  0.8026 -1.5359
11183TIP3   OH255039   5.689   3.764   6.809  0.1448  0.3715 -0.0278
11183TIP3    H155040   5.638   3.797   6.735  0.3384 -0.2448 -0.4465
11183TIP3    H255041   5.662   3.818   6.883 -1.3829 -0.1533 -0.1573
11184TIP3   OH255042   3.721   5.611  14.865 -0.0878  0.1628  0.1547
11184TIP3    H155043   3.781   5.566  14.925  0.3314  0.1568 -0.2640
11184TIP3    H255044   3.696   5.690  14.912 -0.1438 -0.0774  0.5394
11185TIP3   OH255045   2.401   2.456   0.534 -0.8385 -0.0504  0.4746
11185TIP3    H155046   2.416   2.506   0.454 -0.7867  1.3679  1.3308
11185TIP3    H255047   2.483   2.409   0.549  0.1486  1.8068  1.1276
11186TIP3   OH255048   4.192   3.425  11.704  0.3165  0.0507  0.4465
11186TIP3    H155049   4.143   3.346  11.680 -0.5130  0.8350 -0.4899
11186TIP3    H255050   4.269   3.424  11.647  0.1530  0.0676  0.2240
11187TIP3   OH255051   6.016   0.371   3.041 -0.1891 -0.1382  0.2007
11187TIP3    H155052   6.076   0.424   3.093 -0.6145  0.7560 -0.1977
11187TIP3    H255053   5.949   0.433   3.011 -0.4048 -0.7963 -0.7136
11188TIP3   OH255054   6.109   6.782   4.001 -0.0247 -0.1329  0.2820
11188TIP3    H155055   6.067   6.861   3.968  0.0112  0.1531  0.9037
11188TIP3    H255056   6.060   6.710   3.962 -0.7972  0.1995  0.6261
11189TIP3   OH255057   4.663   0.134  17.015 -0.3724  0.2647  0.3035
11189TIP3    H155058   4.659   0.100  17.105 -2.1818  1.0302  0.5583
11189TIP3    H255059   4.676   0.056  16.961 -2.4163 -0.6500  1.0147
11190TIP3   OH255060   2.071   3.169   5.940 -0.2030  0.5254 -0.1674
11190TIP3    H155061   2.160   3.158   5.975 -0.7217  0.5438  1.2272
11190TIP3    H255062   2.048   3.082   5.908 -0.1791  0.1842  0.7138
11191TIP3   OH255063   5.573   0.897   3.466 -0.3136  0.2154  0.0723
11191TIP3    H155064   5.488   0.855   3.452 -0.0997  0.3014 -1.6148
11191TIP3    H255065   5.584   0.895   3.561 -1.9411 -0.3039  0.2929
11192TIP3   OH255066   1.674   3.112   0.000  0.0527  0.0649 -0.2536
11192TIP3    H155067   1.729   3.042  -0.036  0.0467  1.2473 -2.7514
11192TIP3    H255068   1.728   3.150   0.069  0.9346 -1.0113 -0.3091
11193TIP3   OH255069   1.900   3.709  13.108 -0.1532 -0.0615  0.2146
11193TIP3    H155070   1.851   3.774  13.158 -0.6336 -0.5797  0.4259
11193TIP3    H255071   1.853   3.703  13.024 -0.3977 -0.4745  0.3746
11194TIP3   OH255072   6.645   2.691   2.821 -0.5370 -0.4232  0.1196
11194TIP3    H155073   6.602   2.711   2.904  0.4260 -0.6184  0.6768
11194TIP3    H255074   6.738   2.703   2.838 -0.3725  0.2737 -1.1445
11195TIP3   OH255075   2.278   2.762   2.428  0.1238 -0.2879 -0.2132
11195TIP3    H155076   2.267   2.678   2.473  1.3250 -0.3443  0.0087
11195TIP3    H255077   2.336   2.811   2.485 -2.7402  1.8354  1.1331
11196TIP3   OH255078   4.718   3.054  15.720 -0.0924  0.2419  0.1274
11196TIP3    H155079   4.654   3.110  15.677 -2.5529 -2.5396 -0.1365
11196TIP3    H255080   4.715   3.080  15.812  0.4710  1.9437 -0.3020
11197TIP3   OH255081   4.176   0.079   0.112  0.3981  0.1682  0.3739
11197TIP3    H155082   4.176   0.125   0.028 -0.3620 -0.9886 -0.2797
11197TIP3    H255083   4.195  -0.012   0.089  0.1646 -0.1641  1.4551
11198TIP3   OH255084   0.743   0.530  11.184  0.5082 -0.4434  0.7197
11198TIP3    H155085   0.759   0.614  11.228  1.4701 -1.1464  1.7460
11198TIP3    H255086   0.664   0.496  11.226  0.0929 -0.0473  0.2737
11199TIP3   OH255087   4.646   0.195  14.023  0.6717  0.1988  0.0106
11199TIP3    H155088   4.724   0.238  13.989  1.7327 -0.2595  1.7373
11199TIP3    H255089   4.678   0.116  14.066 -0.9782 -1.0386 -0.9365
11200TIP3   OH255090   0.817   5.901   6.258 -0.2337  0.2150  0.1831
11200TIP3    H155091   0.844   5.972   6.199  1.9238  0.7960  1.7397
11200TIP3    H255092   0.722   5.912   6.267 -0.8765 -0.4475 -3.7561
11201TIP3   OH255093   0.982   6.513  12.381 -0.2180  0.2285  0.2287
11201TIP3    H155094   1.037   6.528  12.458  0.6149 -0.5463 -0.1963
11201TIP3    H255095   0.895   6.541  12.408 -0.1408 -0.8971  1.7834
11202TIP3   OH255096   1.705   2.599   1.957 -0.2576 -0.2024 -0.0327
11202TIP3    H155097   1.662   2.684   1.945  0.0304 -0.1353 -0.5826
11202TIP3    H255098   1.713   2.590   2.052  1.1590  1.1330  0.0196
11203TIP3   OH255099   3.515   5.183  12.875  0.2183 -0.3730 -0.1252
11203TIP3    H155100   3.477   5.238  12.944 -0.4782  0.0442 -0.8174
11203TIP3    H255101   3.509   5.093  12.910 -1.7863 -0.3702 -0.3365
11204TIP3   OH255102   1.563   2.886  11.561  0.1407  0.4624 -0.0623
11204TIP3    H155103   1.557   2.887  11.657 -0.2932 -2.5094  0.0268
11204TIP3    H255104   1.480   2.848  11.533  0.7387  0.2208 -1.5760
11205TIP3   OH255105   1.094   6.664  12.615  0.2824  0.4368 -0.0376
11205TIP3    H155106   1.142   6.746  12.604  1.6348 -0.0130  1.9880
11205TIP3    H255107   1.160   6.596  12.602 -0.3455 -0.2719  0.4332
11206TIP3   OH255108   3.627   6.032  11.989 -0.5987  0.0217  0.4700
11206TIP3    H155109   3.548   6.021  11.937 -1.3846  2.2127  1.0958
11206TIP3    H255110   3.599   6.014  12.079 -0.2261  0.2122  0.6262
11207TIP3   OH255111   1.106   0.378   4.787  0.2100 -0.3890 -0.3830
11207TIP3    H155112   1.034   0.318   4.765  1.1944 -1.4848 -0.6859
11207TIP3    H255113   1.064   0.464   4.789 -0.6752 -0.6804 -2.9334
11208TIP3   OH255114   3.674   0.501   5.588  0.1140  0.0654  0.0022
11208TIP3    H155115   3.598   0.445   5.600  0.1640  0.1959  1.0369
11208TIP3    H255116   3.703   0.521   5.677  0.4987  1.1806 -0.3575
11209TIP3   OH255117   3.881   1.903  15.224  0.3624  0.0039  0.6987
11209TIP3    H155118   3.931   1.825  15.198 -0.4542 -1.2013  2.5399
11209TIP3    H255119   3.947   1.962  15.260  0.6726 -1.0152  1.8671
11210TIP3   OH255120   5.778   3.402  11.321  0.1868 -0.2827  0.2101
11210TIP3    H155121   5.857   3.373  11.273  1.0556  1.4405  0.5280
11210TIP3    H255122   5.738   3.468  11.264  0.5274  0.8650  1.2575
11211TIP3   OH255123   3.551   4.131   3.789  0.1891  0.0440  0.3933
11211TIP3    H155124   3.623   4.071   3.804 -1.0900 -1.0447  2.6967
11211TIP3    H255125   3.519   4.109   3.702  2.1199  0.0710 -0.3830
11212TIP3   OH255126   4.133   1.263   1.471  0.0409 -0.1041  0.4633
11212TIP3    H155127   4.105   1.329   1.409  0.0404  0.2215  0.8057
11212TIP3    H255128   4.186   1.202   1.420 -0.8419 -0.4390 -0.0838
11213TIP3   OH255129   6.344   6.493   3.936  0.1849  0.2234 -0.6356
11213TIP3    H155130   6.408   6.441   3.887 -0.3489 -0.2406 -0.8557
11213TIP3    H255131   6.260   6.473   3.894 -0.2533 -0.0245  0.3363
11214TIP3   OH255132   0.016   6.181  12.672  0.0695 -0.0793  0.0206
11214TIP3    H155133   0.031   6.087  12.673 -1.3722 -0.3552  1.8019
11214TIP3    H255134   0.096   6.218  12.635 -0.1126 -2.0683 -2.6022
11215TIP3   OH255135   6.211   0.607  16.272 -0.1302  0.0870  0.2932
11215TIP3    H155136   6.290   0.570  16.312  0.3879 -0.1796 -0.9207
11215TIP3    H255137   6.242   0.686  16.227 -0.4954 -0.1550 -0.4016
11216TIP3   OH255138   3.197   3.235   0.719 -0.0396  0.3967 -0.2558
11216TIP3    H155139   3.115   3.187   0.707  0.6033 -0.4943 -1.2581
11216TIP3    H255140   3.241   3.190   0.790 -0.4014  0.8772  0.2849
11217TIP3   OH255141   6.304   2.365  13.400 -0.5602 -0.5032 -0.1186
11217TIP3    H155142   6.379   2.425  13.394  0.3282 -1.5906 -0.2240
11217TIP3    H255143   6.306   2.333  13.490 -1.3336 -0.0138  0.0844
11218TIP3   OH255144   2.917   3.970   3.232  0.1114  0.3819  0.2471
11218TIP3    H155145   2.981   3.942   3.166 -0.2045  0.4813 -0.1045
11218TIP3    H255146   2.890   4.057   3.204 -0.7857  0.0185 -0.0741
11219TIP3   OH255147   5.748   0.820   4.555 -0.2003 -0.2413  0.3153
11219TIP3    H155148   5.673   0.765   4.532  0.4779 -0.9983 -0.1414
11219TIP3    H255149   5.824   0.764   4.541  0.5212  0.8199 -0.1854
11220TIP3   OH255150   4.614   5.686  15.671 -0.1944 -0.5306  0.0693
11220TIP3    H155151   4.648   5.601  15.697 -1.0091 -1.2599 -1.1285
11220TIP3    H255152   4.576   5.671  15.584 -0.5943  0.9966 -0.0548
11221TIP3   OH255153   6.773   3.726   5.043 -0.0075  0.6347  0.3452
11221TIP3    H155154   6.756   3.800   5.101 -0.1553 -0.3136  1.5573
11221TIP3    H255155   6.862   3.739   5.012 -1.0923  3.0617 -2.1474
11222TIP3   OH255156   5.651   5.906   4.724  0.3523  0.4284  0.2249
11222TIP3    H155157   5.672   5.812   4.724 -0.2049  0.2848 -1.0682
11222TIP3    H255158   5.645   5.929   4.817 -0.0478 -0.9428  0.5630
11223TIP3   OH255159   0.474   6.635   4.065  0.3166  0.5338  0.3309
11223TIP3    H155160   0.555   6.606   4.023  2.0189 -0.9073  4.1533
11223TIP3    H255161   0.491   6.727   4.088  0.8758  0.2831  0.9740
11224TIP3   OH255162   2.366   5.280   0.640 -0.0508  0.2726  0.3463
11224TIP3    H155163   2.318   5.315   0.565 -1.8785 -2.6699 -0.0146
11224TIP3    H255164   2.299   5.258   0.704  1.1964 -0.3927  1.4764
11225TIP3   OH255165   4.450   5.062   4.058 -0.5327  0.0642 -0.0100
11225TIP3    H155166   4.395   5.140   4.054  0.9057  1.2096  1.2711
11225TIP3    H255167   4.446   5.025   3.970 -1.7507  1.2179 -0.4715
11226TIP3   OH255168   6.713   5.538   0.058  0.3228  0.2302  0.2965
11226TIP3    H155169   6.808   5.529   0.044  0.2265 -0.0370 -0.1938
11226TIP3    H255170   6.675   5.463   0.011 -0.2264  1.0399 -0.5722
11227TIP3   OH255171   0.612   3.359  14.568 -0.1579  0.4163  0.6285
11227TIP3    H155172   0.663   3.404  14.500  0.9376  0.8463  1.6967
11227TIP3    H255173   0.671   3.290  14.600 -1.5060 -1.3112 -0.4036
11228TIP3   OH255174   5.277   3.662  16.861  0.0775  0.2533  0.4198
11228TIP3    H155175   5.266   3.588  16.801 -1.6572  0.6593  0.1676
11228TIP3    H255176   5.309   3.622  16.942  0.4985 -0.5734 -0.1300
11229TIP3   OH255177   6.709   0.164   4.717  0.4375 -0.1960  0.0493
11229TIP3    H155178   6.794   0.151   4.758 -0.5502 -0.3141  2.2205
11229TIP3    H255179   6.655   0.093   4.751 -0.6004 -0.0029 -1.1257
11230TIP3   OH255180   6.241   5.134  17.236 -0.3003  0.5739 -0.0297
11230TIP3    H155181   6.183   5.190  17.184  0.9926  0.2463 -1.8915
11230TIP3    H255182   6.200   5.133  17.323 -1.1363  3.2412 -0.2968
11231TIP3   OH255183   2.135   5.007  15.096 -0.0597 -0.7574  0.2565
11231TIP3    H155184   2.043   5.014  15.119  0.3603  0.8861  1.7234
11231TIP3    H255185   2.137   4.956  15.015 -2.1765 -1.3924  0.5621
11232TIP3   OH255186   0.181   4.648  15.456  0.5708 -0.0060  1.0833
11232TIP3    H155187   0.092   4.623  15.481 -0.7228  3.3112  0.4334
11232TIP3    H255188   0.231   4.644  15.537 -0.0730 -2.1365  1.4226
11233TIP3   OH255189   4.649   2.529  14.429  0.1736  0.5236  0.5756
11233TIP3    H155190   4.599   2.589  14.484  0.7851  1.9401 -0.3490
11233TIP3    H255191   4.741   2.554  14.443  0.3263  1.1129 -1.2523
11234TIP3   OH255192   6.266   6.222   5.909 -0.1254 -0.5809 -0.5656
11234TIP3    H155193   6.355   6.254   5.929  0.7244 -1.6032 -2.4647
11234TIP3    H255194   6.258   6.142   5.961 -0.5165  0.2649  0.7133
11235TIP3   OH255195   0.830   1.028  10.360 -0.0027 -0.6186  0.0622
11235TIP3    H155196   0.775   0.954  10.386  1.0331 -1.2077  0.6084
11235TIP3    H255197   0.892   1.040  10.432  0.8152 -0.1881 -0.6868
11236TIP3   OH255198   1.436   4.406   2.871  0.1665 -0.5782 -0.7807
11236TIP3    H155199   1.388   4.323   2.874 -1.7090  0.4731  0.1802
11236TIP3    H255200   1.443   4.433   2.962  0.0670  0.6723 -1.1257
11237TIP3   OH255201   5.907   5.019  15.323 -0.2671  0.1356  0.1270
11237TIP3    H155202   5.977   5.084  15.316 -0.9557  0.8208 -0.6745
11237TIP3    H255203   5.835   5.058  15.274 -1.2244 -0.5382  0.9762
11238TIP3   OH255204   4.895   4.491   1.463  0.8424  0.3405 -0.1591
11238TIP3    H155205   4.874   4.543   1.540  1.8449  0.8763 -0.2325
11238TIP3    H255206   4.906   4.402   1.497  0.5637  0.4357  0.1944
11239TIP3   OH255207   3.291   3.824   3.256 -0.5517  0.4753  0.2032
11239TIP3    H155208   3.323   3.784   3.175  1.6993  0.0273  1.2209
11239TIP3    H255209   3.287   3.918   3.236 -0.4672  0.3191 -0.5707
11240TIP3   OH255210   6.399   2.221   0.414  0.3321 -0.2883 -0.7484
11240TIP3    H155211   6.354   2.138   0.396 -0.9651  0.3363 -0.4812
11240TIP3    H255212   6.382   2.237   0.506 -0.1902  0.7149 -1.0114
11241TIP3   OH255213   5.217   3.113  12.735 -0.9891 -0.0556  0.5603
11241TIP3    H155214   5.200   3.112  12.641 -1.5644  0.8047  0.6499
11241TIP3    H255215   5.184   3.029  12.767  0.0475 -0.7563 -0.1345
11242TIP3   OH255216   4.169   5.617  12.596 -0.5105 -0.7028  0.5119
11242TIP3    H155217   4.131   5.568  12.523  1.3572 -1.5718  0.0802
11242TIP3    H255218   4.261   5.629  12.572 -0.6067  2.0353  1.1444
11243TIP3   OH255219   2.905   2.675  13.189 -0.2892 -0.6912 -0.6632
11243TIP3    H155220   2.978   2.659  13.250  0.3575  0.4372 -1.0909
11243TIP3    H255221   2.913   2.606  13.123 -1.2324 -2.1590  0.7070
11244TIP3   OH255222   5.360   6.478  17.025  0.2149 -0.4041  0.2140
11244TIP3    H155223   5.306   6.414  17.071 -2.2218 -0.1199 -2.0162
11244TIP3    H255224   5.381   6.437  16.942 -2.7767  2.0409 -1.9916
11245TIP3   OH255225   5.731   2.897  11.989 -0.1484  0.7281  0.0223
11245TIP3    H155226   5.683   2.936  12.061  0.1268  0.2630  0.4650
11245TIP3    H255227   5.695   2.938  11.910 -1.7513 -0.1072  0.2738
11246TIP3   OH255228   5.570   2.272  12.082  0.3494  0.5171  0.2012
11246TIP3    H155229   5.594   2.279  12.175 -1.6912  1.0327  0.7290
11246TIP3    H255230   5.633   2.328  12.037  1.6812 -0.1163  1.1768
11247TIP3   OH255231   2.905   2.511   4.460  0.4416 -0.0154  0.4883
11247TIP3    H155232   2.938   2.596   4.431  1.3041 -0.4785  0.0827
11247TIP3    H255233   2.897   2.460   4.379  1.8508 -0.9791  0.9327
11248TIP3   OH255234   2.308   1.974   3.063  0.1371 -0.2123  0.2014
11248TIP3    H155235   2.286   2.057   3.020  0.4946 -0.4909 -0.5335
11248TIP3    H255236   2.229   1.952   3.113  0.2966  0.9291  0.9969
11249TIP3   OH255237   0.971   3.726  11.278  0.3171  0.3315 -0.3101
11249TIP3    H155238   1.044   3.730  11.341  0.1613 -1.5790  0.0542
11249TIP3    H255239   1.013   3.717  11.193  0.5800 -2.2067  0.0214
11250TIP3   OH255240   5.076   2.852  12.793 -0.6833  0.1593  0.5428
11250TIP3    H155241   5.002   2.880  12.848  0.3893  1.6737  1.2791
11250TIP3    H255242   5.132   2.801  12.852 -1.1726 -1.1175 -0.0543
11251TIP3   OH255243   0.036   3.032   5.043 -0.2505  0.4330  0.1507
11251TIP3    H155244  -0.016   2.970   5.093 -0.9257 -0.6923 -1.8360
11251TIP3    H255245   0.007   3.118   5.073 -2.0170 -0.1944  0.3310
11252TIP3   OH255246   0.549   5.867   0.141 -0.2300  0.0631  0.1197
11252TIP3    H155247   0.503   5.793   0.101  1.4253 -1.6273  1.1789
11252TIP3    H255248   0.635   5.868   0.098  0.8512 -0.5600  2.1372
11253TIP3   OH255249   3.301   2.641  13.957 -0.7980 -0.8910 -0.3615
11253TIP3    H155250   3.288   2.609  14.047 -0.5488 -0.0051  0.0042
11253TIP3    H255251   3.290   2.564  13.902 -0.1303 -1.6208  0.4991
11254TIP3   OH255252   3.476   5.221  13.307 -0.2028  0.0104 -0.4498
11254TIP3    H155253   3.534   5.191  13.237 -0.3899  0.6547 -0.8867
11254TIP3    H255254   3.432   5.297  13.271 -0.8450 -0.0834  0.1152
11255TIP3   OH255255   3.819   5.896   2.923 -0.2652  0.3796  0.2598
11255TIP3    H155256   3.738   5.845   2.920  0.4284 -0.7246  0.0670
11255TIP3    H255257   3.812   5.956   2.848 -2.0223  2.0735  1.6790
11256TIP3   OH255258   5.385   5.656  16.762  0.4794 -0.2570 -0.2929
11256TIP3    H155259   5.446   5.627  16.830  0.2326 -0.4350 -0.1471
11256TIP3    H255260   5.409   5.747  16.745 -0.4140  0.2699  1.0881
11257TIP3   OH255261   4.916   6.765  17.057  0.0062 -0.2693  0.2205
11257TIP3    H155262   4.845   6.785  17.117 -0.6056 -0.0378 -0.5679
11257TIP3    H255263   4.988   6.823  17.085 -0.2783 -0.1487  0.7060
11258TIP3   OH255264   2.098   6.283  16.407 -0.0275 -0.3750 -0.0636
11258TIP3    H155265   2.023   6.300  16.465  0.4106 -0.4030  0.5303
11258TIP3    H255266   2.135   6.202  16.441  0.7062  0.0267  0.1231
11259TIP3   OH255267   6.797   5.257   2.931 -0.7130  0.3070  0.1640
11259TIP3    H155268   6.729   5.204   2.890  0.4325 -0.9198 -0.2292
11259TIP3    H255269   6.783   5.247   3.025 -0.3772 -0.9187  0.0994
11260TIP3   OH255270   3.668   4.041  11.251  0.4526  0.4853  0.2260
11260TIP3    H155271   3.733   4.022  11.319 -0.5950 -2.7787  0.4651
11260TIP3    H255272   3.708   4.008  11.171 -0.3215 -0.2497  0.1365
11261TIP3   OH255273   0.063   1.219  15.408 -0.0652 -0.1211 -0.1264
11261TIP3    H155274  -0.023   1.202  15.444  0.4347 -0.6666  0.8523
11261TIP3    H255275   0.117   1.146  15.439  0.3103 -0.8558 -2.2895
11262TIP3   OH255276   5.822   2.456  12.632  0.0762  0.1787 -0.0579
11262TIP3    H155277   5.729   2.433  12.624  0.0775  0.8192 -2.4007
11262TIP3    H255278   5.866   2.371  12.643 -0.6768 -0.2377 -0.1598
11263TIP3   OH255279   4.418   3.338  15.956  0.5757  0.6404  0.3438
11263TIP3    H155280   4.422   3.251  15.916  0.2779  2.2062 -3.6186
11263TIP3    H255281   4.508   3.370  15.952  0.4594  0.9942  0.5080
11264TIP3   OH255282   1.759   2.591  13.698  0.0808 -0.1135  0.7262
11264TIP3    H155283   1.696   2.607  13.769 -0.2924 -1.5503  0.7337
11264TIP3    H255284   1.754   2.497  13.681 -1.4356  0.4481 -2.7304
11265TIP3   OH255285   6.724   4.785  12.945 -0.8079 -0.5270  0.4758
11265TIP3    H155286   6.802   4.820  12.989  0.0526 -3.0707  1.1766
11265TIP3    H255287   6.758   4.745  12.865 -1.5009 -0.9925  0.4062
11266TIP3   OH255288   2.533   3.237  15.669 -0.0312  0.0522  0.2218
11266TIP3    H155289   2.544   3.316  15.615 -0.8635 -0.9387 -1.4817
11266TIP3    H255290   2.534   3.165  15.606 -1.5254 -1.1369  1.4932
11267TIP3   OH255291   6.535   2.454  15.291  0.0962 -0.0161  0.5141
11267TIP3    H155292   6.523   2.536  15.243 -2.1136  0.1118  1.1778
11267TIP3    H255293   6.452   2.442  15.338  1.0109 -1.7728  1.7566
11268TIP3   OH255294   4.467   6.443   1.149 -0.1060  0.3168 -0.5980
11268TIP3    H155295   4.542   6.395   1.184 -0.0463 -0.6398 -1.9562
11268TIP3    H255296   4.477   6.531   1.184  1.1621 -0.0134 -0.0490
11269TIP3   OH255297   5.729   4.682  15.912  1.1808  0.2861  0.0915
11269TIP3    H155298   5.786   4.661  15.838  1.7168 -0.4246  0.6862
11269TIP3    H255299   5.743   4.775  15.929  1.1351  0.4269 -0.6276
11270TIP3   OH255300   4.263   1.143  15.623 -0.5277  0.2094 -0.3572
11270TIP3    H155301   4.211   1.089  15.563  0.6501  0.9483 -2.1132
11270TIP3    H255302   4.200   1.206  15.659 -0.9184  1.1201 -2.4751
11271TIP3   OH255303   5.478   3.028   1.713  0.1086  0.4707  0.2799
11271TIP3    H155304   5.407   3.015   1.651 -0.4027 -1.4662  1.1931
11271TIP3    H255305   5.551   3.059   1.660 -0.0704 -1.8013 -1.4591
11272TIP3   OH255306   4.032   4.502  13.130 -0.1209  0.3501 -0.3559
11272TIP3    H155307   3.959   4.543  13.177 -0.5148 -1.7173  0.9800
11272TIP3    H255308   4.106   4.560  13.147 -0.6046  0.4754  1.5919
11273TIP3   OH255309   4.532   0.602  13.576  0.1431 -0.3351 -0.0617
11273TIP3    H155310   4.462   0.643  13.526 -0.1099 -0.2373  0.3631
11273TIP3    H255311   4.612   0.634  13.536  0.0247  2.4247  1.6289
11274TIP3   OH255312   5.890   0.163  16.541  0.3341  0.1724 -0.3763
11274TIP3    H155313   5.857   0.193  16.456 -0.5314 -2.6552 -1.1796
11274TIP3    H255314   5.983   0.145  16.525  0.4593  0.7903 -0.3630
11275TIP3   OH255315   6.314   6.400  12.628  0.8133  0.4113  0.3667
11275TIP3    H155316   6.409   6.412  12.621  0.8991  0.7517  1.9342
11275TIP3    H255317   6.277   6.472  12.577  1.3940  0.8282  0.5228
11276TIP3   OH255318   0.634   1.573   3.340 -0.2861 -0.6744  0.3002
11276TIP3    H155319   0.626   1.504   3.406  2.0947  0.0180  1.4187
11276TIP3    H255320   0.656   1.526   3.260  0.7816 -1.2898  0.9265
11277TIP3   OH255321   1.271   4.198   4.281 -0.1808 -0.2143  0.4067
11277TIP3    H155322   1.229   4.183   4.196  1.2232 -0.1268 -0.3319
11277TIP3    H255323   1.302   4.111   4.307 -0.0029 -0.1189  0.5085
11278TIP3   OH255324   1.744   3.090   2.879  1.0056 -0.2128  0.7147
11278TIP3    H155325   1.677   3.158   2.891 -0.4708 -1.3072 -0.9040
11278TIP3    H255326   1.814   3.134   2.831  0.7787  0.5487  1.0612
11279TIP3   OH255327   5.999   3.412  15.948  0.2480  0.0413 -0.1687
11279TIP3    H155328   6.056   3.364  16.008  1.8109 -0.4533 -1.9319
11279TIP3    H255329   5.969   3.487  15.999 -0.5798 -1.6518  2.0056
11280TIP3   OH255330   0.772   1.190   1.296  0.0121 -0.5597 -0.3900
11280TIP3    H155331   0.774   1.285   1.281 -0.7769 -0.4319  0.2142
11280TIP3    H255332   0.685   1.163   1.267 -0.1444 -0.9184  0.3814
11281TIP3   OH255333   3.602   1.334   5.068  0.4022 -0.4573 -0.1994
11281TIP3    H155334   3.675   1.286   5.031  1.4254  0.8607  0.0153
11281TIP3    H255335   3.612   1.423   5.033 -0.3571  0.0594  0.8307
11282TIP3   OH255336   1.119   2.545   2.586  0.3257  0.0823  0.1616
11282TIP3    H155337   1.197   2.546   2.531  0.2709 -1.3966  0.0331
11282TIP3    H255338   1.047   2.530   2.524  0.1201 -0.2201  0.4748
11283TIP3   OH255339   2.789   5.077  12.138  0.6295 -0.3393  0.2076
11283TIP3    H155340   2.744   5.024  12.072 -0.3415  0.4931  0.1784
11283TIP3    H255341   2.740   5.158  12.141  2.1297  0.6114  0.2102
11284TIP3   OH255342   2.780   0.693  13.174  0.4790 -0.3539 -0.2053
11284TIP3    H155343   2.764   0.607  13.214 -2.4796  0.3610  0.4194
11284TIP3    H255344   2.698   0.713  13.128  1.3642  1.8291 -0.9575
11285TIP3   OH255345   1.547   2.722  14.174 -0.4277  0.5616 -0.2596
11285TIP3    H155346   1.570   2.800  14.224  1.5220 -0.1255  0.0292
11285TIP3    H255347   1.546   2.652  14.239  0.9790 -0.1472 -0.9555
11286TIP3   OH255348   6.176   0.557   3.118 -0.1826 -0.1738  0.3939
11286TIP3    H155349   6.256   0.579   3.072  0.1712  0.3317  1.2328
11286TIP3    H255350   6.132   0.641   3.133 -1.5704 -0.5265 -1.2354
11287TIP3   OH255351   3.309   6.694   4.386  0.8134 -0.5947 -0.8015
11287TIP3    H155352   3.292   6.788   4.382  2.4847 -0.2738 -4.1520
11287TIP3    H255353   3.357   6.681   4.468 -1.2001  1.0539  0.7215
11288TIP3   OH255354   6.231   1.071  13.915 -0.3525  0.3364 -0.2038
11288TIP3    H155355   6.246   1.102  14.004 -1.7007 -1.5493  0.7400
11288TIP3    H255356   6.234   0.975  13.922  1.4610  0.1253 -2.5641
11289TIP3   OH255357   6.672   6.372   4.029 -0.9771  0.5447 -0.1954
11289TIP3    H155358   6.675   6.461   3.992 -0.1353  0.3020 -0.7392
11289TIP3    H255359   6.681   6.314   3.953  0.8101  0.0348  0.3668
11290TIP3   OH255360   4.718   6.329  16.210 -0.2871  0.2467  0.4446
11290TIP3    H155361   4.790   6.265  16.209  0.9066  1.5108 -2.0846
11290TIP3    H255362   4.719   6.365  16.299  0.2148 -1.8658  1.3524
11291TIP3   OH255363   1.534   4.367   4.066 -0.0847 -0.0954  0.1693
11291TIP3    H155364   1.536   4.303   4.137  0.6810 -0.5438 -0.2422
11291TIP3    H255365   1.449   4.411   4.075 -0.5037 -0.9767  0.6235
11292TIP3   OH255366   0.098   1.434  15.602  0.1934  0.0819  0.8835
11292TIP3    H155367   0.098   1.395  15.515 -2.5525  0.4444  0.6529
11292TIP3    H255368   0.021   1.490  15.604  1.9299  2.6134  2.5046
11293TIP3   OH255369   1.908   4.388  12.124  0.4458 -0.0408  0.0481
11293TIP3    H155370   1.824   4.391  12.078  0.8356  0.4848 -0.6553
11293TIP3    H255371   1.889   4.424  12.210 -0.1224 -0.2466  0.0110
11294TIP3   OH255372   0.414   4.467   5.280  0.4540  0.1484  0.0306
11294TIP3    H155373   0.374   4.397   5.228 -0.4527 -1.6124  2.8602
11294TIP3    H255374   0.354   4.541   5.271 -1.3780 -1.1527  1.0179
11295TIP3   OH255375   3.068   1.790   2.934  0.2268 -0.6261 -0.1200
11295TIP3    H155376   3.140   1.793   2.996 -1.1793 -1.2332  1.6282
11295TIP3    H255377   3.050   1.697   2.922  0.0495 -0.4987 -0.9526
11296TIP3   OH255378   3.880   1.159   0.243 -0.1828 -0.1638 -0.1610
11296TIP3    H155379   3.788   1.183   0.245 -0.2345 -0.3589 -0.1596
11296TIP3    H255380   3.927   1.242   0.251 -0.3595 -0.0867  0.0868
11297TIP3   OH255381   5.301   4.501   4.226  0.2091  0.2361 -0.3887
11297TIP3    H155382   5.231   4.567   4.231 -0.7511 -0.5821 -1.9968
11297TIP3    H255383   5.270   4.429   4.280  1.3742  1.1306  1.5737
11298TIP3   OH255384   5.371   0.234   2.032  0.1814  0.1083  0.2465
11298TIP3    H155385   5.298   0.173   2.045 -0.6920  1.2214  0.7832
11298TIP3    H255386   5.331   0.320   2.037  1.4271  0.7419 -0.2506
11299TIP3   OH255387   0.392   0.221   4.763  0.3893 -0.0391  0.2863
11299TIP3    H155388   0.464   0.247   4.820  0.0617 -0.0472  0.7127
11299TIP3    H255389   0.315   0.263   4.801  0.0994 -0.3883  0.0961
11300TIP3   OH255390   0.543   1.067  14.078  0.4877  0.4365 -0.2984
11300TIP3    H155391   0.469   1.057  14.137 -0.8474  0.7480 -1.8534
11300TIP3    H255392   0.603   1.125  14.125  0.0095 -0.2070  1.1896
11301TIP3   OH255393   6.201   2.590  14.720 -0.1733  0.6924 -0.3308
11301TIP3    H155394   6.279   2.628  14.760 -0.2462  0.9644 -0.4443
11301TIP3    H255395   6.168   2.528  14.785 -0.7011  1.6464  0.3448
11302TIP3   OH255396   6.163   0.442  12.913  0.3794  0.1701 -0.2084
11302TIP3    H155397   6.177   0.459  12.820  0.9064  0.2994 -0.1051
11302TIP3    H255398   6.141   0.349  12.918  0.9156  0.0307 -0.3992
11303TIP3   OH255399   5.943   4.595  13.693 -0.2406  0.2502  1.0671
11303TIP3    H155400   5.979   4.682  13.673 -2.0809  0.8184 -0.0216
11303TIP3    H255401   6.003   4.534  13.653  1.1099  0.9989  1.8758
11304TIP3   OH255402   1.012   0.324  11.263  0.4749 -0.3371  0.0878
11304TIP3    H155403   0.918   0.340  11.264  0.4056 -0.7454  0.5465
11304TIP3    H255404   1.029   0.287  11.176  0.3115  0.2706 -0.2070
11305TIP3   OH255405   2.375   3.585  17.173  0.5052 -0.2115 -0.3440
11305TIP3    H155406   2.435   3.655  17.150  1.1647 -1.0684 -1.3531
11305TIP3    H255407   2.327   3.618  17.249  0.2783  1.6028 -1.2224
11306TIP3   OH255408   6.703   3.604  11.156  0.2659  0.3470 -0.6708
11306TIP3    H155409   6.654   3.685  11.168  1.0438  0.6484  0.8052
11306TIP3    H255410   6.674   3.570  11.072 -0.2083  2.0691 -1.2525
11307TIP3   OH255411   3.813   5.942   1.530 -0.0327  0.2055 -0.4388
11307TIP3    H155412   3.785   5.923   1.441  1.3496 -1.6676 -0.5329
11307TIP3    H255413   3.904   5.970   1.521  0.2197 -0.3234  0.4001
11308TIP3   OH255414   4.316   0.759  10.474 -0.0669 -0.0531 -0.2534
11308TIP3    H155415   4.331   0.710  10.555  0.7805  1.8846  0.8226
11308TIP3    H255416   4.223   0.746  10.455 -0.1798 -0.8901  0.7701
11309TIP3   OH255417   5.982   6.315  13.131 -0.1912  0.4291 -0.2923
11309TIP3    H155418   5.973   6.380  13.201 -0.1445 -1.0330  1.1161
11309TIP3    H255419   5.914   6.251  13.148  0.1266 -0.2092 -1.3266
11310TIP3   OH255420   0.184   4.136   4.178  0.0952 -0.0237 -0.5106
11310TIP3    H155421   0.253   4.148   4.244 -0.0312  2.7892 -0.7506
11310TIP3    H255422   0.190   4.214   4.123 -2.5062 -0.2519 -1.2536
11311TIP3   OH255423   2.222   6.010  13.116 -0.2638  0.0935  0.6622
11311TIP3    H155424   2.311   6.012  13.080 -0.4630  2.0659  0.1259
11311TIP3    H255425   2.172   6.069  13.059 -1.0449  1.8922  3.0450
11312TIP3   OH255426   3.651   1.527  14.749 -0.0577  0.1075  0.4167
11312TIP3    H155427   3.600   1.515  14.829  1.2421  2.3421  1.7080
11312TIP3    H255428   3.607   1.473  14.684 -1.9013 -0.8461  2.3255
11313TIP3   OH255429   2.728   3.256  11.423 -0.2222  0.2370 -0.1868
11313TIP3    H155430   2.680   3.173  11.427  0.3926 -0.0646  2.3306
11313TIP3    H255431   2.672   3.319  11.468  0.4196  0.5741  0.1591
11314TIP3   OH255432   1.902   5.078  16.949 -0.4726 -0.2154 -0.0744
11314TIP3    H155433   1.975   5.139  16.941  0.7081 -0.8407  3.7804
11314TIP3    H255434   1.933   4.999  16.904  0.8436 -0.1258  0.6017
11315TIP3   OH255435   0.409   5.295   0.577 -0.1270  0.1605  0.4539
11315TIP3    H155436   0.444   5.245   0.651 -1.8278 -1.3251  0.3349
11315TIP3    H255437   0.485   5.314   0.522  0.7967 -0.9335  1.3184
11316TIP3   OH255438   5.037   0.669  11.494  0.3378 -0.0622 -0.6989
11316TIP3    H155439   5.120   0.684  11.448  0.7613 -2.3961 -0.7933
11316TIP3    H255440   5.058   0.606  11.562 -1.3956 -0.8493 -0.8491
11317TIP3   OH255441   3.493   6.401   6.162  0.5556 -0.2372  0.3275
11317TIP3    H155442   3.512   6.317   6.204  1.6694  0.2515  0.8567
11317TIP3    H255443   3.454   6.378   6.078  1.9139 -1.3237 -0.0352
11318TIP3   OH255444   3.066   5.008   4.079  0.1457  0.8007 -0.6578
11318TIP3    H155445   3.115   4.950   4.137  1.7700  0.4634 -2.2847
11318TIP3    H255446   3.040   4.952   4.006 -0.5097  1.5611 -1.0244
11319TIP3   OH255447   2.851   6.663  16.834 -0.1160  0.9277  0.4072
11319TIP3    H155448   2.824   6.685  16.744 -0.5207  1.0339  0.5485
11319TIP3    H255449   2.880   6.572  16.829 -4.2613 -0.6471  0.9597
11320TIP3   OH255450   1.086   0.706   4.665  0.5379 -0.0402 -0.1985
11320TIP3    H155451   1.141   0.661   4.602 -0.2072 -1.2614 -0.0076
11320TIP3    H255452   1.000   0.663   4.658  0.6505 -0.8154  2.2109
11321TIP3   OH255453   1.907   5.368  13.922  0.2467  0.1336 -0.7035
11321TIP3    H155454   1.833   5.397  13.869  2.1398  0.7927 -3.1285
11321TIP3    H255455   1.912   5.274  13.905 -1.3257 -0.4056  1.3011
11322TIP3   OH255456   3.624   1.785   1.245 -0.1252 -0.1889 -0.2151
11322TIP3    H155457   3.617   1.870   1.288  0.5875 -0.3565  0.2417
11322TIP3    H255458   3.541   1.776   1.197 -0.1707  0.7984 -0.3449
11323TIP3   OH255459   6.363   6.318  14.701  0.2570 -0.4045 -0.1537
11323TIP3    H155460   6.326   6.249  14.646  0.6500  0.3662 -1.4209
11323TIP3    H255461   6.301   6.327  14.773  0.1907 -2.0608  0.0462
11324TIP3   OH255462   0.312   0.214  11.463 -0.1069 -0.2445  0.1377
11324TIP3    H155463   0.400   0.184  11.485  0.4939  1.3130 -0.0001
11324TIP3    H255464   0.273   0.235  11.548 -0.4355 -1.1405  0.2144
11325TIP3   OH255465   3.146   2.854  11.831 -0.2954 -0.0341  0.8029
11325TIP3    H155466   3.236   2.829  11.810 -0.1854  0.7990  0.2260
11325TIP3    H255467   3.111   2.890  11.749 -1.0692 -0.0960  1.0920
11326TIP3   OH255468   3.065   5.672   5.616 -0.8204 -0.2521 -0.1239
11326TIP3    H155469   3.012   5.612   5.562 -0.2412  0.0681 -1.0640
11326TIP3    H255470   3.154   5.662   5.582 -0.4039 -0.1987  0.9266
11327TIP3   OH255471   1.593   2.863   2.907  0.0903 -0.1210 -0.2915
11327TIP3    H155472   1.612   2.957   2.903 -0.4906 -0.0303 -1.2602
11327TIP3    H255473   1.579   2.846   3.000  1.2153  0.5343  0.0303
11328TIP3   OH255474   3.755   5.226   5.842  0.4107 -0.3163  0.5170
11328TIP3    H155475   3.669   5.237   5.883 -0.1523  1.1400 -0.9179
11328TIP3    H255476   3.771   5.310   5.798  1.6148 -1.2865 -1.0022
11329TIP3   OH255477   2.378   6.620  14.488 -0.3368  0.3702 -0.6337
11329TIP3    H155478   2.353   6.578  14.570  0.9158  0.0651 -0.3938
11329TIP3    H255479   2.295   6.630  14.440 -1.0730  0.5179  0.6333
11330TIP3   OH255480   0.324   4.845  14.808 -0.3341  0.4312  0.6836
11330TIP3    H155481   0.289   4.770  14.856 -0.8012 -0.5046 -1.0411
11330TIP3    H255482   0.281   4.921  14.848 -3.1105 -0.5484 -0.1907
11331TIP3   OH255483   0.056   4.724  11.611 -0.7097  0.1221  0.4427
11331TIP3    H155484   0.029   4.632  11.611  1.9312 -0.7711 -1.4056
11331TIP3    H255485   0.040   4.754  11.521 -0.3949  1.0902  0.6911
11332TIP3   OH255486   2.024   5.185  11.727 -0.5061 -0.2863 -0.0280
11332TIP3    H155487   1.968   5.131  11.671 -1.2269 -0.9619  1.2924
11332TIP3    H255488   2.040   5.130  11.804  0.7665  0.4683  0.2757
11333TIP3   OH255489   0.077   0.499  14.852  0.1604  0.6855 -0.1448
11333TIP3    H155490  -0.010   0.458  14.859 -0.4002  1.6594 -1.0409
11333TIP3    H255491   0.087   0.517  14.759  1.3470  0.5911 -0.0483
11334TIP3   OH255492   4.370   4.008  13.064  0.4682 -0.2348  0.2210
11334TIP3    H155493   4.394   4.006  13.157  1.1067 -2.1824  0.0607
11334TIP3    H255494   4.280   3.975  13.061 -0.1010  1.2211  0.2417
11335TIP3   OH255495   1.874   5.519   2.548  0.2914  0.6746  0.2872
11335TIP3    H155496   1.921   5.440   2.575  0.7899  0.7216 -0.4425
11335TIP3    H255497   1.873   5.574   2.627 -1.1219 -0.5400  1.1873
11336TIP3   OH255498   1.630   0.893   3.484 -0.1944 -0.3263  0.0353
11336TIP3    H155499   1.675   0.829   3.539  0.9163 -1.1396 -1.7418
11336TIP3    H255500   1.567   0.934   3.543  0.3009 -1.7827  1.6819
11337TIP3   OH255501   5.288   0.056   0.876  0.0525 -0.5746 -0.0663
11337TIP3    H155502   5.269   0.066   0.783  3.4328  1.3272 -0.7172
11337TIP3    H255503   5.292   0.146   0.909 -0.7461 -1.2039  1.8832
11338TIP3   OH255504   6.646   1.773  12.100 -0.0191  0.0543 -0.1873
11338TIP3    H155505   6.660   1.752  12.007 -1.4704 -0.2435 -0.3593
11338TIP3    H255506   6.700   1.851  12.115 -1.7476  1.7269 -2.0129
11339TIP3   OH255507   2.256   1.326  14.119  0.0835  0.0665  0.2628
11339TIP3    H155508   2.246   1.416  14.150  2.0576  0.6215 -0.5450
11339TIP3    H255509   2.175   1.282  14.146 -0.0345  1.5187  2.5512
11340TIP3   OH255510   5.482   6.445  14.765  0.3952  0.2576 -0.1153
11340TIP3    H155511   5.499   6.370  14.707  0.2920  0.6058 -0.6011
11340TIP3    H255512   5.390   6.436  14.788  0.9998 -1.2632  1.9901
11341TIP3   OH255513   1.899   2.880  12.650 -0.1673 -0.0948  0.1401
11341TIP3    H155514   1.873   2.913  12.736 -1.2652 -1.1479  0.2299
11341TIP3    H255515   1.824   2.897  12.594  1.2768  2.4939 -1.1949
11342TIP3   OH255516   3.374   3.373  11.555 -0.0671 -0.0072  0.3548
11342TIP3    H155517   3.405   3.340  11.640  0.4009 -2.4952 -0.7008
11342TIP3    H255518   3.297   3.320  11.535 -0.7017  1.1674 -0.3965
11343TIP3   OH255519   3.993   3.120  11.389 -0.2975  0.0060  0.6429
11343TIP3    H155520   3.918   3.121  11.329 -0.3328 -1.0861  0.6512
11343TIP3    H255521   4.068   3.099  11.333  0.5080  3.4388  0.1533
11344TIP3   OH255522   1.524   0.848   1.202  0.8872 -0.0078  0.2630
11344TIP3    H155523   1.476   0.779   1.158  0.5602  0.0461  0.5328
11344TIP3    H255524   1.458   0.895   1.254  1.1452  0.3526  0.2743
11345TIP3   OH255525   1.420   3.724   1.606  0.0921  0.5927 -0.1096
11345TIP3    H155526   1.356   3.786   1.570  0.4243  1.5187  0.8410
11345TIP3    H255527   1.393   3.712   1.697 -0.3020 -1.1441 -0.4068
11346TIP3   OH255528   0.346   4.862   2.168  0.6376  0.4505 -0.0954
11346TIP3    H155529   0.372   4.860   2.260  1.9163  1.0106 -0.4230
11346TIP3    H255530   0.273   4.923   2.165 -0.8008 -1.1279  0.8512
11347TIP3   OH255531   4.049   2.628  13.565  0.4476 -0.1328  0.2776
11347TIP3    H155532   4.078   2.710  13.603 -0.2263  1.7037 -2.7996
11347TIP3    H255533   4.128   2.592  13.524  0.2529  0.3834 -0.5948
11348TIP3   OH255534   1.576   2.536  16.679 -0.0100  0.2447 -0.3667
11348TIP3    H155535   1.631   2.524  16.602 -2.3490  1.2081 -2.2906
11348TIP3    H255536   1.612   2.612  16.723 -0.1828  1.3318 -2.0170
11349TIP3   OH255537   6.377   5.236  12.349  0.3125 -0.2681 -0.3909
11349TIP3    H155538   6.359   5.182  12.273 -1.2981 -0.7841  0.3178
11349TIP3    H255539   6.294   5.278  12.369  0.7404 -0.0258  0.9851
11350TIP3   OH255540   0.856   5.708  16.734 -0.2371  0.2833 -0.1503
11350TIP3    H155541   0.935   5.761  16.733 -0.4742  0.7750  2.0725
11350TIP3    H255542   0.790   5.762  16.690 -0.2322  1.4434  1.2192
11351TIP3   OH255543   1.934   0.916  12.809  0.7399  0.3164 -0.0923
11351TIP3    H155544   1.888   0.837  12.781  2.0278 -0.1151 -1.1236
11351TIP3    H255545   1.985   0.942  12.732 -0.2778  2.6575 -0.0671
11352TIP3   OH255546   3.862   1.157   5.774  0.3555  0.4844 -0.0687
11352TIP3    H155547   3.954   1.130   5.780  0.0420 -0.3825  1.3227
11352TIP3    H255548   3.863   1.250   5.795  0.8881  0.4278  0.1718
11353TIP3   OH255549   2.408   4.504   2.584 -0.1994  0.0738 -0.6770
11353TIP3    H155550   2.351   4.444   2.535 -2.2625  0.8030  0.7141
11353TIP3    H255551   2.494   4.462   2.581 -1.3384 -2.4690 -0.5923
11354TIP3   OH255552   3.016   0.086  16.906 -0.5162 -0.4184 -0.2188
11354TIP3    H155553   2.967   0.006  16.886  1.2980 -1.2289 -1.8472
11354TIP3    H255554   2.964   0.130  16.973 -1.5124 -3.0188  0.8558
11355TIP3   OH255555   1.268   5.722  16.722 -0.0959  0.2350 -0.0477
11355TIP3    H155556   1.228   5.665  16.788 -1.4343  0.2086 -0.8582
11355TIP3    H255557   1.205   5.724  16.650  0.0303  2.5148 -0.1783
11356TIP3   OH255558   4.422   2.448  15.435 -0.3556 -0.0801 -0.4734
11356TIP3    H155559   4.407   2.381  15.502  0.0672 -0.5524 -0.8452
11356TIP3    H255560   4.389   2.409  15.354 -0.9950  0.5458 -0.5229
11357TIP3   OH255561   0.740   0.018  13.849  0.4594  0.8211 -0.1532
11357TIP3    H155562   0.729   0.072  13.771  0.6424  0.2207 -0.6074
11357TIP3    H255563   0.797  -0.054  13.820  0.2701  0.4225  0.4480
11358TIP3   OH255564   6.435   5.520  15.367 -0.1155 -0.0287 -0.0866
11358TIP3    H155565   6.388   5.448  15.408  1.1173 -1.0612 -0.4286
11358TIP3    H255566   6.428   5.592  15.430  1.5457 -1.4937  1.9145
11359TIP3   OH255567   5.363   3.177  15.530 -0.1116  0.2032  0.0123
11359TIP3    H155568   5.270   3.186  15.553  0.4362  0.3509  2.4433
11359TIP3    H255569   5.410   3.213  15.605  1.9378 -1.5885 -0.3010
11360TIP3   OH255570   4.408   4.822   3.086  0.0316  0.1387  0.0765
11360TIP3    H155571   4.337   4.821   3.150 -1.7953 -3.1248 -1.7662
11360TIP3    H255572   4.400   4.908   3.043  0.0972  1.6125  2.7879
11361TIP3   OH255573   1.576   4.864  16.563 -0.6869 -1.2566  0.4495
11361TIP3    H155574   1.634   4.808  16.512  2.1664  1.6171  0.2536
11361TIP3    H255575   1.565   4.817  16.646  0.3791 -2.7635 -0.2109
11362TIP3   OH255576   1.865   4.662   1.860  0.2680 -0.2056  0.2652
11362TIP3    H155577   1.845   4.619   1.777 -0.2865 -0.2990  0.4421
11362TIP3    H255578   1.794   4.725   1.872  1.6893  1.6359 -0.5730
11363TIP3   OH255579   2.276   4.688  13.966  0.5683  0.2153  0.0476
11363TIP3    H155580   2.222   4.699  14.043 -0.3135 -0.1639 -0.5076
11363TIP3    H255581   2.216   4.698  13.892  1.1022 -0.9256 -0.5685
11364TIP3   OH255582   1.250   0.379   3.545 -0.0181 -0.0228  0.8575
11364TIP3    H155583   1.243   0.358   3.451 -4.0562 -0.6854  1.1197
11364TIP3    H255584   1.293   0.303   3.583  1.4740  0.1535 -0.3813
11365TIP3   OH255585   2.735   1.698  15.634  0.3555  0.0036 -0.3502
11365TIP3    H155586   2.761   1.722  15.723  0.6180 -1.8725  0.1064
11365TIP3    H255587   2.696   1.778  15.599  0.2393  0.7866  1.4418
11366TIP3   OH255588   2.207   0.342  16.921 -0.0653 -0.3575  1.3141
11366TIP3    H155589   2.184   0.291  16.999  0.0173 -1.6908  0.5030
11366TIP3    H255590   2.172   0.291  16.848  1.6300 -0.2100  0.3370
11367TIP3   OH255591   4.162   3.914  14.349  0.4347  0.5062 -0.0896
11367TIP3    H155592   4.069   3.923  14.367  0.2390  0.6572 -1.0971
11367TIP3    H255593   4.171   3.942  14.258  1.4347  0.3210 -0.0552
11368TIP3   OH255594   0.359   2.297  14.750  0.6587 -0.0329 -0.5510
11368TIP3    H155595   0.273   2.297  14.792  0.5492  1.0764 -0.7201
11368TIP3    H255596   0.414   2.244  14.807 -0.1258 -0.7307 -0.4208
11369TIP3   OH255597   1.920   2.382  16.351 -0.0891 -0.6119 -0.1926
11369TIP3    H155598   1.874   2.298  16.342  0.6771 -1.2039  1.1265
11369TIP3    H255599   1.851   2.445  16.373 -0.6010 -0.9806 -0.6970
11370TIP3   OH255600   3.859   1.573   0.023  0.1359 -0.0976 -0.2632
11370TIP3    H155601   3.800   1.503  -0.007  1.2595 -0.9455 -0.5352
11370TIP3    H255602   3.933   1.527   0.063  0.7406  0.9470 -0.1461
11371TIP3   OH255603   5.918   2.300  16.490  0.1111 -0.4440  0.1025
11371TIP3    H155604   5.846   2.341  16.538 -2.0488 -2.8170 -0.8642
11371TIP3    H255605   5.964   2.248  16.556 -1.3840 -1.8150  0.1235
11372TIP3   OH255606   3.206   6.201  15.999 -0.3844 -0.2876 -0.3085
11372TIP3    H155607   3.211   6.289  15.962  0.7169  0.4103  1.3992
11372TIP3    H255608   3.298   6.172  16.004 -0.7269 -1.5306 -0.7953
11373TIP3   OH255609   5.433   3.692  14.978 -0.3657  0.8577 -0.1267
11373TIP3    H155610   5.387   3.633  15.038  0.0317  1.3772  0.7166
11373TIP3    H255611   5.364   3.738  14.931 -0.7009  1.1320  0.6255
11374TIP3   OH255612   1.819   6.811   6.412 -0.0245  0.4289  0.1225
11374TIP3    H155613   1.799   6.896   6.373  0.8268  0.2294 -0.7934
11374TIP3    H255614   1.765   6.807   6.490  1.2634  2.6014  1.2154
11375TIP3   OH255615   4.715   1.115  12.477  0.4490 -0.4129 -0.0636
11375TIP3    H155616   4.683   1.189  12.529  2.4895 -0.1327  0.8753
11375TIP3    H255617   4.806   1.105  12.503  0.5328 -2.5666 -0.9972
11376TIP3   OH255618   2.190   0.633  11.678  0.1812  0.3663  0.4355
11376TIP3    H155619   2.202   0.546  11.714  0.8931  1.0668  1.9908
11376TIP3    H255620   2.276   0.656  11.641  0.4566  0.9603  1.3871
11377TIP3   OH255621   4.587   5.900  13.572 -0.2784 -0.3100 -0.5730
11377TIP3    H155622   4.610   5.829  13.631  0.0139 -0.8678 -1.3468
11377TIP3    H255623   4.642   5.887  13.495 -0.5549  0.4816 -0.9232
11378TIP3   OH255624   0.601   4.861  16.693 -0.7805  0.3365 -0.5379
11378TIP3    H155625   0.550   4.881  16.771  2.3507  2.6418  1.1350
11378TIP3    H255626   0.662   4.794  16.721  1.3132  2.1710 -0.4566
11379TIP3   OH255627   3.864   6.702  15.552  0.7104  0.8174 -0.1975
11379TIP3    H155628   3.822   6.786  15.568  0.4347  0.5989  0.2886
11379TIP3    H255629   3.957   6.717  15.569  0.6284  0.9657  0.1280
11380TIP3   OH255630   3.181   1.649   2.621  0.4473 -0.0337 -0.1088
11380TIP3    H155631   3.241   1.679   2.689  0.8872 -0.6301 -0.2259
11380TIP3    H255632   3.103   1.704   2.632  1.3997  1.5021 -0.6428
11381TIP3   OH255633   0.935   0.091  16.538 -0.0707 -0.2727 -0.5416
11381TIP3    H155634   0.914   0.039  16.459  1.3005  1.2909 -2.0067
11381TIP3    H255635   0.926   0.182  16.510  1.3439  0.3396  0.8592
11382TIP3   OH255636   0.066   6.689  10.570  0.0805  0.0629 -0.1043
11382TIP3    H155637   0.146   6.741  10.555 -0.0457  0.3007  0.0374
11382TIP3    H255638   0.098   6.607  10.608  0.2827  0.0339 -0.3347
11383TIP3   OH255639   0.849   0.310   1.876 -0.3923  0.2252  0.1688
11383TIP3    H155640   0.838   0.364   1.797 -0.8568 -0.4327 -0.2304
11383TIP3    H255641   0.924   0.254   1.856 -0.3289  0.2615  0.3089
11384TIP3   OH255642   4.641   0.569  11.904  0.5009 -0.1350  1.0532
11384TIP3    H155643   4.555   0.611  11.897  0.5476  0.2091  2.3992
11384TIP3    H255644   4.701   0.641  11.924  0.8165 -0.6219  1.8815
11385TIP3   OH255645   0.555   0.916  16.428  0.5465  0.3515  0.0699
11385TIP3    H155646   0.548   0.987  16.365 -0.6064  0.0979 -0.1108
11385TIP3    H255647   0.555   0.836  16.374  0.4879  0.1676  0.3402
11386TIP3   OH255648   6.276   3.017  15.225  0.4853 -0.1037  0.4955
11386TIP3    H155649   6.206   3.063  15.178 -1.7952 -1.0614  2.7353
11386TIP3    H255650   6.306   3.081  15.290  1.1222  0.0010  0.1090
11387TIP3   OH255651   3.821   5.025   2.289  0.5724 -0.4713  0.0756
11387TIP3    H155652   3.885   5.043   2.220  0.4315  0.6458  0.2119
11387TIP3    H255653   3.750   4.978   2.246  0.5376  0.1189 -0.5138
11388TIP3   OH255654   2.786   3.234   1.217 -0.0151  0.4048  0.4652
11388TIP3    H155655   2.826   3.187   1.290 -0.9727 -0.3084  0.5386
11388TIP3    H255656   2.735   3.167   1.170  1.8053  0.4527 -1.7921
11389TIP3   OH255657   4.566   0.897   1.719 -0.4087 -0.1376  0.4453
11389TIP3    H155658   4.534   0.824   1.665  1.0301 -2.4883  2.5121
11389TIP3    H255659   4.647   0.924   1.676 -1.2842  0.7560 -0.6999
11390TIP3   OH255660   1.940   0.005  15.242  0.3940 -0.2092  0.1809
11390TIP3    H155661   2.023  -0.041  15.251 -0.2280 -1.1574  1.4538
11390TIP3    H255662   1.942   0.041  15.153  1.2150 -2.0874 -0.6161
11391TIP3   OH255663   0.017   0.242  12.939  0.4875  0.0691 -0.3976
11391TIP3    H155664   0.014   0.330  12.975  2.2734  0.2567 -0.6076
11391TIP3    H255665   0.019   0.185  13.016 -0.3076  0.2146 -0.2606
11392TIP3   OH255666   4.773   6.038   1.853 -0.1153  0.5387  0.2753
11392TIP3    H155667   4.695   6.019   1.905 -0.0551 -2.0284 -0.4202
11392TIP3    H255668   4.839   5.976   1.884  0.4762  0.1444 -1.6176
11393TIP3   OH255669   0.433   2.184  14.355  0.3125 -0.4401  0.0172
11393TIP3    H155670   0.358   2.182  14.295  1.3167 -0.1016 -1.2691
11393TIP3    H255671   0.401   2.137  14.432 -1.3148 -0.0900 -0.3874
11394TIP3   OH255672   3.196   4.235  11.957 -0.2291 -0.0386  0.2784
11394TIP3    H155673   3.238   4.235  11.871  1.8735 -1.0256  1.2256
11394TIP3    H255674   3.123   4.173  11.949 -1.4889  1.5563 -1.3628
11395TIP3   OH255675   0.723   4.414   4.987 -0.0230 -0.6897  0.7523
11395TIP3    H155676   0.749   4.485   5.045  1.6191 -1.9247  1.5947
11395TIP3    H255677   0.667   4.358   5.041  0.1999 -1.0070  0.6531
11396TIP3   OH255678   1.765   1.639  13.432  0.4946 -0.2668  0.2509
11396TIP3    H155679   1.854   1.656  13.402  0.1038  1.6768  0.0790
11396TIP3    H255680   1.773   1.636  13.527  0.9086 -1.2249  0.1952
11397TIP3   OH255681   1.189   1.821   0.928  0.1074 -0.0176  0.1060
11397TIP3    H155682   1.117   1.791   0.873 -0.5839  1.7672 -0.0289
11397TIP3    H255683   1.249   1.863   0.866  0.3347  0.1855  0.4652
11398TIP3   OH255684   5.055   4.721  12.588  0.4175 -0.0458 -0.3595
11398TIP3    H155685   4.971   4.735  12.545  0.3899 -1.1422 -0.7103
11398TIP3    H255686   5.035   4.722  12.681 -0.0043 -0.3439 -0.4421
11399TIP3   OH255687   4.174   3.156   4.212 -0.0384  0.2198  0.3523
11399TIP3    H155688   4.117   3.178   4.286  0.0530 -0.0193  0.4970
11399TIP3    H255689   4.243   3.222   4.215  0.4783 -0.3310  1.0518
11400TIP3   OH255690   6.414   0.462  11.547  0.4005  0.7376 -0.7807
11400TIP3    H155691   6.493   0.491  11.502  0.6664  0.9545 -0.1912
11400TIP3    H255692   6.342   0.482  11.487  0.9471 -1.4724 -2.3107
11401TIP3   OH255693   0.040   5.819  16.015 -0.1339 -0.5323  0.0072
11401TIP3    H155694  -0.033   5.800  16.074  1.0437 -1.9538  1.0749
11401TIP3    H255695   0.063   5.733  15.978  0.6851 -0.0304 -0.6816
11402TIP3   OH255696   3.595   1.629  15.275 -0.4583  0.0008 -0.0976
11402TIP3    H155697   3.537   1.553  15.272 -0.6076  0.1082 -0.0030
11402TIP3    H255698   3.552   1.694  15.219  0.5451 -0.5707 -1.5973
11403TIP3   OH255699   1.666   3.611  17.135 -0.9361  0.2207 -0.6550
11403TIP3    H155700   1.607   3.686  17.129  0.2932  1.3388  0.6049
11403TIP3    H255701   1.743   3.645  17.181  1.1597 -0.8809 -3.1201
11404TIP3   OH255702   5.290   6.684  13.753 -0.0990  0.2396 -0.2355
11404TIP3    H155703   5.340   6.724  13.682  1.6238 -0.1743  0.7001
11404TIP3    H255704   5.349   6.685  13.828 -2.0639  1.1850  1.4036
11405TIP3   OH255705   1.483   2.583   5.582  0.1913 -0.3073  0.2845
11405TIP3    H155706   1.411   2.632   5.542  0.2638 -2.2667 -2.5421
11405TIP3    H255707   1.441   2.511   5.628  0.2741 -0.3453  0.3020
11406TIP3   OH255708   4.035   2.227  13.636 -0.3371  0.0855 -0.8096
11406TIP3    H155709   4.023   2.145  13.684  0.4720 -0.0942 -0.9073
11406TIP3    H255710   4.031   2.295  13.703 -1.8197  0.0573 -0.8185
11407TIP3   OH255711   2.874   5.640  15.620  0.1454  0.2521 -0.0491
11407TIP3    H155712   2.886   5.604  15.532 -2.2523  0.3232 -0.4638
11407TIP3    H255713   2.842   5.566  15.671  1.5945  0.1948  0.8286
11408TIP3   OH255714   1.209   1.480  11.149  0.0333 -0.0097  0.2295
11408TIP3    H155715   1.259   1.450  11.073  1.6733  0.8636  0.9068
11408TIP3    H255716   1.122   1.440  11.138  0.2712 -0.0477 -1.9880
11409TIP3   OH255717   2.276   2.323   6.242  0.2074  0.4445 -0.6476
11409TIP3    H155718   2.347   2.330   6.307 -1.5652 -0.8131  1.5513
11409TIP3    H255719   2.218   2.396   6.262 -0.5779 -0.2030 -0.5167
11410TIP3   OH255720   1.453   5.255   0.511  0.2901  0.1492 -0.6606
11410TIP3    H155721   1.504   5.333   0.531 -0.6296  0.7519 -0.5778
11410TIP3    H255722   1.363   5.280   0.533 -0.0268 -0.9039 -0.7229
11411TIP3   OH255723   4.391   3.948   0.639 -0.1176  0.1439  0.0672
11411TIP3    H155724   4.374   3.935   0.732 -1.4396 -5.3062 -0.6186
11411TIP3    H255725   4.307   3.976   0.602  0.0560  1.0019  0.3119
11412TIP3   OH255726   4.184   4.521  16.800  0.6569  0.7027 -0.0033
11412TIP3    H155727   4.124   4.494  16.869 -0.0488 -0.2639 -0.9449
11412TIP3    H255728   4.266   4.540  16.845  0.7475 -1.6235  0.9424
11413TIP3   OH255729   5.959   2.594  15.936  0.0706  0.2258  0.4613
11413TIP3    H155730   5.867   2.569  15.943 -0.3079  1.7605  1.6951
11413TIP3    H255731   5.992   2.547  15.860 -1.8552 -0.0184 -0.2618
11414TIP3   OH255732   3.263   1.803   0.109  0.2272  0.4321  0.4391
11414TIP3    H155733   3.312   1.782   0.188  0.6012  1.4262  0.4831
11414TIP3    H255734   3.329   1.816   0.041  0.0540  1.8609  0.5172
11415TIP3   OH255735   4.334   3.815   5.749 -0.0784 -0.2870 -0.3660
11415TIP3    H155736   4.342   3.841   5.841 -1.1943 -1.0429 -0.0258
11415TIP3    H255737   4.338   3.720   5.751  0.7348 -0.2748 -1.2079
11416TIP3   OH255738   1.137   2.632   1.991 -0.2402 -0.5153 -0.0475
11416TIP3    H155739   1.127   2.657   2.083  1.2648  1.5391 -0.3619
11416TIP3    H255740   1.048   2.617   1.961 -0.7491 -1.4917  1.7887
11417TIP3   OH255741   5.855   0.451   4.478 -0.0510 -0.4145  0.0058
11417TIP3    H155742   5.936   0.403   4.465  0.1343  0.3604 -2.1785
11417TIP3    H255743   5.879   0.543   4.464 -1.2804 -0.1889 -0.8369
11418TIP3   OH255744   0.305   1.955  13.370 -0.3812 -0.1491 -0.1737
11418TIP3    H155745   0.241   1.939  13.300  0.4481 -3.6826 -0.3370
11418TIP3    H255746   0.382   1.988  13.324 -0.7295  0.1671 -0.5425
11419TIP3   OH255747   1.277   3.814  15.303 -0.6478 -0.2050  0.3281
11419TIP3    H155748   1.271   3.742  15.241 -1.4018  1.2758 -1.4125
11419TIP3    H255749   1.369   3.841  15.299 -0.7533  0.0805 -0.4340
11420TIP3   OH255750   6.054   1.307  16.402 -0.2076  0.1593 -0.1909
11420TIP3    H155751   6.065   1.327  16.309  2.4314 -1.8360 -0.4135
11420TIP3    H255752   6.117   1.364  16.446 -0.8383  0.4806  0.3080
11421TIP3   OH255753   3.918   2.457  11.792 -0.1471  0.4737 -0.2701
11421TIP3    H155754   3.979   2.391  11.758  0.6456  0.3646  1.2715
11421TIP3    H255755   3.832   2.416  11.784  0.3359 -0.8244  0.7318
11422TIP3   OH255756   1.185   4.121  15.391  0.1483  0.2256  0.3025
11422TIP3    H155757   1.225   4.129  15.304  0.7423 -2.1039  0.2972
11422TIP3    H255758   1.226   4.190  15.443  1.5847  0.1126 -0.6290
11423TIP3   OH255759   1.943   2.983   4.548 -0.7687  0.9666 -0.0214
11423TIP3    H155760   1.889   3.017   4.619  1.6013  1.8380  1.5185
11423TIP3    H255761   2.002   2.921   4.591 -1.2835 -0.8804 -1.8329
11424TIP3   OH255762   5.587   4.182  14.995  0.1128  0.1022  0.1019
11424TIP3    H155763   5.544   4.127  14.930  1.2723 -0.9796  0.1960
11424TIP3    H255764   5.623   4.255  14.944 -0.0864 -0.0643 -0.2815
11425TIP3   OH255765   6.722   4.392  12.514 -0.4721 -0.3722  0.0885
11425TIP3    H155766   6.627   4.378  12.514 -0.5720 -0.1485 -2.5235
11425TIP3    H255767   6.752   4.351  12.595 -2.6558 -1.5908  0.3599
11426TIP3   OH255768   5.434   1.058  17.062  0.8563  0.1679  0.2227
11426TIP3    H155769   5.520   1.042  17.024  0.3708 -0.2164 -0.7479
11426TIP3    H255770   5.428   0.998  17.136  1.8697  1.0223  1.0461
11427TIP3   OH255771   3.626   5.115   2.024  0.1931 -0.1160  0.2981
11427TIP3    H155772   3.718   5.140   2.035  0.4892  0.4372 -2.5857
11427TIP3    H255773   3.629   5.023   2.000  0.0135 -0.0759  0.1194
11428TIP3   OH255774   4.987   2.511  14.895  0.0599  0.3657  0.1035
11428TIP3    H155775   4.934   2.460  14.833 -1.7315 -0.8037  2.4494
11428TIP3    H255776   5.059   2.452  14.917  0.0156  0.2952  0.0609
11429TIP3   OH255777   4.637   2.902  15.432  0.2162 -0.3000  0.1362
11429TIP3    H155778   4.691   2.961  15.485  0.0822 -0.4847  0.4849
11429TIP3    H255779   4.646   2.935  15.343  0.2897  0.1390  0.3002
11430TIP3   OH255780   2.645   6.086   1.608  0.0666 -0.7082 -0.0921
11430TIP3    H155781   2.722   6.141   1.591  0.5644 -0.5533  2.3239
11430TIP3    H255782   2.572   6.135   1.569  0.9556 -0.0966 -1.0616
11431TIP3   OH255783   4.281   2.258  15.634  0.3510  0.2791  0.3244
11431TIP3    H155784   4.213   2.191  15.647 -0.1783  0.9994  1.3595
11431TIP3    H255785   4.358   2.223  15.678  1.0097 -1.0042 -1.6937
11432TIP3   OH255786   1.634   5.410   0.907  0.1738 -0.2111  0.0286
11432TIP3    H155787   1.654   5.501   0.885  2.2871 -0.2809  1.3642
11432TIP3    H255788   1.684   5.358   0.844 -0.1898 -0.4566 -0.0638
11433TIP3   OH255789   5.728   4.567  12.484  0.0255 -0.2927 -0.2097
11433TIP3    H155790   5.783   4.511  12.538 -0.6386 -0.8693 -0.1225
11433TIP3    H255791   5.751   4.656  12.510  0.0083 -0.5530  0.7366
11434TIP3   OH255792   4.448   3.972  17.191  0.6805 -0.3062 -0.1310
11434TIP3    H155793   4.498   3.971  17.110  0.9888  0.2602  0.0437
11434TIP3    H255794   4.403   3.888  17.193  0.4086 -0.1859 -1.0497
11435TIP3   OH255795   6.019   0.275   0.377 -0.4520  0.0128  0.2700
11435TIP3    H155796   6.060   0.202   0.330 -0.4581 -0.6048  1.2011
11435TIP3    H255797   6.044   0.353   0.326  0.3631 -0.5325 -0.1959
11436TIP3   OH255798   6.419   0.215  12.704  0.0198  0.0345 -0.1406
11436TIP3    H155799   6.457   0.133  12.736  1.3792  0.4698 -0.5736
11436TIP3    H255800   6.464   0.283  12.754 -0.1040  0.5796 -0.7590
11437TIP3   OH255801   0.746   1.473  15.731 -0.1005 -0.2974 -0.4193
11437TIP3    H155802   0.730   1.411  15.801  3.0319  0.1107  0.8279
11437TIP3    H255803   0.712   1.557  15.764  0.5456 -0.2926  0.2535
11438TIP3   OH255804   2.192   4.093  14.269  0.2948  0.3739  0.5026
11438TIP3    H155805   2.263   4.157  14.275  0.4038  0.1910  1.2990
11438TIP3    H255806   2.218   4.035  14.197  0.0448  1.3928 -0.4395
11439TIP3   OH255807   5.749   1.149  13.949  0.7716  0.3152  0.4332
11439TIP3    H155808   5.773   1.061  13.921  2.0304  0.8686 -0.2762
11439TIP3    H255809   5.776   1.206  13.877  0.0381  1.2976  0.9133
11440TIP3   OH255810   3.028   3.497  13.167 -0.5695 -0.8556  0.3979
11440TIP3    H155811   3.026   3.403  13.147  0.3867 -0.8756  0.3499
11440TIP3    H255812   3.012   3.539  13.082 -2.3713 -0.9602  0.6464
11441TIP3   OH255813   4.971   0.594   3.735  0.2593 -0.5157 -0.6330
11441TIP3    H155814   4.889   0.635   3.765  0.6215  1.1026 -1.7366
11441TIP3    H255815   4.958   0.580   3.641  0.2529 -2.8153 -0.3486
11442TIP3   OH255816   1.596   6.214   1.888  0.1906 -0.1016 -0.2361
11442TIP3    H155817   1.641   6.130   1.900 -0.5552 -0.3749  0.8311
11442TIP3    H255818   1.545   6.202   1.807  2.5938  0.5100 -1.9416
11443TIP3   OH255819   4.631   2.052   6.745 -0.1183 -0.4766 -0.2419
11443TIP3    H155820   4.689   2.021   6.676  0.6635  2.5571 -1.0733
11443TIP3    H255821   4.688   2.066   6.821 -0.2440 -0.1149 -0.2097
11444TIP3   OH255822   6.820   6.375   5.758 -0.3052  0.4814  0.2132
11444TIP3    H155823   6.862   6.448   5.805  0.5085  1.6004 -2.1030
11444TIP3    H255824   6.893   6.320   5.729 -0.7492  0.0715 -0.1359
11445TIP3   OH255825   3.928   2.298  12.008 -0.4216  0.1496  0.5681
11445TIP3    H155826   3.941   2.384  11.968  0.6915  0.5896  1.7640
11445TIP3    H255827   3.954   2.311  12.100 -0.4328 -1.4092  0.8177
11446TIP3   OH255828   4.931   1.508   1.156  0.4348 -0.6510  0.7699
11446TIP3    H155829   4.997   1.486   1.222  0.6236  0.1112  0.8502
11446TIP3    H255830   4.854   1.457   1.181  0.7823 -1.0355  1.0668
11447TIP3   OH255831   6.629   5.325  17.199 -0.3466  0.1530  0.0246
11447TIP3    H155832   6.589   5.243  17.169  1.7456 -1.2492  0.8670
11447TIP3    H255833   6.574   5.394  17.160 -0.5968 -1.5792 -3.0017
11448TIP3   OH255834   0.514   1.266   0.830 -0.2547  0.1056  0.5304
11448TIP3    H155835   0.581   1.244   0.765  0.8243 -0.5035  1.7936
11448TIP3    H255836   0.479   1.181   0.858  0.4489  0.2457  1.9010
11449TIP3   OH255837   4.231   2.425  16.015 -0.8201  0.0434  0.2741
11449TIP3    H155838   4.185   2.495  16.062  0.3128  2.8190 -2.4040
11449TIP3    H255839   4.322   2.433  16.042 -0.5508  0.1414 -0.6323
11450TIP3   OH255840   1.684   4.618  14.744 -0.1453 -0.2957  0.1979
11450TIP3    H155841   1.685   4.710  14.717  2.7367 -0.1986  0.2756
11450TIP3    H255842   1.592   4.595  14.750 -0.9792  1.7527 -2.6665
11451TIP3   OH255843   3.203   3.286   5.635 -0.2535 -0.0707  0.0528
11451TIP3    H155844   3.218   3.226   5.707  0.7466 -0.0020 -0.0792
11451TIP3    H255845   3.159   3.361   5.674 -1.7807 -0.9727  0.1706
11452TIP3   OH255846   4.319   1.289   0.729 -0.0957 -0.0349  0.2685
11452TIP3    H155847   4.338   1.305   0.822 -2.0985  1.2398  0.5280
11452TIP3    H255848   4.331   1.374   0.687 -0.5047 -0.2881 -0.3754
11453TIP3   OH255849   0.097   6.132  16.853 -0.6856 -0.4061  0.5134
11453TIP3    H155850   0.115   6.133  16.947 -2.2443 -1.5984  0.8503
11453TIP3    H255851   0.014   6.087  16.844 -0.1779 -1.0586 -1.5163
11454TIP3   OH255852   1.262   6.014   6.297  0.7739 -0.2345 -0.1924
11454TIP3    H155853   1.262   6.022   6.201 -0.8057 -2.6744 -0.4989
11454TIP3    H255854   1.178   6.051   6.324  0.5421 -0.9247  0.0571
11455TIP3   OH255855   1.049   1.448   0.766  0.7636  0.0792  0.1630
11455TIP3    H155856   1.087   1.524   0.722 -1.6576  0.4944 -1.4615
11455TIP3    H255857   0.994   1.486   0.835 -0.7157 -0.0969 -0.8659
11456TIP3   OH255858   3.167   1.447  14.094 -0.1156  0.0839  0.0441
11456TIP3    H155859   3.095   1.484  14.146 -0.0468 -0.0296  0.2214
11456TIP3    H255860   3.126   1.422  14.011  0.0317  1.5099 -0.5015
11457TIP3   OH255861   4.604   3.001   4.353 -0.4351  0.1717  0.0413
11457TIP3    H155862   4.579   2.996   4.445  2.3954  0.4594  0.9033
11457TIP3    H255863   4.603   2.910   4.323  0.1128 -0.0908  0.8011
11458TIP3   OH255864   6.532   5.062  15.365 -0.4622 -0.2147  0.0831
11458TIP3    H155865   6.512   5.107  15.283  1.4959  1.1597  0.2909
11458TIP3    H255866   6.545   5.132  15.428  0.5137 -1.1437  0.9533
11459TIP3   OH255867   3.802   4.983   6.053  0.0288  0.0527  0.0152
11459TIP3    H155868   3.791   4.913   5.989 -0.6139 -0.0958  0.2810
11459TIP3    H255869   3.765   4.948   6.134 -1.2692  1.0502 -0.0972
11460TIP3   OH255870   1.527   4.147  15.902 -0.1193 -0.1533  0.2285
11460TIP3    H155871   1.490   4.076  15.954 -1.8024  0.4673 -0.0448
11460TIP3    H255872   1.514   4.225  15.956  1.3552  0.0284  0.3593
11461TIP3   OH255873   0.930   0.757   0.971 -0.0292 -0.3163 -0.0201
11461TIP3    H155874   0.987   0.759   0.895  0.6453 -0.6581  0.4654
11461TIP3    H255875   0.873   0.834   0.961  0.6740  0.1675 -0.3930
11462TIP3   OH255876   6.115   2.421   0.509 -0.4565  0.2337  0.2221
11462TIP3    H155877   6.210   2.428   0.519 -0.6528  2.1751  1.2338
11462TIP3    H255878   6.090   2.349   0.567  0.1412  1.5509  2.2286
11463TIP3   OH255879   0.083   1.146  13.442 -0.2980  0.5422 -0.1415
11463TIP3    H155880   0.141   1.217  13.471 -1.2256  1.7918 -1.2583
11463TIP3    H255881  -0.005   1.180  13.455 -0.7601 -0.3569 -0.8206
11464TIP3   OH255882   5.231   5.521  11.727 -0.2721  0.2891  0.0179
11464TIP3    H155883   5.144   5.489  11.751  0.5519 -1.5219  0.7463
11464TIP3    H255884   5.279   5.443  11.699  2.1696  0.5835  2.8908
11465TIP3   OH255885   4.673   6.461   0.735 -0.0256  0.1601 -0.0951
11465TIP3    H155886   4.583   6.444   0.762 -0.1758  0.1998 -0.5672
11465TIP3    H255887   4.684   6.555   0.748 -0.2611  0.2666 -0.6574
11466TIP3   OH255888   4.712   0.248   3.153  0.0456  0.4534  0.2964
11466TIP3    H155889   4.617   0.237   3.156  0.0252  0.8099  1.0368
11466TIP3    H255890   4.743   0.216   3.238  0.5448  0.7780  0.2439
11467TIP3   OH255891   1.699   0.607  15.881 -0.3395 -0.1523  0.2115
11467TIP3    H155892   1.675   0.517  15.858 -1.1046 -0.1702  1.0609
11467TIP3    H255893   1.686   0.656  15.800 -0.1466 -0.7547 -0.1959
11468TIP3   OH255894   4.398   2.536   0.068 -0.0898  0.0108  0.1738
11468TIP3    H155895   4.334   2.591   0.023  2.1034  2.0828 -0.6300
11468TIP3    H255896   4.433   2.591   0.138 -0.6804 -1.8423  2.0543
11469TIP3   OH255897   3.733   5.333   1.681  0.0210  0.2770 -0.1504
11469TIP3    H155898   3.775   5.337   1.767 -0.4880 -0.8475  0.1669
11469TIP3    H255899   3.780   5.397   1.629 -0.0979  1.4712  1.1517
11470TIP3   OH255900   1.303   3.811  16.653  0.0269  0.0844 -0.2536
11470TIP3    H155901   1.277   3.738  16.709 -0.9449  0.2872 -0.4392
11470TIP3    H255902   1.360   3.771  16.587 -0.8722 -0.5925 -0.6384
11471TIP3   OH255903   5.479   6.203   4.749 -0.2619  0.2215 -0.4637
11471TIP3    H155904   5.537   6.260   4.799 -1.2549  0.5405  0.3735
11471TIP3    H255905   5.527   6.121   4.738  0.1642  0.3266  0.5878
11472TIP3   OH255906   6.126   6.598  15.607  0.2792  0.4107  0.0900
11472TIP3    H155907   6.119   6.622  15.700 -0.1390 -0.0706  0.1891
11472TIP3    H255908   6.044   6.552  15.589 -0.8787  2.8137 -1.2178
11473TIP3   OH255909   1.453   0.779  16.048 -0.7319 -0.0407 -0.2003
11473TIP3    H155910   1.532   0.817  16.010 -1.0144 -0.2389 -1.0183
11473TIP3    H255911   1.402   0.853  16.079 -0.7921  0.1794 -0.8150
11474TIP3   OH255912   1.787   1.634  13.707  0.5702  0.1516  0.4375
11474TIP3    H155913   1.781   1.717  13.753 -0.3362  0.3431 -0.0020
11474TIP3    H255914   1.703   1.590  13.725  0.5781 -0.1697 -0.2598
11475TIP3   OH255915   2.048   5.064   1.046 -0.5276 -0.2707  0.3516
11475TIP3    H155916   2.007   4.987   1.083 -0.4229  0.0851  1.2195
11475TIP3    H255917   2.001   5.138   1.085 -1.3043  0.1180 -1.2175
11476TIP3   OH255918   5.543   0.790  15.707  0.0314  0.7067  0.1819
11476TIP3    H155919   5.456   0.752  15.694  0.4683  0.0580 -0.9376
11476TIP3    H255920   5.571   0.756  15.792 -0.8708  1.0548  0.6321
11477TIP3   OH255921   2.907   1.884  17.199  0.5110  0.0311  0.2221
11477TIP3    H155922   2.879   1.888  17.291 -0.3695 -1.0183  0.0138
11477TIP3    H255923   2.965   1.809  17.194  1.0846  0.4761  0.0399
11478TIP3   OH255924   6.490   2.169   1.342  0.0995 -0.1091 -0.1036
11478TIP3    H155925   6.512   2.162   1.249  0.0552 -1.8040 -0.0049
11478TIP3    H255926   6.549   2.107   1.386 -0.1230  0.4127  0.9661
11479TIP3   OH255927   3.091   6.001  14.360  0.3025  0.6258  0.3978
11479TIP3    H155928   3.173   6.019  14.406 -0.1355  1.4580  0.8928
11479TIP3    H255929   3.035   5.959  14.425  0.5519 -0.5782 -0.1339
11480TIP3   OH255930   1.163   3.168   4.671 -0.0758 -0.4517  0.4994
11480TIP3    H155931   1.122   3.107   4.608  0.6957 -0.0205 -0.4534
11480TIP3    H255932   1.108   3.246   4.667  0.1969 -0.2789  0.0526
11481TIP3   OH255933   4.693   2.362   1.326  0.0329 -0.2564 -0.4552
11481TIP3    H155934   4.673   2.447   1.287 -0.7823 -0.8016 -1.2493
11481TIP3    H255935   4.783   2.344   1.298 -0.2182 -0.2134 -1.3074
11482TIP3   OH255936   3.263   0.658  15.703 -1.1206 -0.0024 -0.0267
11482TIP3    H155937   3.254   0.583  15.644  0.7065 -0.8491  0.7249
11482TIP3    H255938   3.279   0.620  15.789  0.3794  1.2453  0.2820
11483TIP3   OH255939   2.295   0.561   4.815  0.2674 -0.2601 -0.5307
11483TIP3    H155940   2.371   0.530   4.765 -0.2763 -3.9531  0.6568
11483TIP3    H255941   2.284   0.497   4.885 -3.2607  0.7571  0.0509
11484TIP3   OH255942   1.528   6.245  10.934  0.3996  0.2000  0.4591
11484TIP3    H155943   1.435   6.227  10.918  0.4123  0.5031  0.0403
11484TIP3    H255944   1.530   6.337  10.959  0.6419  0.3163  0.0121
11485TIP3   OH255945   6.701   0.535  16.113  0.3147  0.6263  0.5355
11485TIP3    H155946   6.688   0.507  16.204  0.2925 -1.1222  0.0287
11485TIP3    H255947   6.630   0.492  16.065  1.1812  0.3549 -0.5218
11486TIP3   OH255948   2.196   5.440  14.179  0.6517 -0.0531  0.5647
11486TIP3    H155949   2.146   5.360  14.197 -0.0009  0.2123 -0.0207
11486TIP3    H255950   2.232   5.426  14.091 -0.8653  0.9649 -0.2656
11487TIP3   OH255951   3.330   1.740  12.328 -0.2514 -0.1951  0.6013
11487TIP3    H155952   3.347   1.825  12.289  0.3424 -0.5636  0.0336
11487TIP3    H255953   3.407   1.723  12.383 -1.4283  0.6714  2.6115
11488TIP3   OH255954   5.537   0.139  15.780 -0.3664 -0.3256  0.2326
11488TIP3    H155955   5.501   0.051  15.771 -0.9189 -0.0710 -0.0810
11488TIP3    H255956   5.599   0.147  15.708 -1.9056  0.3020 -1.0864
11489TIP3   OH255957   1.206   2.615  10.453 -0.2778 -0.2113  0.0720
11489TIP3    H155958   1.148   2.627  10.528  0.4006 -0.7192  0.6904
11489TIP3    H255959   1.294   2.630  10.487 -0.0519  0.9811 -0.9492
11490TIP3   OH255960   3.659   5.802  15.339 -0.0383  0.1540  0.0244
11490TIP3    H155961   3.703   5.759  15.413  1.5008  0.6936 -0.5268
11490TIP3    H255962   3.610   5.733  15.296 -0.6083 -0.2558  1.2893
11491TIP3   OH255963   2.380   3.207   2.429  0.1423  0.4448 -0.0524
11491TIP3    H155964   2.423   3.172   2.350 -1.2483  0.6454 -0.9366
11491TIP3    H255965   2.294   3.237   2.398 -0.4548  0.4933  1.5578
11492TIP3   OH255966   1.939   2.501   4.357 -0.1019 -0.2018 -0.6053
11492TIP3    H155967   2.034   2.519   4.360  0.2494 -1.0378 -3.3052
11492TIP3    H255968   1.907   2.528   4.442  1.7886  4.6993 -1.0904
11493TIP3   OH255969   3.644   1.857   5.151 -0.2315 -0.0569 -0.2270
11493TIP3    H155970   3.607   1.945   5.159 -0.0800  0.0588 -0.7321
11493TIP3    H255971   3.638   1.820   5.239  1.4702  1.1549  0.4504
11494TIP3   OH255972   2.234   5.106   2.365 -0.3393 -0.0813  0.5153
11494TIP3    H155973   2.273   5.041   2.307 -0.9143 -0.4107  0.4897
11494TIP3    H255974   2.171   5.152   2.310 -1.6667 -1.1098  1.1340
11495TIP3   OH255975   6.188   2.969   1.652 -0.4419 -0.2069  0.2185
11495TIP3    H155976   6.225   3.046   1.696 -1.7860 -0.2622  1.5333
11495TIP3    H255977   6.094   2.980   1.661 -0.7222 -0.9936 -1.4220
11496TIP3   OH255978   1.366   0.229  12.739 -0.2214  0.4535 -0.0923
11496TIP3    H155979   1.422   0.301  12.712  1.7811 -1.6800 -2.2015
11496TIP3    H255980   1.416   0.183  12.806 -1.1913  0.6233  0.7751
11497TIP3   OH255981   6.108   5.874  15.128 -0.2764  0.4071 -0.1042
11497TIP3    H155982   6.024   5.871  15.172  0.0837  1.2780  0.6762
11497TIP3    H255983   6.164   5.816  15.180 -0.3724 -0.1436 -0.6011
11498TIP3   OH255984   5.298   4.921   0.466  0.6483  0.0936  0.0589
11498TIP3    H155985   5.311   4.833   0.432  0.3839 -0.2097  0.7213
11498TIP3    H255986   5.203   4.928   0.480  0.6878  0.4161  0.1741
11499TIP3   OH255987   5.878   4.176  14.152 -0.7522  0.1450  0.2419
11499TIP3    H155988   5.951   4.226  14.189  1.3305 -2.4517 -0.1142
11499TIP3    H255989   5.884   4.191  14.058  1.9740 -3.0591 -0.2920
11500TIP3   OH255990   2.755   5.583  13.578  0.0897  0.1413 -0.3015
11500TIP3    H155991   2.806   5.503  13.564 -0.7929 -0.2830 -1.1484
11500TIP3    H255992   2.716   5.572  13.665  0.8168  0.1367  0.0348
11501TIP3   OH255993   1.016   1.975   2.608  0.0945  0.4677  0.6944
11501TIP3    H155994   0.934   2.023   2.623 -0.1391  0.3747 -0.2462
11501TIP3    H255995   1.002   1.930   2.525  1.0175  0.2499  0.6541
11502TIP3   OH255996   6.348   5.976   0.502  0.3291  0.4957  0.0805
11502TIP3    H155997   6.406   5.900   0.498  0.1097  0.3805 -1.1301
11502TIP3    H255998   6.302   5.966   0.585 -0.2650 -1.1157 -0.4097
11503TIP3   OH255999   6.556   0.874   4.830  0.8214 -0.1894 -0.5152
11503TIP3    H156000   6.643   0.907   4.809  0.3587  0.3902 -1.6626
11503TIP3    H256001   6.502   0.953   4.839  0.1402 -0.5626 -1.1732
11504TIP3   OH256002   6.211   1.885   2.061  0.5656  0.5868  0.0989
11504TIP3    H156003   6.298   1.849   2.077  0.3169  0.1980  0.6192
11504TIP3    H256004   6.169   1.822   2.002  0.3213  0.2877  0.5792
11505TIP3   OH256005   1.156   1.082   3.646  0.2801 -0.0544 -0.0087
11505TIP3    H156006   1.207   1.002   3.651 -1.3850 -1.2700 -1.2684
11505TIP3    H256007   1.210   1.142   3.595  1.6700 -0.2289  1.2049
11506TIP3   OH256008   4.636   2.386  16.326 -0.0243 -0.4360 -0.5588
11506TIP3    H156009   4.657   2.293  16.335 -2.2096 -0.8395  1.3769
11506TIP3    H256010   4.611   2.396  16.234  1.6463 -1.4034 -1.1528
11507TIP3   OH256011   0.996   4.333  12.786  0.6518 -0.6917 -0.5407
11507TIP3    H156012   0.915   4.286  12.767  0.1963  0.0260 -0.4217
11507TIP3    H256013   1.012   4.387  12.709  0.5600 -0.2121 -0.2329
11508TIP3   OH256014   5.655   2.064   5.169 -0.0873  0.9537 -0.2474
11508TIP3    H156015   5.673   2.131   5.103  0.9334  0.5860 -0.3565
11508TIP3    H256016   5.619   1.991   5.119  0.5362  0.7352 -0.3885
11509TIP3   OH256017   0.463   6.162   6.617 -0.6399  0.6515  0.0548
11509TIP3    H156018   0.390   6.212   6.654 -0.1904  1.4483 -0.1054
11509TIP3    H256019   0.540   6.217   6.633 -0.0926 -0.1020  0.0803
11510TIP3   OH256020   1.852   6.410  15.932  0.6560 -0.1541 -0.1840
11510TIP3    H156021   1.834   6.322  15.964  0.7833  0.2751  1.1391
11510TIP3    H256022   1.935   6.434  15.974 -0.1633  1.1864  0.7440
11511TIP3   OH256023   1.996   0.790  16.498  0.8627 -0.1342 -0.1201
11511TIP3    H156024   2.044   0.804  16.417 -0.8715  2.6655 -0.7740
11511TIP3    H256025   2.001   0.874  16.544 -0.7236 -0.7365  1.2614
11512TIP3   OH256026   5.136   6.244  16.113  0.0469 -0.4772 -0.0580
11512TIP3    H156027   5.179   6.269  16.032 -0.0660 -1.4123 -0.4235
11512TIP3    H256028   5.053   6.205  16.086 -0.6610  0.5175  0.5961
11513TIP3   OH256029   4.558   1.253  14.147  0.0091 -0.5341 -0.2154
11513TIP3    H156030   4.563   1.227  14.239 -0.9015 -3.4479 -0.8766
11513TIP3    H256031   4.490   1.319  14.144 -1.6829 -2.1211  0.9531
11514TIP3   OH256032   6.326   4.622   3.287 -0.2785 -0.1437 -0.6802
11514TIP3    H156033   6.399   4.672   3.251 -0.5008  0.8733  0.2469
11514TIP3    H256034   6.331   4.537   3.243  0.1878  0.6370 -2.1692
11515TIP3   OH256035   0.467   3.475   2.021  0.1630 -0.6487 -0.0501
11515TIP3    H156036   0.453   3.432   2.105 -1.8711  0.6775  0.3826
11515TIP3    H256037   0.381   3.473   1.979  1.0415 -0.9186 -1.9530
11516TIP3   OH256038   5.274   2.147   3.685 -0.1477  0.5405 -0.6513
11516TIP3    H156039   5.186   2.175   3.710 -0.0253  0.1574  0.2435
11516TIP3    H256040   5.259   2.068   3.632 -0.3071 -0.8369  1.3094
11517TIP3   OH256041   2.869   2.649  11.858 -0.1496  0.1104  0.1430
11517TIP3    H156042   2.913   2.703  11.924 -0.2132  0.5324 -0.1597
11517TIP3    H256043   2.940   2.610  11.808 -0.1127  0.3069  0.0436
11518TIP3   OH256044   0.819   3.836  14.522  0.3139  0.1983 -0.0278
11518TIP3    H156045   0.763   3.909  14.548 -0.4399 -0.1498 -0.6553
11518TIP3    H256046   0.781   3.759  14.565  0.0059 -0.1190 -0.8449
11519TIP3   OH256047   0.954   1.743   5.432 -0.5553 -0.0157 -0.1603
11519TIP3    H156048   1.023   1.798   5.394 -1.1976 -0.0224 -1.3863
11519TIP3    H256049   0.878   1.758   5.376 -1.1413 -1.1079  0.3100
11520TIP3   OH256050   4.269   4.221   4.141  0.7088 -0.3706 -1.1463
11520TIP3    H156051   4.243   4.166   4.215 -0.4523  1.9389  0.2823
11520TIP3    H256052   4.348   4.266   4.172  0.8429 -0.1784 -1.7530
11521TIP3   OH256053   0.267   1.000  16.842 -0.2768 -0.4985  0.5944
11521TIP3    H156054   0.351   1.042  16.862 -0.5003 -0.2903  1.1216
11521TIP3    H256055   0.285   0.945  16.765  0.6639 -1.4181  1.4325
11522TIP3   OH256056   6.213   1.303  14.411  0.8413  0.3680  0.2566
11522TIP3    H156057   6.186   1.269  14.325 -1.2167  0.0212  0.9782
11522TIP3    H256058   6.309   1.305  14.407  0.8866 -1.5988 -1.3231
11523TIP3   OH256059   1.717   3.566  11.812  0.3011  0.1558 -0.5664
11523TIP3    H156060   1.791   3.626  11.797 -0.1300  0.7676 -0.2792
11523TIP3    H256061   1.738   3.522  11.895  0.2041  0.5511 -0.3283
11524TIP3   OH256062   4.203   1.004   0.491 -0.2288  0.8912  0.3912
11524TIP3    H156063   4.296   1.009   0.467 -0.1215 -1.0033  0.3140
11524TIP3    H256064   4.201   0.950   0.570 -1.2843  0.8021  0.3178
11525TIP3   OH256065   0.510   1.264  14.352  0.2602 -0.0323 -0.0748
11525TIP3    H156066   0.599   1.281  14.320 -0.0477  1.0935 -0.3692
11525TIP3    H256067   0.513   1.173  14.382  1.4558 -0.0781 -0.2640
11526TIP3   OH256068   5.431   3.085  13.629 -0.8702 -0.1864 -0.2295
11526TIP3    H156069   5.390   3.018  13.574 -0.4641  0.6863 -1.6664
11526TIP3    H256070   5.505   3.117  13.576 -0.2781  0.4830  0.9626
11527TIP3   OH256071   2.460   4.701   0.704  0.2394  0.1289 -0.0386
11527TIP3    H156072   2.544   4.744   0.716  0.9109 -1.2643  0.5232
11527TIP3    H256073   2.399   4.771   0.682  1.6338  1.1082 -0.9327
11528TIP3   OH256074   4.467   4.733   5.330  0.1573 -0.0876 -0.5828
11528TIP3    H156075   4.510   4.817   5.346 -0.9211  0.0649  2.0133
11528TIP3    H256076   4.525   4.668   5.369 -2.0659  0.2015  3.8396
11529TIP3   OH256077   5.076   6.173   4.564 -0.4978 -0.0539 -0.1570
11529TIP3    H156078   5.170   6.192   4.558 -0.2770  1.4741  4.5086
11529TIP3    H256079   5.070   6.078   4.553  1.5674 -0.1760 -0.6803
11530TIP3   OH256080   5.338   4.337   2.631 -0.1530 -0.6706 -0.2356
11530TIP3    H156081   5.324   4.423   2.592  1.4843 -0.6851 -0.9445
11530TIP3    H256082   5.283   4.278   2.578 -0.8609 -0.1517 -0.0893
11531TIP3   OH256083   2.911   4.090   1.857  0.6195  0.4313 -0.0432
11531TIP3    H156084   2.944   4.162   1.804 -1.0715  0.6595 -0.8720
11531TIP3    H256085   2.856   4.131   1.923 -1.7625 -0.1084 -1.5785
11532TIP3   OH256086   2.317   0.497  13.179  0.4508  0.5443 -0.7083
11532TIP3    H156087   2.300   0.521  13.088  0.6584  0.2931 -0.8121
11532TIP3    H256088   2.412   0.485  13.184  0.5253  1.2478 -0.2907
11533TIP3   OH256089   4.959   5.848  16.493  0.3431 -0.1546 -0.2283
11533TIP3    H156090   5.008   5.887  16.420  0.3804 -1.5494 -0.9882
11533TIP3    H256091   4.929   5.763  16.459 -0.1524 -0.5732  1.1882
11534TIP3   OH256092   3.996   3.778  15.160  0.3164 -0.1556  0.5756
11534TIP3    H156093   4.086   3.758  15.135  0.4643  0.6120  0.4721
11534TIP3    H256094   3.983   3.868  15.132 -0.4799 -0.2532  0.6164
11535TIP3   OH256095   4.016   2.844   3.935  0.1603 -0.2032 -0.3569
11535TIP3    H156096   3.931   2.840   3.892  0.0344 -0.3584 -0.0991
11535TIP3    H256097   4.044   2.935   3.927 -0.0619 -0.1375 -0.3798
11536TIP3   OH256098   1.843   3.755  12.222  0.3457 -0.2949 -0.0619
11536TIP3    H156099   1.757   3.725  12.249  0.5597 -1.6154 -0.7561
11536TIP3    H256100   1.895   3.755  12.303  0.9087 -3.9348 -0.2627
11537TIP3   OH256101   5.003   3.771   0.734 -0.6893 -0.5036  0.1514
11537TIP3    H156102   5.012   3.708   0.663  0.5729 -1.3034  0.9690
11537TIP3    H256103   5.092   3.803   0.749 -0.0418 -3.4344  4.0393
11538TIP3   OH256104   3.193   3.113   5.861  0.1952 -0.0182  0.4263
11538TIP3    H156105   3.175   3.086   5.951  1.1181 -0.6391  0.4354
11538TIP3    H256106   3.124   3.071   5.809  0.9575 -1.5307  0.5768
11539TIP3   OH256107   3.242   2.234   0.188 -0.3676 -0.2033  0.1670
11539TIP3    H156108   3.281   2.321   0.198 -0.6443  0.0054 -0.4957
11539TIP3    H256109   3.314   2.173   0.205  0.1237  0.1743 -0.4954
11540TIP3   OH256110   2.294   0.623  12.458  1.2748  0.1697 -0.5059
11540TIP3    H156111   2.288   0.581  12.372  0.0783 -0.6582 -0.0359
11540TIP3    H256112   2.319   0.714  12.438  0.7088  0.0731 -1.7471
11541TIP3   OH256113   1.336   4.485   3.530  0.1618  0.0975  0.3822
11541TIP3    H156114   1.376   4.403   3.558  2.1309  0.6476 -0.5914
11541TIP3    H256115   1.284   4.514   3.604 -0.1352 -1.7534  0.9268
11542TIP3   OH256116   5.612   2.570   0.043  0.0489  0.0105 -0.3962
11542TIP3    H156117   5.523   2.558   0.010  0.6394 -1.5157 -1.5409
11542TIP3    H256118   5.668   2.533  -0.025  1.6133  1.5197  0.0095
11543TIP3   OH256119   6.743   1.085  12.814  0.1510  0.2605  0.3086
11543TIP3    H156120   6.807   1.148  12.781  0.6088  0.0536  0.7816
11543TIP3    H256121   6.786   1.045  12.889  0.5752 -1.8631 -0.9895
11544TIP3   OH256122   1.701   5.663  13.999  0.0777  0.2226  0.8683
11544TIP3    H156123   1.605   5.655  13.994 -0.1696  2.0825  1.6058
11544TIP3    H256124   1.724   5.623  14.082 -0.0800 -0.0531  0.7810
11545TIP3   OH256125   0.822   6.459  10.539  0.1429 -0.6047  0.5484
11545TIP3    H156126   0.903   6.408  10.542  0.4827 -0.0309  1.5324
11545TIP3    H256127   0.842   6.533  10.481  0.7394  0.2023  1.7519
11546TIP3   OH256128   3.587   1.254   1.071  0.0945 -0.3421  0.3760
11546TIP3    H156129   3.513   1.197   1.093 -0.8024  0.0046 -1.5184
11546TIP3    H256130   3.640   1.203   1.010  0.3923  0.1128  0.2496
11547TIP3   OH256131   3.434   2.663   2.591  0.3922  0.2743 -0.4216
11547TIP3    H156132   3.363   2.605   2.564  0.6720  0.9670 -2.8730
11547TIP3    H256133   3.514   2.613   2.575  0.5554 -0.2524  1.6994
11548TIP3   OH256134   4.809   5.272  14.396  0.1463  0.0570 -0.3315
11548TIP3    H156135   4.790   5.202  14.334 -1.1809  0.7725 -0.7804
11548TIP3    H256136   4.723   5.307  14.420  0.7549  1.2647  0.1814
11549TIP3   OH256137   4.400   1.028  14.537 -0.0367 -0.2368 -0.4831
11549TIP3    H156138   4.311   1.027  14.502 -0.6193  3.1166  0.4538
11549TIP3    H256139   4.454   1.062  14.465 -0.0675  0.3991 -0.2191
11550TIP3   OH256140   0.420   3.114  10.906  0.0423  0.3780 -0.5945
11550TIP3    H156141   0.424   3.080  10.996 -1.6320  0.9617 -0.2559
11550TIP3    H256142   0.486   3.184  10.904 -0.2909  0.7430  0.3768
11551TIP3   OH256143   6.354   4.947  11.295  0.0104 -0.1224  0.7064
11551TIP3    H156144   6.295   4.914  11.363 -0.7619  0.8907  0.5476
11551TIP3    H256145   6.324   4.904  11.215 -1.4086  1.3660  0.3828
11552TIP3   OH256146   0.354   0.229   1.206 -0.1612  0.0139  0.6454
11552TIP3    H156147   0.311   0.231   1.291 -0.2472 -1.9625  0.6858
11552TIP3    H256148   0.418   0.157   1.212 -0.2734 -0.2705 -0.9866
11553TIP3   OH256149   5.323   2.374   0.886  0.4658  0.4851  0.4986
11553TIP3    H156150   5.358   2.290   0.916 -0.1112  0.2161  0.4437
11553TIP3    H256151   5.398   2.420   0.850  1.1673  0.7708  2.2259
11554TIP3   OH256152   6.031   1.277   2.338 -0.8707 -0.6953  0.7091
11554TIP3    H156153   6.007   1.187   2.361  2.1686 -1.7852  0.0319
11554TIP3    H256154   6.007   1.328   2.416 -1.0464 -2.3970  1.8402
11555TIP3   OH256155   3.313   5.108  14.423  0.2942  0.4137 -0.3292
11555TIP3    H156156   3.373   5.091  14.496  2.0847  2.0623 -1.3121
11555TIP3    H256157   3.366   5.091  14.345 -0.0980  3.0649 -1.2622
11556TIP3   OH256158   5.588   0.336   2.673  0.0538 -0.3300  0.1787
11556TIP3    H156159   5.539   0.305   2.750  0.7226  0.5317  0.9813
11556TIP3    H256160   5.628   0.258   2.636 -2.2816 -1.1547 -0.7939
11557TIP3   OH256161   6.137   4.910  13.180 -0.2100  0.0907 -0.8081
11557TIP3    H156162   6.183   4.895  13.097  0.0741 -0.4991 -0.5488
11557TIP3    H256163   6.140   4.826  13.224 -3.3683 -0.6071 -1.6765
11558TIP3   OH256164   5.393   5.217  11.031  0.6220  1.1106  0.3091
11558TIP3    H156165   5.418   5.125  11.033 -0.2027  0.8315 -1.0149
11558TIP3    H256166   5.476   5.265  11.035  1.4049  0.2260 -2.7917
11559TIP3   OH256167   6.391   2.254  16.641 -0.2140  0.2795  0.9699
11559TIP3    H156168   6.478   2.287  16.666  1.0757 -2.6877  0.7942
11559TIP3    H256169   6.351   2.226  16.723 -0.3279  0.1031  0.8545
11560TIP3   OH256170   4.199   4.523  15.813  0.0435 -0.4079  0.0117
11560TIP3    H156171   4.148   4.442  15.801  1.5676 -1.4474  0.2617
11560TIP3    H256172   4.134   4.593  15.807 -1.1001 -1.5293 -1.8666
11561TIP3   OH256173   3.360   1.753   2.838  0.0803 -0.4667 -0.2168
11561TIP3    H156174   3.296   1.734   2.906 -0.0928  0.1124 -0.2124
11561TIP3    H256175   3.437   1.701   2.861  0.6839  1.0808  1.4147
11562TIP3   OH256176   2.772   4.149   4.281 -0.1788 -0.0834 -0.4165
11562TIP3    H156177   2.685   4.185   4.301 -0.8529 -0.9965 -1.5595
11562TIP3    H256178   2.829   4.186   4.347 -1.2703  1.2699 -0.1956
11563TIP3   OH256179   2.431   6.106  14.789 -0.4679 -0.0315  0.5220
11563TIP3    H156180   2.434   6.085  14.882  1.7304  0.5936  0.6619
11563TIP3    H256181   2.503   6.168  14.776  0.7908 -1.8046 -1.9504
11564TIP3   OH256182   0.735   3.068  13.747 -0.7430 -0.1939 -0.6560
11564TIP3    H156183   0.701   3.119  13.673 -1.0298  1.1440  0.3514
11564TIP3    H256184   0.827   3.093  13.754 -0.9526  0.4160  0.0125
11565TIP3   OH256185   3.166   4.877  13.784 -0.0102 -0.4201 -0.0126
11565TIP3    H156186   3.138   4.786  13.772 -0.9198 -0.3405  1.2997
11565TIP3    H256187   3.115   4.908  13.859  1.9591  0.4549  1.0383
11566TIP3   OH256188   6.571   4.562  11.207 -0.2230 -0.2318  0.6788
11566TIP3    H156189   6.560   4.651  11.173  0.1938 -0.8267 -1.0832
11566TIP3    H256190   6.551   4.570  11.300  3.1330  2.4267  1.3852
11567TIP3   OH256191   1.872   6.162  16.322 -0.8551  0.0550  0.1643
11567TIP3    H156192   1.948   6.132  16.272  1.3814  2.1015  2.1115
11567TIP3    H256193   1.874   6.257  16.313 -2.4898  0.2293  1.2813
11568TIP3   OH256194   6.643   0.599  12.762 -0.9120  0.1635 -0.1983
11568TIP3    H156195   6.644   0.509  12.797 -1.0338  0.5583  0.8624
11568TIP3    H256196   6.551   0.621  12.754 -0.8905  0.6327  0.7405
11569TIP3   OH256197   3.356   1.255  13.534  0.2069 -0.3177  0.7400
11569TIP3    H156198   3.392   1.264  13.622  1.3612  1.3339  0.1566
11569TIP3    H256199   3.285   1.319  13.530 -0.0701 -0.6352  0.5887
11570TIP3   OH256200   5.207   3.661  14.390  0.2264 -0.4903  0.0652
11570TIP3    H156201   5.210   3.691  14.299  1.3477  1.1980  0.6125
11570TIP3    H256202   5.142   3.590  14.389 -1.9425  1.3339 -1.5188
11571TIP3   OH256203   6.376   0.840  16.360  0.2208 -0.0364 -0.9375
11571TIP3    H156204   6.349   0.910  16.420  0.1073  0.4307 -1.5158
11571TIP3    H256205   6.450   0.877  16.312  0.4392 -0.4781 -0.9456
11572TIP3   OH256206   0.848   4.024   6.108 -0.4369  0.0024 -0.3545
11572TIP3    H156207   0.935   3.983   6.107 -0.5112 -0.1632 -0.1380
11572TIP3    H256208   0.858   4.097   6.169  0.0750  1.1639 -1.7552
11573TIP3   OH256209   1.418   5.554   1.508  0.8557 -0.0928 -0.5482
11573TIP3    H156210   1.364   5.564   1.430 -1.2096  0.1272  0.8568
11573TIP3    H256211   1.392   5.625   1.565  0.6639 -1.5640  1.2841
11574TIP3   OH256212   0.397   0.893   5.013 -0.4130  0.0888  0.0428
11574TIP3    H156213   0.485   0.856   5.011 -1.2596 -2.0548 -0.4518
11574TIP3    H256214   0.398   0.962   4.947  0.8592  0.0290 -0.0217
11575TIP3   OH256215   4.161   5.520   5.524  0.2385  0.3299 -0.1446
11575TIP3    H156216   4.225   5.536   5.593  0.5669  2.8837 -0.9601
11575TIP3    H256217   4.112   5.443   5.554  1.3947  0.4276  2.1567
11576TIP3   OH256218   3.376   2.290  11.158  0.8955 -0.5429  0.3353
11576TIP3    H156219   3.328   2.363  11.120  0.7677  0.5161  2.3993
11576TIP3    H256220   3.339   2.212  11.117  0.1283  0.4765 -0.9566
11577TIP3   OH256221   4.389   2.807  13.990  0.5980  0.0232 -0.5624
11577TIP3    H156222   4.408   2.713  13.998 -1.6216 -0.7398 -2.8745
11577TIP3    H256223   4.307   2.819  14.036  1.0480  0.9368  0.0265
11578TIP3   OH256224   6.506   0.358   1.171  0.6111  0.0579  0.0359
11578TIP3    H156225   6.445   0.388   1.239 -0.5347 -1.5767 -0.1996
11578TIP3    H256226   6.478   0.403   1.092  0.7268  0.5170  0.2529
11579TIP3   OH256227   0.815   4.760  11.795  0.2778  0.3531  0.7957
11579TIP3    H156228   0.896   4.715  11.816  0.5824  0.8279  0.6527
11579TIP3    H256229   0.820   4.843  11.843  0.1901  0.6832  0.2494
11580TIP3   OH256230   1.764   0.111  13.093  0.7990 -0.1441 -0.1604
11580TIP3    H156231   1.800   0.028  13.125 -1.3877 -1.3086 -0.4850
11580TIP3    H256232   1.803   0.122  13.006 -0.3594 -1.9667 -0.9943
11581TIP3   OH256233   0.818   2.691  13.100 -0.5124 -0.0001 -0.1587
11581TIP3    H156234   0.740   2.638  13.082 -0.0428 -0.8105  0.1508
11581TIP3    H256235   0.873   2.635  13.155 -0.7212  1.4165  1.5689
11582TIP3   OH256236   6.084   0.409  13.583 -0.2258 -0.1050  0.2454
11582TIP3    H156237   6.064   0.316  13.572 -0.0605  0.0061 -1.2313
11582TIP3    H256238   6.178   0.411  13.601 -0.3306 -0.2400  0.8458
11583TIP3   OH256239   1.589   3.198  13.931  0.0814  0.2738 -0.1407
11583TIP3    H156240   1.512   3.142  13.923 -1.5898  2.2898  0.6920
11583TIP3    H256241   1.636   3.165  14.007 -1.2322  0.3788  0.7439
11584TIP3   OH256242   0.717   1.149  15.114  0.7171 -0.4207 -0.4995
11584TIP3    H156243   0.768   1.187  15.185  0.8131 -0.3891 -0.5854
11584TIP3    H256244   0.777   1.145  15.040  0.3283  0.5170 -0.8860
11585TIP3   OH256245   4.746   3.399   2.145 -0.0912 -0.2008 -0.2457
11585TIP3    H156246   4.809   3.398   2.217 -2.4299 -3.8620  2.1273
11585TIP3    H256247   4.691   3.476   2.162  1.4116  0.8849 -0.1671
11586TIP3   OH256248   4.634   0.295  13.260 -0.4590  0.4908 -0.0096
11586TIP3    H156249   4.565   0.260  13.317  0.2732  1.3988  1.4949
11586TIP3    H256250   4.715   0.260  13.296 -0.0803 -0.5760 -1.7696
11587TIP3   OH256251   5.744   4.390  10.971 -0.2877 -0.4652  0.3347
11587TIP3    H156252   5.816   4.349  11.017 -0.0988 -0.5542 -0.0355
11587TIP3    H256253   5.702   4.319  10.923  0.7373 -0.0783 -1.2301
11588TIP3   OH256254   2.117   0.556   1.798  0.6388  0.0101  0.1456
11588TIP3    H156255   2.185   0.578   1.735 -1.4338  0.7639 -1.9767
11588TIP3    H256256   2.038   0.545   1.745 -1.1406  0.2151  2.5783
11589TIP3   OH256257   3.727   2.843  15.689 -0.9302  0.3487 -0.4008
11589TIP3    H156258   3.716   2.910  15.621 -1.8332 -0.4501 -1.0579
11589TIP3    H256259   3.666   2.774  15.665  0.4190 -1.0024 -0.0689
11590TIP3   OH256260   5.783   1.121  15.196  0.0371 -0.4841  0.4715
11590TIP3    H156261   5.741   1.141  15.280  1.1137  0.8633  0.7141
11590TIP3    H256262   5.864   1.076  15.220  0.0674 -0.6229  0.1158
11591TIP3   OH256263   4.333   0.749  11.201  0.1810 -0.2531  0.4356
11591TIP3    H156264   4.265   0.805  11.164  1.4789  1.4775  0.5258
11591TIP3    H256265   4.303   0.729  11.289 -0.4093  0.1276  0.3264
11592TIP3   OH256266   5.012   1.153  16.495 -0.2178  0.0877 -0.2423
11592TIP3    H156267   5.014   1.231  16.550 -0.1299  0.9841 -1.4853
11592TIP3    H256268   4.947   1.172  16.428  1.1615 -0.1090 -1.6907
11593TIP3   OH256269   2.645   5.735   2.564 -0.4331 -0.3024  0.1140
11593TIP3    H156270   2.727   5.717   2.610 -0.3002  0.6314  0.2623
11593TIP3    H256271   2.629   5.656   2.513 -0.3345 -1.1567  1.3822
11594TIP3   OH256272   6.200   6.730  11.529 -0.0179 -0.0803  0.5028
11594TIP3    H156273   6.108   6.740  11.556  0.3186  0.2389  1.6093
11594TIP3    H256274   6.241   6.682  11.602  0.7916  0.1828  0.2292
11595TIP3   OH256275   0.858   2.497   3.670  0.0672  0.3142 -0.2419
11595TIP3    H156276   0.874   2.458   3.755  1.2319  0.5021 -0.3525
11595TIP3    H256277   0.940   2.483   3.621 -0.7069 -0.1165 -1.4529
11596TIP3   OH256278   5.634   4.070   4.597  0.1496 -0.1402 -0.4160
11596TIP3    H156279   5.699   4.127   4.638 -0.6373 -0.9032  2.0266
11596TIP3    H256280   5.683   4.024   4.528  1.3932  1.5584 -0.7369
11597TIP3   OH256281   5.537   1.338  12.683 -0.2556 -0.2041  0.2121
11597TIP3    H156282   5.539   1.272  12.614  0.0023  1.4895 -1.5022
11597TIP3    H256283   5.445   1.362  12.691 -0.0123  1.7511 -1.8262
11598TIP3   OH256284   1.815   2.603  11.901  0.0008 -0.2838  1.1578
11598TIP3    H156285   1.861   2.518  11.896 -0.6465 -0.6982  2.0106
11598TIP3    H256286   1.781   2.616  11.813  1.4649 -0.1194  0.5740
11599TIP3   OH256287   2.457   4.164  13.181  0.0175  0.0462  0.3014
11599TIP3    H156288   2.437   4.107  13.254 -1.9016  0.9188  0.5087
11599TIP3    H256289   2.432   4.114  13.103 -1.1951  0.3945  0.4544
11600TIP3   OH256290   1.059   0.373   6.569 -0.1466  0.4149  0.1954
11600TIP3    H156291   1.042   0.295   6.517 -1.8293  0.8904 -0.0477
11600TIP3    H256292   1.037   0.446   6.511  0.0797  1.0323  0.8604
11601TIP3   OH256293   2.790   2.972   4.362  0.0688 -0.0964  0.2223
11601TIP3    H156294   2.865   3.019   4.397 -1.0738  2.0434 -0.0111
11601TIP3    H256295   2.737   2.950   4.439  0.2186 -0.3086  0.2658
11602TIP3   OH256296   6.768   5.644   2.952 -0.3602 -0.3099  0.0196
11602TIP3    H156297   6.681   5.682   2.962 -1.0913 -1.5426 -1.2310
11602TIP3    H256298   6.793   5.616   3.040 -0.3892  1.7016  0.7268
11603TIP3   OH256299   1.660   1.106   1.143  0.0844 -0.2225  0.0563
11603TIP3    H156300   1.704   1.093   1.059  0.7731 -2.2203  0.6757
11603TIP3    H256301   1.567   1.113   1.121  0.3528  0.4120 -0.9432
11604TIP3   OH256302   6.002   1.613   0.059 -0.1852  0.7932 -0.0488
11604TIP3    H156303   5.907   1.599   0.061 -0.0614 -0.1362  1.3345
11604TIP3    H256304   6.016   1.696   0.104 -0.2472 -0.0725  1.6594
11605TIP3   OH256305   1.079   5.813   2.557  0.4220  0.0441  0.0899
11605TIP3    H156306   0.997   5.799   2.605  0.1408  2.7877  0.5875
11605TIP3    H256307   1.147   5.795   2.621  0.1625 -0.2726  0.2817
11606TIP3   OH256308   4.482   0.495  14.714  0.4968 -0.1662 -0.4622
11606TIP3    H156309   4.548   0.517  14.650  0.8189 -0.3489 -0.1956
11606TIP3    H256310   4.530   0.480  14.795  0.0392  0.6560 -0.0262
11607TIP3   OH256311   0.482   2.303   0.665  0.0033 -0.1979  0.4818
11607TIP3    H156312   0.571   2.268   0.661  0.5805  1.2933 -0.5266
11607TIP3    H256313   0.489   2.380   0.721 -0.5484  0.2101 -0.0024
11608TIP3   OH256314   0.796   0.735   6.484  0.0397  0.1651 -0.2098
11608TIP3    H156315   0.702   0.751   6.481  0.2549  1.5742 -0.1375
11608TIP3    H256316   0.822   0.729   6.392  0.3689  3.2205 -0.4232
11609TIP3   OH256317   4.298   2.656  16.909 -0.2516 -0.3017  0.4180
11609TIP3    H156318   4.245   2.735  16.917 -0.2129 -0.1760 -0.5233
11609TIP3    H256319   4.366   2.666  16.976 -0.5282  0.2249  0.6261
11610TIP3   OH256320   6.179   4.081  12.088 -0.1052 -0.0241 -0.5254
11610TIP3    H156321   6.225   4.086  12.004  0.7346  0.3754 -0.0507
11610TIP3    H256322   6.099   4.032  12.068 -1.2813  2.3425 -2.1513
11611TIP3   OH256323   2.064   4.051  12.911 -0.1004  0.3232  0.1609
11611TIP3    H156324   2.144   4.101  12.926  0.0191  0.2814 -0.3126
11611TIP3    H256325   2.091   3.960  12.917 -0.3401  0.3110  1.1303
11612TIP3   OH256326   4.916   0.112   0.797 -0.1031 -0.0569  0.1951
11612TIP3    H156327   4.836   0.162   0.815 -1.0427 -0.6718 -2.0072
11612TIP3    H256328   4.987   0.173   0.818 -1.1382  0.8562  1.2142
11613TIP3   OH256329   6.304   5.327   4.307  0.2368 -0.0634 -0.3584
11613TIP3    H156330   6.288   5.422   4.305  0.0550 -0.0368  1.1886
11613TIP3    H256331   6.396   5.319   4.330 -0.1264 -0.2241  1.2067
11614TIP3   OH256332   1.088   5.265  12.854  0.0607  0.6224 -0.5794
11614TIP3    H156333   1.170   5.257  12.904 -1.3891 -0.4539  1.8078
11614TIP3    H256334   1.060   5.355  12.869 -0.1350  0.4378  0.1985
11615TIP3   OH256335   4.796   0.298   3.939 -0.4978  0.3649 -0.1902
11615TIP3    H156336   4.788   0.269   4.030 -0.9512 -1.7324 -0.8464
11615TIP3    H256337   4.710   0.279   3.900  0.1648 -0.2371 -1.4299
11616TIP3   OH256338   2.100   3.942  15.881 -0.0235 -0.0285  0.3912
11616TIP3    H156339   2.099   3.849  15.904 -0.2478  0.4086  2.3281
11616TIP3    H256340   2.192   3.967  15.886  0.1647 -0.3588 -1.1507
11617TIP3   OH256341   5.972   0.415  11.939  0.2194 -0.6047 -0.3051
11617TIP3    H156342   6.025   0.388  12.013 -0.2896  1.3283  0.8511
11617TIP3    H256343   5.991   0.351  11.871  2.5401 -1.0865  0.6874
11618TIP3   OH256344   2.289   4.010   5.427 -0.0573  0.3799  0.1057
11618TIP3    H156345   2.359   4.049   5.479 -0.6111  1.2011  0.2550
11618TIP3    H256346   2.242   4.085   5.389 -1.5422 -0.1021  0.9007
11619TIP3   OH256347   1.898   3.951   4.855 -0.5119 -0.2121  0.1572
11619TIP3    H156348   1.884   4.021   4.919  0.0702  0.5396 -0.5002
11619TIP3    H256349   1.976   3.979   4.807  0.1337 -1.6672  0.3256
11620TIP3   OH256350   1.095   4.323   2.545  0.2708  0.4980  0.0529
11620TIP3    H156351   1.182   4.356   2.569  0.7270 -1.1239  0.7674
11620TIP3    H256352   1.113   4.247   2.489 -0.7194  0.8399 -0.7550
11621TIP3   OH256353   1.830   6.421  16.236  0.3157 -0.0011 -0.0451
11621TIP3    H156354   1.841   6.413  16.142  0.0024 -0.9748 -0.0050
11621TIP3    H256355   1.836   6.516  16.253  2.4389  0.0413 -0.7714
11622TIP3   OH256356   4.608   4.527  16.366 -0.3679  0.2230  0.2224
11622TIP3    H156357   4.644   4.556  16.282 -1.2063  0.5570 -0.0353
11622TIP3    H256358   4.566   4.443  16.347  0.4393 -0.2739  0.5677
11623TIP3   OH256359   5.202   5.800  16.980  0.6320 -0.0571 -0.2039
11623TIP3    H156360   5.228   5.785  16.890 -0.3942 -2.2135 -0.1927
11623TIP3    H256361   5.133   5.866  16.975 -0.3727 -1.1464 -1.1644
11624TIP3   OH256362   5.430   6.817   5.449  0.6897 -0.1311  0.0423
11624TIP3    H156363   5.363   6.829   5.516  0.9865  0.1047  0.2937
11624TIP3    H256364   5.436   6.722   5.439 -2.0565 -0.2096 -2.3499
11625TIP3   OH256365   3.013   6.590   1.782  0.2671 -0.0579 -0.0932
11625TIP3    H156366   3.061   6.510   1.764 -0.4001 -0.6319  0.5875
11625TIP3    H256367   3.071   6.640   1.839  0.3421 -0.4466  0.1767
11626TIP3   OH256368   4.971   5.291  12.804  0.4286  0.4697 -0.2130
11626TIP3    H156369   4.968   5.366  12.745  2.7109  0.6573 -0.1738
11626TIP3    H256370   5.003   5.219  12.749 -2.4691 -0.7797 -0.4562
11627TIP3   OH256371   3.604   5.566   4.169  0.2782  0.2094  0.4207
11627TIP3    H156372   3.541   5.513   4.122  0.5996  0.6861 -0.5738
11627TIP3    H256373   3.671   5.504   4.198 -0.1908 -0.1638  0.7210
11628TIP3   OH256374   6.680   6.520  11.906 -0.3528 -0.3086 -0.3020
11628TIP3    H156375   6.676   6.460  11.981 -0.1762  1.6598  1.3913
11628TIP3    H256376   6.634   6.474  11.836  1.5616 -3.2711  0.1922
11629TIP3   OH256377   2.506   3.649   3.190  0.1532  0.4128 -0.0489
11629TIP3    H156378   2.547   3.718   3.243  0.8649 -0.2510  0.2763
11629TIP3    H256379   2.510   3.683   3.100 -0.8840  1.4580  0.2815
11630TIP3   OH256380   4.879   0.949  16.177  0.3836 -0.4842 -0.1908
11630TIP3    H156381   4.973   0.941  16.193  0.4003  1.0785  0.6322
11630TIP3    H256382   4.853   1.029  16.223 -1.2407 -0.5653 -0.8962
11631TIP3   OH256383   6.284   1.712   6.137 -0.3964  0.6356 -0.4710
11631TIP3    H156384   6.221   1.643   6.161  0.7869 -0.2724  0.1121
11631TIP3    H256385   6.261   1.786   6.192 -3.6737  1.9342 -3.1953
11632TIP3   OH256386   5.457   5.406   2.727  0.5832 -0.0201  0.1582
11632TIP3    H156387   5.368   5.431   2.753  0.9047  1.3650  0.0115
11632TIP3    H256388   5.481   5.471   2.660  0.8494 -1.7715 -1.5238
11633TIP3   OH256389   2.150   5.036  15.421 -0.9327  0.6137  0.1980
11633TIP3    H156390   2.167   5.129  15.434 -0.0560  0.5295 -0.2427
11633TIP3    H256391   2.203   5.012  15.345  0.8065 -0.7568  1.7158
11634TIP3   OH256392   1.861   6.255   4.663  0.1493  0.0869 -0.1949
11634TIP3    H156393   1.785   6.248   4.721  0.0758 -1.1466 -0.4164
11634TIP3    H256394   1.871   6.350   4.649  0.5615  0.4723  2.3041
11635TIP3   OH256395   6.160   6.208   3.683 -0.1334 -0.3449  0.0920
11635TIP3    H156396   6.220   6.214   3.609 -0.2849  2.6057  0.0674
11635TIP3    H256397   6.076   6.183   3.643  0.2456 -0.8915 -0.3894
11636TIP3   OH256398   0.886   6.272  12.288  0.2040 -0.6410 -0.1510
11636TIP3    H156399   0.910   6.364  12.300 -1.2948 -0.1818 -0.4534
11636TIP3    H256400   0.956   6.223  12.332  0.7449  0.6558  0.4886
11637TIP3   OH256401   2.814   1.851   0.893  0.1515 -0.1902 -0.3448
11637TIP3    H156402   2.831   1.907   0.818  1.7331 -0.2301 -0.0567
11637TIP3    H256403   2.900   1.817   0.918 -0.5282 -1.2952  0.6136
11638TIP3   OH256404   0.051   1.588   2.471  0.2775 -0.1287 -0.5507
11638TIP3    H156405   0.000   1.533   2.530 -0.4575  1.8667  0.7683
11638TIP3    H256406   0.116   1.529   2.434 -0.8912 -2.0220  0.2546
11639TIP3   OH256407   2.220   1.063  13.118  0.5266  0.1823  0.0324
11639TIP3    H156408   2.259   1.035  13.036 -1.9761  1.3430 -1.6685
11639TIP3    H256409   2.127   1.039  13.111  0.3707 -0.4892  2.9264
11640TIP3   OH256410   2.813   1.679   5.055  0.6461  0.4122  0.3864
11640TIP3    H156411   2.902   1.649   5.040  0.2626 -0.3970 -0.3722
11640TIP3    H256412   2.812   1.769   5.024  0.2687 -0.7162 -3.3803
11641TIP3   OH256413   3.301   1.067  16.391  0.1619  0.3881 -0.3671
11641TIP3    H156414   3.221   1.013  16.398  0.2945  0.2795  0.3657
11641TIP3    H256415   3.270   1.156  16.404  0.2843  0.2633  0.9583
11642TIP3   OH256416   1.629   4.579  13.694  0.3676 -0.8555 -0.6173
11642TIP3    H156417   1.566   4.564  13.765 -0.0111  0.1724 -0.7126
11642TIP3    H256418   1.581   4.557  13.614 -0.3782  1.2200 -0.8034
11643TIP3   OH256419   2.176   6.162  14.392 -0.6806  0.3048 -0.3762
11643TIP3    H156420   2.215   6.210  14.319  0.5507 -1.0679 -0.6753
11643TIP3    H256421   2.219   6.197  14.470 -1.2405  1.0505 -0.3930
11644TIP3   OH256422   2.638   1.734  12.250  0.6287 -0.0747 -0.0769
11644TIP3    H156423   2.689   1.744  12.331  1.6631 -1.3910 -0.5327
11644TIP3    H256424   2.625   1.824  12.219 -0.8312  0.5668  2.1404
11645TIP3   OH256425   4.557   1.679   4.441  0.2696  0.3771  0.2630
11645TIP3    H156426   4.489   1.617   4.466  0.9572  0.4189  2.3861
11645TIP3    H256427   4.514   1.765   4.445  0.0337  0.2733 -0.0027
11646TIP3   OH256428   5.575   0.327  13.674 -0.0335  0.4731 -0.7696
11646TIP3    H156429   5.521   0.262  13.628  1.8108 -1.1291 -0.8091
11646TIP3    H256430   5.559   0.309  13.767  0.0195  0.3666 -0.7807
11647TIP3   OH256431   1.141   5.485  13.775  0.2308  0.0152 -0.4428
11647TIP3    H156432   1.154   5.563  13.829 -0.6747 -1.1726  1.6204
11647TIP3    H256433   1.222   5.435  13.785 -0.8911 -1.5080  2.2454
11648TIP3   OH256434   5.421   3.387  15.040 -0.0989  0.1338 -0.0296
11648TIP3    H156435   5.404   3.410  14.948 -1.0857  1.1437  0.3844
11648TIP3    H256436   5.354   3.433  15.089 -1.5536 -2.8515  1.0071
11649TIP3   OH256437   0.436   2.700   6.250  0.0635  0.0039  0.5073
11649TIP3    H156438   0.355   2.654   6.229  0.3847 -0.4956  0.3428
11649TIP3    H256439   0.408   2.779   6.296 -0.5001 -0.3243  0.7324
11650TIP3   OH256440   6.293   5.595  16.546  0.0418  0.2912 -0.3186
11650TIP3    H156441   6.362   5.653  16.576 -0.7152  0.2854  1.5543
11650TIP3    H256442   6.246   5.645  16.480  1.1105  0.7103 -0.7890
11651TIP3   OH256443   2.461   6.391  15.581  0.2538 -0.1667 -0.0977
11651TIP3    H156444   2.444   6.308  15.624  1.6370 -0.9553 -1.0090
11651TIP3    H256445   2.539   6.425  15.625 -0.3645  0.7161  0.3443
11652TIP3   OH256446   5.025   0.027  12.559 -0.4594  0.1298 -0.2697
11652TIP3    H156447   5.058   0.115  12.540  0.6534 -0.0193  0.8740
11652TIP3    H256448   5.049  -0.025  12.482  0.2027  0.4868 -0.3106
11653TIP3   OH256449   2.792   5.614   3.107 -0.4116 -0.0125 -0.3614
11653TIP3    H156450   2.773   5.590   3.197  0.1130 -0.3731 -0.3433
11653TIP3    H256451   2.850   5.690   3.113 -1.2380  0.6388 -0.4113
11654TIP3   OH256452   3.227   4.868  11.947 -0.5009  0.5372 -0.1702
11654TIP3    H156453   3.193   4.793  11.898  0.4423  0.1959 -0.3247
11654TIP3    H256454   3.171   4.941  11.922  0.0477  0.4119 -1.9131
11655TIP3   OH256455   6.097   5.856   0.442 -0.1886 -0.4781 -0.2903
11655TIP3    H156456   6.184   5.896   0.436  1.2106 -3.3708 -0.8478
11655TIP3    H256457   6.040   5.918   0.397  1.8019  0.9314 -1.0502
11656TIP3   OH256458   3.460   2.659   3.442  0.5687 -0.6110  0.3478
11656TIP3    H156459   3.429   2.740   3.483 -0.0637 -2.0753  3.0188
11656TIP3    H256460   3.381   2.613   3.416  0.6329 -1.9457  2.2606
11657TIP3   OH256461   5.377   0.801  13.670 -1.0684 -0.2012 -0.3826
11657TIP3    H156462   5.420   0.740  13.730  1.2499  1.5488 -0.1394
11657TIP3    H256463   5.406   0.773  13.583 -0.1542  0.4060 -0.2846
11658TIP3   OH256464   1.389   1.817  10.977  0.3328  0.5095  0.3880
11658TIP3    H156465   1.373   1.894  11.031  0.5757  0.5441  0.4135
11658TIP3    H256466   1.483   1.821  10.958 -0.2908  2.5759 -3.1838
11659TIP3   OH256467   0.802   3.633   1.700  0.4807  0.4443 -0.4229
11659TIP3    H156468   0.776   3.547   1.733 -0.0442  0.6038 -0.4230
11659TIP3    H256469   0.898   3.632   1.705  0.4262  0.3669  0.8555
11660TIP3   OH256470   3.185   5.239  15.948  0.0234  0.3634 -0.3074
11660TIP3    H156471   3.250   5.302  15.979  1.1494 -0.7776 -0.2945
11660TIP3    H256472   3.102   5.271  15.984  1.0142  0.0122  2.5407
11661TIP3   OH256473   5.065   4.322  11.914  0.0537 -0.1017 -0.7098
11661TIP3    H156474   5.053   4.243  11.967  0.7073 -0.0912 -0.5316
11661TIP3    H256475   4.979   4.340  11.877 -0.0057 -1.1724 -1.1291
11662TIP3   OH256476   0.103   0.081   4.840  0.2202  0.0204  0.1007
11662TIP3    H156477   0.177   0.024   4.864 -0.0858 -0.3654  0.1336
11662TIP3    H256478   0.144   0.157   4.799  0.5910 -0.6511 -0.7953
11663TIP3   OH256479   3.902   1.475  13.513  0.3614 -0.3687  0.7381
11663TIP3    H156480   3.815   1.456  13.478  0.5593 -0.9796  0.5699
11663TIP3    H256481   3.885   1.512  13.600 -0.0356 -1.2593  1.0498
11664TIP3   OH256482   0.399   5.987  15.763  0.0335 -0.0731  0.4497
11664TIP3    H156483   0.305   6.005  15.753 -0.0312 -0.7878 -0.4895
11664TIP3    H256484   0.404   5.927  15.837 -0.6834 -2.8191 -1.5684
11665TIP3   OH256485   4.339   5.743  17.117 -0.9542  0.4101  0.0564
11665TIP3    H156486   4.283   5.676  17.079 -0.7888 -0.4566  1.2883
11665TIP3    H256487   4.428   5.713  17.099 -0.8792  0.2600  0.6736
11666TIP3   OH256488   2.571   0.124   6.010  0.0600 -0.0504  0.4508
11666TIP3    H156489   2.607   0.107   6.097 -2.3664 -0.0450  1.5240
11666TIP3    H256490   2.481   0.154   6.026 -0.0766  1.1220 -2.0089
11667TIP3   OH256491   0.597   2.027  13.496  0.0226  0.3593 -0.1686
11667TIP3    H156492   0.537   2.037  13.422 -2.2739 -1.2332  1.3250
11667TIP3    H256493   0.577   2.102  13.553 -2.4500 -1.3259  1.4256
11668TIP3   OH256494   3.456   3.662   3.051 -0.2999 -0.0983  0.2250
11668TIP3    H156495   3.368   3.682   3.022 -0.6321 -0.5708  0.8789
11668TIP3    H256496   3.461   3.566   3.050  0.1787 -0.0788  0.2608
11669TIP3   OH256497   6.452   1.680  15.050  0.1024  0.0703  0.3184
11669TIP3    H156498   6.490   1.740  15.114  2.1852  1.0429 -1.6958
11669TIP3    H256499   6.398   1.736  14.994 -0.4033 -0.4744  0.2611
11670TIP3   OH256500   3.841   5.262  15.793  0.5158  0.0091 -0.2264
11670TIP3    H156501   3.894   5.342  15.796  0.9150 -0.2751  0.6987
11670TIP3    H256502   3.752   5.291  15.812  0.6032  0.2814 -0.2311
11671TIP3   OH256503   6.147   1.802   3.550  0.4571  0.3149  0.2273
11671TIP3    H156504   6.233   1.817   3.511  0.8892 -1.9727  0.1544
11671TIP3    H256505   6.166   1.772   3.639 -0.3067  0.3264  0.4003
11672TIP3   OH256506   4.737   4.791   0.728 -0.3305 -0.6955 -0.5294
11672TIP3    H156507   4.696   4.784   0.814 -0.8487  0.3261 -0.6845
11672TIP3    H256508   4.688   4.728   0.674 -1.4845  0.2517 -0.6212
11673TIP3   OH256509   4.714   6.287   5.703 -0.2720  0.1969 -0.2845
11673TIP3    H156510   4.794   6.292   5.755  0.2676  2.9605 -1.1892
11673TIP3    H256511   4.671   6.372   5.717 -2.3742 -0.7076 -0.8844
11674TIP3   OH256512   3.656   0.226  12.978 -0.0151  0.5914 -0.4133
11674TIP3    H156513   3.655   0.321  12.995 -2.2575  1.3421 -3.7492
11674TIP3    H256514   3.709   0.216  12.900 -2.0823 -0.4231 -1.7857
11675TIP3   OH256515   0.473   2.018  15.993 -0.2882 -0.0876  0.0421
11675TIP3    H156516   0.447   2.047  15.905 -0.0867  0.4122  0.1444
11675TIP3    H256517   0.537   1.948  15.977  0.0647  0.2851 -0.2175
11676TIP3   OH256518   0.905   1.580   0.206  0.5746 -0.4489 -0.1185
11676TIP3    H156519   0.809   1.583   0.206  0.5586 -0.6194 -1.3809
11676TIP3    H256520   0.928   1.539   0.123  1.6924 -3.2430  1.4254
11677TIP3   OH256521   6.737   0.650  16.968  0.1131  0.3952 -0.1927
11677TIP3    H156522   6.790   0.670  16.890  1.4425 -0.6126  0.4024
11677TIP3    H256523   6.802   0.627  17.035 -1.0453  0.4357  0.9742
11678TIP3   OH256524   0.130   6.115   0.429 -0.1464  0.0754  0.1514
11678TIP3    H156525   0.184   6.068   0.366  1.2311  0.1163  1.2437
11678TIP3    H256526   0.094   6.189   0.380 -0.9348 -1.1327 -1.1366
11679TIP3   OH256527   2.276   4.667  11.953 -0.1073  0.0581  0.0394
11679TIP3    H156528   2.346   4.725  11.922  0.4294  0.5836  2.0722
11679TIP3    H256529   2.318   4.581  11.960 -0.0978  0.0406 -0.2404
11680TIP3   OH256530   1.593   0.577  12.943  0.1876  0.2826 -0.3704
11680TIP3    H156531   1.678   0.536  12.927  0.0058 -0.0057 -0.5906
11680TIP3    H256532   1.580   0.571  13.038  0.4433  0.3914 -0.3274
11681TIP3   OH256533   4.446   4.124   2.213 -0.3019  0.2448 -0.5281
11681TIP3    H156534   4.366   4.164   2.246 -0.4135  0.8746 -1.5456
11681TIP3    H256535   4.516   4.164   2.265 -0.5756  0.2451 -0.1546
11682TIP3   OH256536   0.847   1.170   0.305 -0.3249  0.1134 -0.3524
11682TIP3    H156537   0.849   1.231   0.379  1.3782  0.7397 -0.8638
11682TIP3    H256538   0.881   1.220   0.231 -1.6509 -0.6164 -1.5060
11683TIP3   OH256539   2.169   6.432   1.607  0.4733  0.6071 -0.0379
11683TIP3    H156540   2.180   6.455   1.699 -0.7338  2.1750 -0.2422
11683TIP3    H256541   2.091   6.377   1.606 -0.4013  1.8167 -0.2631
11684TIP3   OH256542   4.081   1.738  17.231  0.4133  0.7563  0.3928
11684TIP3    H156543   4.013   1.775  17.175  0.2519  0.6053  0.4880
11684TIP3    H256544   4.050   1.755  17.320  0.9424  1.5023  0.4441
11685TIP3   OH256545   2.700   4.227  11.538  0.4908 -0.5934 -0.8178
11685TIP3    H156546   2.755   4.288  11.489 -0.9488  0.2644 -1.4270
11685TIP3    H256547   2.645   4.186  11.471 -0.2281 -0.7599 -0.1391
11686TIP3   OH256548   5.754   3.468   6.063 -0.0251 -0.2643 -0.2067
11686TIP3    H156549   5.825   3.531   6.060 -0.1046 -0.0757  1.1897
11686TIP3    H256550   5.704   3.491   6.141 -1.5523 -0.4771 -1.0747
11687TIP3   OH256551   1.915   1.173   5.352  0.6744 -0.5750  0.4759
11687TIP3    H156552   1.902   1.259   5.310 -1.7863 -0.1840  1.8277
11687TIP3    H256553   2.010   1.167   5.364  0.9044  2.4561  1.2330
11688TIP3   OH256554   3.426   1.487  16.534 -0.1730 -0.0048  1.0145
11688TIP3    H156555   3.399   1.464  16.445 -0.0891 -1.3327  1.3184
11688TIP3    H256556   3.400   1.412  16.587  2.2227 -0.4271  1.6716
11689TIP3   OH256557   1.560   6.133   5.371 -0.0368  0.6753  0.9509
11689TIP3    H156558   1.583   6.069   5.439 -1.9928  0.4066  1.4148
11689TIP3    H256559   1.495   6.088   5.317 -0.0576  1.6305  0.1525
11690TIP3   OH256560   5.244   1.452   3.475 -0.1159  0.3321  0.3659
11690TIP3    H156561   5.255   1.490   3.562 -0.1538  2.4169 -0.4867
11690TIP3    H256562   5.296   1.372   3.477  0.4463  0.7049  2.0717
11691TIP3   OH256563   0.118   3.125  13.701  0.7201  0.0474 -0.5028
11691TIP3    H156564   0.202   3.079  13.706 -0.6361 -2.9365 -2.2447
11691TIP3    H256565   0.052   3.056  13.714 -1.5077  1.5305 -2.9055
11692TIP3   OH256566   2.024   3.725  14.315  0.4959 -0.3890 -0.4265
11692TIP3    H156567   1.960   3.697  14.381  1.8646 -2.0796  0.2796
11692TIP3    H256568   1.985   3.702  14.231 -0.3926 -0.1081 -0.0994
11693TIP3   OH256569   0.188   6.165  12.117  0.7164  0.0792  0.2284
11693TIP3    H156570   0.227   6.112  12.047 -0.6884 -0.4201 -0.2130
11693TIP3    H256571   0.146   6.101  12.174 -0.0406  0.6376  0.3112
11694TIP3   OH256572   3.952   0.932  16.836 -0.2854  0.4878  0.3959
11694TIP3    H156573   4.016   0.993  16.802  0.4747 -0.1327  0.6818
11694TIP3    H256574   3.928   0.877  16.761  0.9935 -0.5360  0.6894
11695TIP3   OH256575   1.634   3.109   0.402 -0.6936 -0.4048  0.7027
11695TIP3    H156576   1.635   3.182   0.340  2.6187 -2.1492 -1.5863
11695TIP3    H256577   1.705   3.129   0.463 -0.4810 -1.1626  0.7170
11696TIP3   OH256578   3.054   3.472   5.750  0.1698  0.4824 -0.4712
11696TIP3    H156579   2.990   3.526   5.704 -0.6401  0.9095  1.0726
11696TIP3    H256580   3.070   3.519   5.832  0.9039 -0.6650  0.0678
11697TIP3   OH256581   3.322   3.240  15.071 -0.1858 -0.4574 -0.4518
11697TIP3    H156582   3.256   3.199  15.016  0.1775 -1.6664 -0.0176
11697TIP3    H256583   3.397   3.254  15.013 -0.3382 -0.3357 -0.6204
11698TIP3   OH256584   1.468   1.776   0.573 -0.1773  0.0017  0.5384
11698TIP3    H156585   1.498   1.809   0.488 -1.5660  0.4757  0.2145
11698TIP3    H256586   1.533   1.710   0.597  0.7164  0.4901 -0.4736
11699TIP3   OH256587   2.910   4.569   3.617 -0.3483 -0.4150  0.3046
11699TIP3    H156588   2.921   4.474   3.624  1.5007 -0.1557  1.6107
11699TIP3    H256589   2.959   4.604   3.692 -1.9864  1.5276  0.5540
11700TIP3   OH256590   4.682   1.971   6.173 -0.2296  0.3660  0.2119
11700TIP3    H156591   4.696   1.885   6.214  1.6652  0.5647  0.0905
11700TIP3    H256592   4.600   1.962   6.125 -0.8890 -0.8657  1.5065
11701TIP3   OH256593   0.539   2.028  17.098 -0.3128  0.0353  0.6233
11701TIP3    H156594   0.529   2.037  17.003 -1.1343  1.0454  0.7916
11701TIP3    H256595   0.507   1.940  17.117  2.0607 -1.1169 -0.3016
11702TIP3   OH256596   5.901   0.532  12.462 -0.8714  0.4965 -0.1414
11702TIP3    H156597   5.913   0.466  12.393 -1.3324 -0.7397  0.9156
11702TIP3    H256598   5.913   0.483  12.543  1.1130  2.1949  0.6897
11703TIP3   OH256599   0.233   2.082   4.070  0.1550  0.3843 -0.7786
11703TIP3    H156600   0.157   2.140   4.059 -1.3011 -0.9273  1.5330
11703TIP3    H256601   0.243   2.074   4.164  0.7872 -2.4806 -1.0175
11704TIP3   OH256602   6.162   4.043   5.500 -0.2046 -0.0913  0.0734
11704TIP3    H156603   6.230   4.109   5.510 -0.8311  0.4040  1.3878
11704TIP3    H256604   6.173   3.986   5.576  0.4635 -1.6727 -1.1469
11705TIP3   OH256605   6.521   1.804   2.852  0.5705  0.7619 -0.3053
11705TIP3    H156606   6.612   1.782   2.870  0.3720 -0.2446 -0.4521
11705TIP3    H256607   6.474   1.720   2.859 -0.4096  1.3284  0.1870
11706TIP3   OH256608   5.265   6.195  12.500 -0.2526 -0.5335 -0.0427
11706TIP3    H156609   5.218   6.231  12.576  1.8408 -2.0205  2.1008
11706TIP3    H256610   5.196   6.164  12.442 -1.9614  0.3725  1.3898
11707TIP3   OH256611   6.236   1.581   5.294 -0.1412  0.0543 -0.1852
11707TIP3    H156612   6.215   1.625   5.377  2.7423 -2.8133  2.3803
11707TIP3    H256613   6.156   1.535   5.271 -0.3142 -1.4229  2.7956
11708TIP3   OH256614   4.570   3.080  13.450  0.7454 -0.6191  0.7741
11708TIP3    H156615   4.600   3.087  13.541  1.5042 -0.4617  0.5125
11708TIP3    H256616   4.501   3.014  13.453 -0.6661  0.8072  1.8213
11709TIP3   OH256617   2.090   0.043   4.113  0.6066 -0.5929 -0.1323
11709TIP3    H156618   2.031   0.048   4.038  0.0306  0.7310  0.3811
11709TIP3    H256619   2.033   0.055   4.189  1.6071  1.8446  0.3272
11710TIP3   OH256620   6.192   3.278  16.128  0.4240  0.3758 -0.1281
11710TIP3    H156621   6.238   3.282  16.045 -0.7204  2.7972 -0.7594
11710TIP3    H256622   6.178   3.185  16.144  1.1776 -0.1799 -2.3580
11711TIP3   OH256623   5.385   6.678  13.107  0.7179 -0.1503  0.2266
11711TIP3    H156624   5.306   6.713  13.064  1.4246  0.7808 -0.3749
11711TIP3    H256625   5.353   6.639  13.188 -0.5827 -1.3436 -0.7958
11712TIP3   OH256626   2.236   0.981   4.374  0.6229 -0.2049 -0.8638
11712TIP3    H156627   2.181   0.997   4.452 -0.0688 -3.3304 -0.5500
11712TIP3    H256628   2.298   0.914   4.403  0.4537 -1.3186 -2.9253
11713TIP3   OH256629   6.794   1.086  15.692 -0.5735  0.2031 -0.0498
11713TIP3    H156630   6.855   1.048  15.628 -0.7186 -0.0186 -0.0576
11713TIP3    H256631   6.741   1.147  15.642 -1.3253 -0.6637 -0.3465
11714TIP3   OH256632   4.887   5.916  12.264  0.3893  0.2852  0.5073
11714TIP3    H156633   4.971   5.894  12.223 -0.0613 -0.3194 -0.1145
11714TIP3    H256634   4.858   5.996  12.219 -0.8321 -1.2049 -1.4928
11715TIP3   OH256635   3.558   0.206  12.054 -0.1733 -0.2530  0.1812
11715TIP3    H156636   3.618   0.198  11.980  2.4115  1.3364  1.9524
11715TIP3    H256637   3.580   0.289  12.095 -1.3498 -1.1337  2.8603
11716TIP3   OH256638   2.205   2.028   1.102  0.1687  0.0586 -0.3296
11716TIP3    H156639   2.262   2.062   1.033 -0.1821 -1.1434 -1.2690
11716TIP3    H256640   2.262   1.976   1.157  0.0903 -0.8014 -1.0292
11717TIP3   OH256641   3.704   0.797  15.445 -0.5627  0.1423 -0.1565
11717TIP3    H156642   3.632   0.855  15.422 -1.8418 -0.6052  1.7190
11717TIP3    H256643   3.783   0.843  15.415 -1.7871  0.6660 -2.9069
11718TIP3   OH256644   5.782   4.718   0.502  0.2841 -0.0411  0.9357
11718TIP3    H156645   5.776   4.791   0.564 -0.3911 -0.4003  1.2975
11718TIP3    H256646   5.873   4.689   0.508  0.6833  1.0501  0.4577
11719TIP3   OH256647   3.968   1.672   3.791 -0.3360  0.0031 -0.5427
11719TIP3    H156648   3.980   1.627   3.875  0.0265 -0.6514 -0.9354
11719TIP3    H256649   3.964   1.601   3.726 -0.5026  0.5065 -1.0918
11720TIP3   OH256650   3.878   0.901  14.049 -0.8271 -0.1362 -0.0855
11720TIP3    H156651   3.863   0.809  14.070 -1.1756 -0.0306  0.1487
11720TIP3    H256652   3.827   0.949  14.115 -0.0416  0.2353  0.2696
11721TIP3   OH256653   5.519   4.174   2.432  0.0779  0.2596  0.3501
11721TIP3    H156654   5.603   4.215   2.453  0.0852 -0.5113  1.9306
11721TIP3    H256655   5.474   4.238   2.377  0.4852  1.9970  1.9398
11722TIP3   OH256656   0.888   6.030  14.418  0.7090  0.2682  0.0939
11722TIP3    H156657   0.835   6.110  14.414 -0.6835 -0.6887 -2.2259
11722TIP3    H256658   0.973   6.060  14.451  0.0976  2.6220 -0.2936
11723TIP3   OH256659   3.624   2.009   2.603 -0.0899 -0.1413  0.5213
11723TIP3    H156660   3.715   2.017   2.633  0.8919  0.3448 -2.3123
11723TIP3    H256661   3.573   2.050   2.673  2.2299  3.1896  0.5337
11724TIP3   OH256662   5.056   1.366  12.273  0.7543 -0.2096  0.1299
11724TIP3    H156663   5.126   1.361  12.208  2.5955 -0.3421  2.0183
11724TIP3    H256664   4.985   1.314  12.235  1.5297  0.1572 -1.9813
11725TIP3   OH256665   5.891   5.299   2.583  0.4617  0.2912 -0.1366
11725TIP3    H156666   5.894   5.305   2.678 -0.6649 -1.1199  0.0386
11725TIP3    H256667   5.855   5.382   2.554  1.6654  1.0884  0.5828
11726TIP3   OH256668   1.359   1.700   3.158 -0.2174  0.0375 -0.1609
11726TIP3    H156669   1.408   1.743   3.088  0.1944 -0.5067 -0.2065
11726TIP3    H256670   1.268   1.700   3.126  0.0017 -0.4078 -0.7944
11727TIP3   OH256671   4.837   5.289  15.304  0.0796 -0.4074  0.3621
11727TIP3    H156672   4.918   5.243  15.281  0.0766 -0.2608  0.0652
11727TIP3    H256673   4.770   5.249  15.248 -0.5726 -2.3409  2.3800
11728TIP3   OH256674   4.188   4.546   1.837 -0.5163 -0.0475  0.6560
11728TIP3    H156675   4.254   4.593   1.787 -0.5557 -0.3878  0.2806
11728TIP3    H256676   4.191   4.586   1.924 -0.6005  0.6940  0.3205
11729TIP3   OH256677   4.879   2.319   4.562 -0.3504  0.5665 -0.1640
11729TIP3    H156678   4.910   2.322   4.472 -1.2654  1.4142 -0.4663
11729TIP3    H256679   4.795   2.366   4.561 -1.8371 -1.8707  0.5383
11730TIP3   OH256680   0.813   0.650   3.185 -0.1779  0.7348  0.3768
11730TIP3    H156681   0.840   0.559   3.175  0.6337  1.1254 -1.4126
11730TIP3    H256682   0.744   0.662   3.120 -2.5187  0.6368  2.6904
11731TIP3   OH256683   0.562   5.792   2.541  0.2609 -0.0147 -0.2480
11731TIP3    H156684   0.540   5.883   2.560 -0.4863 -0.3710  0.6752
11731TIP3    H256685   0.652   5.795   2.508  0.6942  0.9262  0.9617
11732TIP3   OH256686   0.296   4.880  15.820  0.2407 -0.3900 -0.1440
11732TIP3    H156687   0.290   4.878  15.725 -0.0679 -0.3354 -0.1283
11732TIP3    H256688   0.345   4.960  15.839  0.5676 -0.5603 -0.2663
11733TIP3   OH256689   3.797   1.016   4.002  0.4430 -0.1001 -0.5503
11733TIP3    H156690   3.735   0.963   3.952 -1.1955  0.5645  0.6691
11733TIP3    H256691   3.865   0.954   4.029 -1.4230 -1.6836  0.8632
11734TIP3   OH256692   3.761   0.717  12.900 -0.4773 -0.4029  0.1231
11734TIP3    H156693   3.680   0.765  12.920  0.7471  1.7862  0.0232
11734TIP3    H256694   3.825   0.749  12.963  0.4982 -1.6866 -0.1625
11735TIP3   OH256695   4.905   5.584  15.714 -0.3930 -0.2005  0.3940
11735TIP3    H156696   4.994   5.552  15.727 -0.0386  0.2667 -0.7277
11735TIP3    H256697   4.862   5.517  15.661 -0.1152  0.4265 -0.6594
11736TIP3   OH256698   1.645   2.950  11.956  0.2119 -0.0519  0.3824
11736TIP3    H156699   1.622   2.866  11.918  2.7367 -0.7822  0.3353
11736TIP3    H256700   1.623   2.941  12.049 -1.4858  0.0559  0.0360
11737TIP3   OH256701   2.605   2.687  15.419  0.3790  0.7135 -0.0913
11737TIP3    H156702   2.688   2.713  15.380  1.0247  0.8292  1.2841
11737TIP3    H256703   2.539   2.706  15.352  1.5422 -0.1908 -1.5293
11738TIP3   OH256704   5.208   0.973  13.796 -0.5081 -0.2270 -0.3022
11738TIP3    H156705   5.143   0.911  13.830 -1.8463  0.7438 -0.9813
11738TIP3    H256706   5.275   0.919  13.756 -1.3584 -1.2502 -0.3784
11739TIP3   OH256707   5.154   5.108   3.587  0.3793  0.4602  0.3778
11739TIP3    H156708   5.144   5.203   3.592 -3.0035  0.3092 -0.6554
11739TIP3    H256709   5.065   5.075   3.598  1.5856 -2.6882  1.6524
11740TIP3   OH256710   1.199   3.669  12.188 -0.0913  0.1187 -0.7725
11740TIP3    H156711   1.179   3.710  12.272  1.4315 -0.6931  0.0247
11740TIP3    H256712   1.115   3.634  12.158 -0.8488  1.2856 -0.0864
11741TIP3   OH256713   2.828   0.904  12.635  0.1893 -0.1680  0.5393
11741TIP3    H156714   2.771   0.834  12.667 -0.4024  0.7510  1.5679
11741TIP3    H256715   2.886   0.924  12.708 -0.8537  1.6257  0.9483
11742TIP3   OH256716   0.173   0.181   1.001 -0.0702 -0.0521 -0.2898
11742TIP3    H156717   0.081   0.196   1.023 -0.1117  0.6477 -0.8906
11742TIP3    H256718   0.221   0.221   1.073 -0.2354 -0.8082  0.2500
11743TIP3   OH256719   6.773   3.933  15.616 -0.5271 -0.0929  0.0036
11743TIP3    H156720   6.817   3.898  15.693 -2.9655  1.1608  2.0886
11743TIP3    H256721   6.750   3.856  15.565  1.3677 -0.9292  0.3154
11744TIP3   OH256722   5.066   1.293  13.118  0.4317 -0.1671  0.1088
11744TIP3    H156723   5.156   1.316  13.141  0.2081  2.9041 -1.5747
11744TIP3    H256724   5.067   1.288  13.023 -1.3986  1.1350 -0.0119
11745TIP3   OH256725   2.785   0.517  11.655 -0.5149  0.2586 -0.1506
11745TIP3    H156726   2.709   0.566  11.686  0.0277  0.5264  0.8035
11745TIP3    H256727   2.841   0.583  11.613  0.0911  0.4188  0.8937
11746TIP3   OH256728   2.226   1.548   3.636 -0.4141  0.0554  0.3619
11746TIP3    H156729   2.319   1.542   3.613  0.0383 -1.0784  2.2544
11746TIP3    H256730   2.226   1.590   3.722 -1.7714  1.1217 -0.1175
11747TIP3   OH256731   6.187   5.777   0.981  0.2332 -0.4298  0.2344
11747TIP3    H156732   6.131   5.701   0.965 -0.9528  0.3372  0.6633
11747TIP3    H256733   6.271   5.739   1.007 -0.5871 -1.5946  1.3075
11748TIP3   OH256734   4.764   4.868   5.443  0.3811  0.4273 -0.1265
11748TIP3    H156735   4.789   4.782   5.411  1.7263  0.8042 -0.1544
11748TIP3    H256736   4.761   4.859   5.538 -0.9266  0.0068 -0.1783
11749TIP3   OH256737   0.457   5.553  16.261  0.4168  0.2439 -0.1221
11749TIP3    H156738   0.433   5.623  16.323 -1.6054 -0.1893 -0.3442
11749TIP3    H256739   0.534   5.512  16.300  0.8887  1.7618  0.6578
11750TIP3   OH256740   2.481   4.791  11.557 -0.1246 -0.0866  0.9985
11750TIP3    H156741   2.398   4.836  11.571 -0.1661 -0.6167  2.6201
11750TIP3    H256742   2.456   4.703  11.528 -0.1456 -0.3333  1.7521
11751TIP3   OH256743   3.206   1.724  12.604  0.1411  0.6315 -0.0945
11751TIP3    H156744   3.190   1.809  12.563 -0.7437  0.2224 -0.6340
11751TIP3    H256745   3.184   1.660  12.536 -2.6431 -0.1170  1.3632
11752TIP3   OH256746   5.278   0.846   1.790  0.1409  0.1361 -0.8470
11752TIP3    H156747   5.332   0.779   1.749  1.3500  0.8182 -0.3998
11752TIP3    H256748   5.285   0.829   1.884 -0.3493  0.2886 -0.7801
11753TIP3   OH256749   4.918   4.518  16.242 -0.1903  0.0938  0.1211
11753TIP3    H156750   4.915   4.545  16.334 -0.3118  1.7197 -0.3229
11753TIP3    H256751   4.936   4.599  16.194  0.3829 -0.8083 -1.2599
11754TIP3   OH256752   1.403   4.614  14.778  0.1237  0.7056  0.1197
11754TIP3    H156753   1.386   4.553  14.850  1.2487  1.1554  0.7891
11754TIP3    H256754   1.377   4.566  14.699  1.1863 -0.7317  0.6007
11755TIP3   OH256755   5.239   1.847  13.600 -0.4705 -0.4077 -0.7820
11755TIP3    H156756   5.297   1.795  13.544  0.5853 -0.2199  0.1051
11755TIP3    H256757   5.271   1.937  13.589  0.5224 -0.4949  0.9642
11756TIP3   OH256758   4.016   4.118   4.738 -0.1026  0.2356 -0.5120
11756TIP3    H156759   4.065   4.196   4.712 -0.6004  0.0541 -2.0942
11756TIP3    H256760   3.962   4.147   4.811 -0.8317  1.5948 -1.5448
11757TIP3   OH256761   5.423   5.624  11.235  0.0000 -0.2548  0.2280
11757TIP3    H156762   5.503   5.573  11.243 -0.7503 -1.2085  2.5587
11757TIP3    H256763   5.419   5.676  11.316 -1.3524  0.3532 -0.1876
11758TIP3   OH256764   1.291   5.852  12.863  0.0103  0.3052  0.0276
11758TIP3    H156765   1.243   5.849  12.946 -0.5378 -0.8580 -0.3061
11758TIP3    H256766   1.229   5.818  12.798  1.2228 -1.1824 -0.4190
11759TIP3   OH256767   3.642   2.354  12.375  0.5772 -0.2165 -0.5501
11759TIP3    H156768   3.735   2.343  12.356  0.7125  1.8723 -1.3729
11759TIP3    H256769   3.616   2.272  12.416  2.2496 -1.7478 -2.3631
11760TIP3   OH256770   4.127   3.656   1.769 -0.0668  0.4200 -0.4786
11760TIP3    H156771   4.168   3.605   1.839 -0.9396 -0.7108 -0.7817
11760TIP3    H256772   4.096   3.736   1.813  1.9692  1.0919 -0.1432
11761TIP3   OH256773   2.926   4.205  15.608 -0.6788 -0.2218  0.5996
11761TIP3    H156774   2.998   4.186  15.549 -1.2538 -3.8747  0.8438
11761TIP3    H256775   2.854   4.231  15.550 -0.3324 -0.6121 -0.0116
11762TIP3   OH256776   0.602   3.228   2.785 -0.4598 -0.0855 -0.3703
11762TIP3    H156777   0.679   3.271   2.746 -1.1417  0.0706 -1.5931
11762TIP3    H256778   0.595   3.266   2.872  0.4852  0.3553 -0.4723
11763TIP3   OH256779   4.513   4.962   1.446 -0.3285  1.0640 -0.3170
11763TIP3    H156780   4.596   4.985   1.488 -0.5319 -0.8780  1.2659
11763TIP3    H256781   4.452   5.029   1.476  0.2007  1.3353  0.1728
11764TIP3   OH256782   3.182   0.475   5.685  0.5414  0.2437 -0.0500
11764TIP3    H156783   3.165   0.552   5.631 -1.3950 -0.4553 -0.5057
11764TIP3    H256784   3.163   0.503   5.774 -2.5395 -0.2425 -0.4384
11765TIP3   OH256785   4.878   3.080   2.840  0.5109  0.5606  0.6060
11765TIP3    H156786   4.860   3.134   2.916 -1.1518 -0.5516  1.0567
11765TIP3    H256787   4.938   3.132   2.787  0.6001  1.9384  2.0026
11766TIP3   OH256788   3.376   1.222  13.820  0.1922 -0.0281 -0.3251
11766TIP3    H156789   3.394   1.309  13.857  1.1782 -1.0976  1.8531
11766TIP3    H256790   3.445   1.166  13.855 -0.8850 -1.8927 -1.0373
11767TIP3   OH256791   2.627   2.337   4.975  0.1659  0.4609 -0.5047
11767TIP3    H156792   2.592   2.425   4.984  0.0773  0.6258 -2.1999
11767TIP3    H256793   2.550   2.280   4.972  0.1458  0.5272 -1.3309
11768TIP3   OH256794   1.308   4.290  17.109  0.1194 -0.1166  0.0739
11768TIP3    H156795   1.245   4.307  17.179  0.0611 -3.3324  0.9731
11768TIP3    H256796   1.254   4.256  17.037  0.6093 -1.0568  0.1427
11769TIP3   OH256797   2.211   3.817   3.122  1.2959 -0.3928  0.0304
11769TIP3    H156798   2.182   3.726   3.119  1.3967 -0.5122  1.7536
11769TIP3    H256799   2.262   3.828   3.042  2.9490 -2.4425  0.6995
11770TIP3   OH256800   3.912   2.058  13.431  0.4953 -0.1622 -0.1776
11770TIP3    H156801   3.819   2.079  13.431  0.5287  0.0163 -0.9436
11770TIP3    H256802   3.955   2.140  13.455  0.5230  0.1541 -1.2555
11771TIP3   OH256803   4.174   4.799  15.110 -0.0473  0.1024 -0.0086
11771TIP3    H156804   4.254   4.747  15.118  0.4517  0.7087 -0.8940
11771TIP3    H256805   4.133   4.794  15.196  1.6262  0.8950  0.8662
11772TIP3   OH256806   4.379   0.689   3.026 -0.4432 -0.8329  0.4041
11772TIP3    H156807   4.292   0.651   3.030 -0.6256 -0.5116 -0.4370
11772TIP3    H256808   4.427   0.634   2.964  0.0269 -1.1477  1.0369
11773TIP3   OH256809   1.198   5.875   4.738  0.4366  0.1491 -0.3039
11773TIP3    H156810   1.276   5.821   4.749  0.8483  0.9504  0.9024
11773TIP3    H256811   1.214   5.924   4.657  1.6357  1.0141  0.4283
11774TIP3   OH256812   6.671   3.632  11.932 -0.3354  0.0298 -0.2907
11774TIP3    H156813   6.721   3.707  11.900  0.5306  0.7375  2.4494
11774TIP3    H256814   6.722   3.599  12.007 -1.1950 -2.7146 -0.7909
11775TIP3   OH256815   5.523   0.194  14.636  0.4069 -0.2798 -0.1364
11775TIP3    H156816   5.574   0.145  14.701 -0.3584 -2.4820 -1.0783
11775TIP3    H256817   5.574   0.187  14.555  1.1387  2.0632  0.0710
11776TIP3   OH256818   5.707   2.547   4.893 -0.8263  0.4047  0.7054
11776TIP3    H156819   5.623   2.532   4.849  0.5641 -3.4207 -1.0665
11776TIP3    H256820   5.754   2.608   4.836 -1.4903  0.6769  0.4418
11777TIP3   OH256821   6.681   2.975  14.184 -0.3388  0.5317 -0.7010
11777TIP3    H156822   6.619   3.042  14.212 -0.3203 -0.5251  2.2268
11777TIP3    H256823   6.767   3.011  14.205 -0.2205  0.3679 -0.9026
11778TIP3   OH256824   3.986   0.025   0.281 -0.3463 -0.6089 -0.4641
11778TIP3    H156825   4.052   0.077   0.234 -0.5324  0.1057  0.0420
11778TIP3    H256826   3.980  -0.057   0.231 -1.5699  0.6554 -2.5264
11779TIP3   OH256827   1.144   6.695  16.220 -0.4770 -0.6236  0.0413
11779TIP3    H156828   1.192   6.761  16.168 -0.6707 -0.6972 -0.2336
11779TIP3    H256829   1.188   6.612  16.199  1.9820 -0.2438  2.9106
11780TIP3   OH256830   2.794   5.327  14.849 -0.3946  0.5764 -0.5582
11780TIP3    H156831   2.701   5.304  14.857 -0.1941 -0.0061  0.3056
11780TIP3    H256832   2.814   5.318  14.756 -1.4186  1.5736 -0.8845
11781TIP3   OH256833   1.141   2.458   3.807 -0.3472 -0.4330  0.5825
11781TIP3    H156834   1.199   2.401   3.757 -0.5708  0.0189 -0.2042
11781TIP3    H256835   1.125   2.410   3.888  0.8727 -0.6925  0.6848
11782TIP3   OH256836   0.093   0.246  10.975 -0.2656  0.4509 -0.3430
11782TIP3    H156837   0.069   0.339  10.976 -0.3705  0.4534  1.9133
11782TIP3    H256838   0.139   0.233  11.057  1.3558 -1.1354 -1.4362
11783TIP3   OH256839   4.546   1.329  12.021  0.4818  0.0173 -0.2469
11783TIP3    H156840   4.635   1.361  12.032  0.5157  0.1554 -0.8846
11783TIP3    H256841   4.534   1.324  11.926 -0.5003  0.8894 -0.1929
11784TIP3   OH256842   1.549   1.340  14.242  0.0674 -0.7853  0.4568
11784TIP3    H156843   1.587   1.286  14.311  0.1958 -0.3760  0.7102
11784TIP3    H256844   1.476   1.385  14.285  0.2451 -0.4105  0.3715
11785TIP3   OH256845   1.783   1.487  12.419  0.4669 -0.0262 -0.0103
11785TIP3    H156846   1.797   1.551  12.349  1.0278 -0.9114 -0.7324
11785TIP3    H256847   1.797   1.537  12.500  0.5562  0.8389 -0.5407
11786TIP3   OH256848   0.318   4.064   1.000  0.9559  0.1787  0.3072
11786TIP3    H156849   0.360   4.020   0.926  1.2762 -1.2835  1.3189
11786TIP3    H256850   0.227   4.037   0.996  0.7022  1.0596 -0.2195
11787TIP3   OH256851   3.844   5.411  13.750 -0.4741 -0.5526  0.3356
11787TIP3    H156852   3.900   5.483  13.781 -1.7586  0.4132  0.4925
11787TIP3    H256853   3.830   5.429  13.658 -1.2409 -0.3012  0.4996
11788TIP3   OH256854   4.430   3.761   5.129  0.1034  0.0700  0.2266
11788TIP3    H156855   4.497   3.720   5.185  0.3365  0.5327  0.2880
11788TIP3    H256856   4.470   3.761   5.042 -1.2968 -3.1431 -0.5621
11789TIP3   OH256857   5.571   1.955   6.173  0.1207 -0.0954  0.0470
11789TIP3    H156858   5.660   1.940   6.142  1.2605  2.1345  1.9154
11789TIP3    H256859   5.575   1.935   6.267 -1.1385  0.7499  0.3052
11790TIP3   OH256860   3.757   5.341  12.804  0.0511 -0.6103  0.3838
11790TIP3    H156861   3.734   5.357  12.713  1.5229 -1.0409 -0.0973
11790TIP3    H256862   3.693   5.277  12.834 -0.5233 -0.3744 -0.3062
11791TIP3   OH256863   1.963   6.294   2.126  0.4866 -0.0500  0.4873
11791TIP3    H156864   1.958   6.342   2.209  0.1725  2.0522 -0.6880
11791TIP3    H256865   1.876   6.300   2.088  1.1704  1.0157 -1.0245
11792TIP3   OH256866   4.948   1.481   6.500  0.1269  0.3169  0.4222
11792TIP3    H156867   4.894   1.428   6.559  0.0445 -0.7815 -0.5883
11792TIP3    H256868   5.035   1.482   6.541  0.2141 -0.9071  0.3106
11793TIP3   OH256869   3.198   1.542  12.136 -0.1573  0.5513 -0.3129
11793TIP3    H156870   3.265   1.591  12.183  0.6938  0.5910 -1.5230
11793TIP3    H256871   3.136   1.608  12.105  0.6990  0.8335 -1.4786
11794TIP3   OH256872   1.806   5.733  11.357 -0.1164  0.1787 -0.1275
11794TIP3    H156873   1.821   5.827  11.371  1.3715 -0.1228  0.5738
11794TIP3    H256874   1.713   5.720  11.374 -0.1726  1.3891  0.6006
11795TIP3   OH256875   2.714   1.406   4.117 -0.4270  0.0730 -0.8283
11795TIP3    H156876   2.806   1.434   4.112 -0.7322  1.1349 -0.7384
11795TIP3    H256877   2.672   1.448   4.042 -1.3354  1.6384  0.4823
11796TIP3   OH256878   0.977   0.634   1.313  0.4829 -0.2099 -0.2280
11796TIP3    H156879   1.034   0.654   1.239 -0.2908  1.1819 -0.4960
11796TIP3    H256880   0.893   0.675   1.290 -0.7136 -2.3495  0.0590
11797TIP3   OH256881   5.478   3.483  13.461 -0.3889 -0.4759 -0.0005
11797TIP3    H156882   5.521   3.490  13.376  1.0053 -0.2190  0.6948
11797TIP3    H256883   5.398   3.434  13.444  0.0980 -0.8281 -1.3776
11798TIP3   OH256884   0.679   0.755   3.391  0.1772  0.4038  0.2695
11798TIP3    H156885   0.707   0.724   3.304 -0.8519  2.0170 -0.6925
11798TIP3    H256886   0.757   0.797   3.427  0.0334  1.7512 -0.8891
11799TIP3   OH256887   3.043   6.127  16.479 -0.5146 -0.0698 -0.0115
11799TIP3    H156888   3.017   6.052  16.427  0.7771 -0.0158 -0.7755
11799TIP3    H256889   3.065   6.195  16.415  3.3697 -0.7308  0.3356
11800TIP3   OH256890   3.423   4.848  15.726  0.1414  0.0476  0.5444
11800TIP3    H156891   3.467   4.875  15.806 -0.6354 -0.1848  1.0638
11800TIP3    H256892   3.337   4.891  15.731  0.6026  1.2136 -0.8689
11801TIP3   OH256893   0.306   1.489  15.168  0.2115 -0.4050  0.0876
11801TIP3    H156894   0.355   1.507  15.088 -0.6370 -0.8547 -0.5483
11801TIP3    H256895   0.374   1.472  15.234  0.9403  0.7773 -0.3159
11802TIP3   OH256896   0.712   4.938   3.991  0.1904 -0.1864 -0.1117
11802TIP3    H156897   0.749   4.876   4.054  1.2463 -0.3767 -0.8785
11802TIP3    H256898   0.707   5.021   4.039 -0.5088 -0.6832  0.6875
11803TIP3   OH256899   3.768   1.796  13.772 -0.2755  0.0837 -0.4189
11803TIP3    H156900   3.697   1.747  13.731  0.1029 -0.7598 -0.0943
11803TIP3    H256901   3.752   1.888  13.748 -1.2539 -0.1447 -0.6511
11804TIP3   OH256902   2.254   1.614   0.603 -0.6323 -0.4487 -0.7094
11804TIP3    H156903   2.349   1.602   0.613 -0.3441  2.4903  1.6721
11804TIP3    H256904   2.216   1.561   0.672 -0.5963 -0.3080 -0.5816
11805TIP3   OH256905   2.103   4.822   2.599 -0.1660 -0.3294  0.0467
11805TIP3    H156906   2.057   4.760   2.542 -0.2163 -0.6365  0.4138
11805TIP3    H256907   2.094   4.784   2.687 -0.8437  0.5760  0.3858
11806TIP3   OH256908   5.269   4.102   1.920 -0.5378  0.3358  0.1878
11806TIP3    H156909   5.203   4.082   1.987  0.2747 -0.2483  0.8355
11806TIP3    H256910   5.282   4.196   1.927  0.1075  0.1819  1.4293
11807TIP3   OH256911   5.197   1.340  12.036  0.5440 -0.4955 -0.4447
11807TIP3    H156912   5.119   1.372  11.991  1.3163  0.8982 -0.8629
11807TIP3    H256913   5.234   1.276  11.975  1.3931  1.1297 -1.7424
11808TIP3   OH256914   5.100   0.525   0.230 -0.2983 -0.8712 -0.2655
11808TIP3    H156915   5.166   0.508   0.163 -0.4564 -1.4585 -0.2862
11808TIP3    H256916   5.138   0.591   0.287  0.3577 -1.2849 -0.2108
11809TIP3   OH256917   4.563   5.303   4.599 -0.1968 -0.2469  0.2142
11809TIP3    H156918   4.509   5.262   4.531 -0.0226  0.5976 -0.4549
11809TIP3    H256919   4.510   5.297   4.679  0.0454 -2.2360  0.2824
11810TIP3   OH256920   4.754   5.324  10.654  0.2120  0.0861 -0.0352
11810TIP3    H156921   4.798   5.398  10.696  0.0677  1.0294 -1.5110
11810TIP3    H256922   4.798   5.247  10.690  1.6713  0.9377  0.0654
11811TIP3   OH256923   6.547   5.880   5.151 -0.3786  0.3123  0.5702
11811TIP3    H156924   6.610   5.952   5.156  0.8626 -0.6515 -0.4412
11811TIP3    H256925   6.546   5.855   5.059 -2.6234  0.5873  0.4806
11812TIP3   OH256926   5.630   2.600  16.067 -0.3326 -0.0506 -0.0317
11812TIP3    H156927   5.637   2.651  15.986 -2.3218  0.5727  0.1506
11812TIP3    H256928   5.542   2.563  16.066  0.2232 -1.5001  1.0183
11813TIP3   OH256929   4.266   3.603   1.456  0.2705 -0.5120 -0.3174
11813TIP3    H156930   4.295   3.694   1.462 -0.7441 -0.1390 -0.9182
11813TIP3    H256931   4.215   3.590   1.536 -0.1688 -0.3334 -0.5660
11814TIP3   OH256932   5.417   0.954   5.134  0.1498  0.1828 -0.4123
11814TIP3    H156933   5.438   0.945   5.227 -1.3937  1.6422  0.1233
11814TIP3    H256934   5.495   0.993   5.095  0.0234  1.6839  0.7405
11815TIP3   OH256935   3.293   2.803  12.683  0.4940 -0.3202  0.4869
11815TIP3    H156936   3.278   2.758  12.766 -0.9030 -0.9942 -0.0933
11815TIP3    H256937   3.207   2.838  12.658  1.4494  2.4458  0.7370
11816TIP3   OH256938   3.655   3.172   3.499  0.3592 -0.7799 -0.4248
11816TIP3    H156939   3.639   3.171   3.593  1.0459 -0.8094 -0.3013
11816TIP3    H256940   3.594   3.237   3.465  0.3432 -0.5192  0.0871
11817TIP3   OH256941   3.027   5.058  11.196  0.3689  0.1695 -0.1833
11817TIP3    H156942   3.069   5.136  11.231 -0.0211  0.2622  0.0955
11817TIP3    H256943   3.087   4.986  11.217  1.1171  0.4841 -1.1519
11818TIP3   OH256944   5.820   2.765  14.489 -0.3786 -0.3583  0.1107
11818TIP3    H156945   5.911   2.743  14.509  0.0119  0.1735 -0.9900
11818TIP3    H256946   5.803   2.720  14.406 -0.6585  0.6915 -0.4120
11819TIP3   OH256947   1.463   0.851  16.357  0.3894  0.6668 -0.3691
11819TIP3    H156948   1.448   0.766  16.398 -1.5068  0.9746 -0.3325
11819TIP3    H256949   1.525   0.895  16.415 -0.1826  0.0706  0.7229
11820TIP3   OH256950   6.544   4.376   4.483  0.2788 -0.2906 -0.1777
11820TIP3    H156951   6.624   4.426   4.466  0.6867 -0.5936  0.7522
11820TIP3    H256952   6.562   4.329   4.564 -0.1617 -1.8015 -0.9132
11821TIP3   OH256953   3.735   6.161  15.591  0.2422  0.0940 -0.2626
11821TIP3    H156954   3.693   6.111  15.661  1.5798 -1.8489 -0.7879
11821TIP3    H256955   3.828   6.146  15.603  0.5836  1.1300 -1.4511
11822TIP3   OH256956   3.938   0.483   4.840  0.0864  0.0104  0.5192
11822TIP3    H156957   4.027   0.519   4.843 -0.1847  0.6953  0.5924
11822TIP3    H256958   3.949   0.394   4.809  0.6904  0.5187 -0.8072
11823TIP3   OH256959   0.487   5.665   0.857 -0.0161 -0.1766  0.1618
11823TIP3    H156960   0.438   5.593   0.819  0.4811 -0.5896  0.2914
11823TIP3    H256961   0.505   5.723   0.783  0.1177 -0.4975 -0.0612
11824TIP3   OH256962   3.998   3.506   4.235  0.1893 -0.6374  0.3210
11824TIP3    H156963   3.979   3.542   4.148 -2.9063  0.2824  1.2402
11824TIP3    H256964   4.059   3.568   4.275  0.3814 -0.2105 -0.6087
11825TIP3   OH256965   0.182   3.270  12.177  0.0934  0.6623  0.2331
11825TIP3    H156966   0.128   3.230  12.245  0.4809  0.4348  0.4101
11825TIP3    H256967   0.145   3.239  12.095 -0.5872  1.2042  0.3261
11826TIP3   OH256968   2.551   6.158  11.417 -0.4318  0.3527 -0.1414
11826TIP3    H156969   2.559   6.253  11.404 -1.7250  0.3738 -0.9551
11826TIP3    H256970   2.502   6.128  11.341  0.1551 -1.0222 -0.0004
11827TIP3   OH256971   5.063   2.221   5.149  0.2023  0.1850 -0.0349
11827TIP3    H156972   5.065   2.170   5.068  1.0492  0.2053 -0.0430
11827TIP3    H256973   5.078   2.157   5.218 -0.5476  0.1632  0.1155
11828TIP3   OH256974   0.481   6.811   3.567 -0.3929  0.1352  0.2411
11828TIP3    H156975   0.425   6.784   3.495  0.9123  0.0993 -0.7947
11828TIP3    H256976   0.539   6.736   3.581 -0.5908  0.1692  1.2985
11829TIP3   OH256977   1.033   0.134   0.785 -0.2488 -0.2014  0.3848
11829TIP3    H156978   1.124   0.117   0.760 -0.3243 -0.2485  0.1347
11829TIP3    H256979   1.004   0.053   0.828  0.0332  0.0583  1.0696
11830TIP3   OH256980   4.816   1.793   2.785  0.2257  0.5609  0.0948
11830TIP3    H156981   4.750   1.862   2.779 -0.9897 -0.5501  0.0252
11830TIP3    H256982   4.875   1.809   2.711  2.7738  4.1689  2.5908
11831TIP3   OH256983   5.016   4.790   0.852 -0.3833 -0.1205  0.0065
11831TIP3    H156984   4.994   4.879   0.825  0.9590  0.0044 -0.7774
11831TIP3    H256985   5.052   4.800   0.940 -0.4627  0.0809  0.0176
11832TIP3   OH256986   6.051   2.956  11.311  0.6422 -0.6263  0.2764
11832TIP3    H156987   6.062   2.917  11.398  0.8046 -0.7243  0.2133
11832TIP3    H256988   6.125   3.017  11.303 -1.6323  2.6637  1.9419
11833TIP3   OH256989   2.406   1.419  16.470  0.1916  0.0417 -0.0853
11833TIP3    H156990   2.379   1.462  16.551 -1.3160 -0.6441 -0.1812
11833TIP3    H256991   2.495   1.450  16.454  0.5123  0.2061  1.8076
11834TIP3   OH256992   2.583   4.423  11.711  0.8729 -0.3911 -0.1424
11834TIP3    H156993   2.629   4.349  11.672 -0.7630 -0.8840 -1.2421
11834TIP3    H256994   2.491   4.396  11.714  0.6516  0.3683  2.3843
11835TIP3   OH256995   6.513   5.250  14.083  0.7946 -0.2167 -0.0618
11835TIP3    H156996   6.446   5.290  14.028  0.0206 -1.5567 -0.1427
11835TIP3    H256997   6.595   5.265  14.037  0.4969  0.9467 -0.2499
11836TIP3   OH256998   1.970   3.494  15.028  0.3900 -0.1590  0.1861
11836TIP3    H156999   2.005   3.497  15.117 -0.7296 -0.5380  0.6450
11836TIP3    H257000   2.004   3.411  14.992  1.7401  0.5032 -0.1431
11837TIP3   OH257001   1.362   6.535   1.837 -0.0439  0.1925 -0.3785
11837TIP3    H157002   1.408   6.558   1.918 -0.2504  0.4774 -0.3378
11837TIP3    H257003   1.399   6.595   1.772 -0.6615  0.7247 -0.2502
11838TIP3   OH257004   3.207   0.401  14.279 -0.1835  0.0147 -0.0159
11838TIP3    H157005   3.301   0.400  14.265 -0.3452 -0.4642 -1.2446
11838TIP3    H257006   3.196   0.409  14.374  1.0780  0.4190  0.1117
11839TIP3   OH257007   6.113   3.863  16.251 -0.4719  0.1439  0.1654
11839TIP3    H157008   6.104   3.957  16.232 -1.4717  0.0154 -0.0375
11839TIP3    H257009   6.140   3.860  16.342  1.4060  0.6769 -0.3185
11840TIP3   OH257010   1.796   6.736  11.153 -0.2857  0.3395 -0.1074
11840TIP3    H157011   1.709   6.738  11.191 -0.0923  2.9636  0.3253
11840TIP3    H257012   1.780   6.726  11.059 -0.9114 -1.5003  0.1453
11841TIP3   OH257013   5.410   1.456  13.035 -0.1723 -0.3161  0.2329
11841TIP3    H157014   5.335   1.473  12.978 -0.0058  2.6365  0.7237
11841TIP3    H257015   5.428   1.540  13.077  5.6327  0.2796 -2.5048
11842TIP3   OH257016   3.348   6.275  16.299  0.0915 -0.2626  0.2673
11842TIP3    H157017   3.292   6.323  16.359  0.8645 -0.8754  1.5211
11842TIP3    H257018   3.361   6.334  16.225 -0.6321  0.6285  0.8357
11843TIP3   OH257019   0.628   0.516   4.781  0.6204 -0.3927  0.1025
11843TIP3    H157020   0.555   0.578   4.776  0.1558 -0.8272  1.1149
11843TIP3    H257021   0.606   0.460   4.856  0.4019 -2.5981 -1.5141
11844TIP3   OH257022   5.535   1.795  14.125 -0.4808 -0.2573 -0.2215
11844TIP3    H157023   5.455   1.745  14.142  0.1211 -0.8106  1.2125
11844TIP3    H257024   5.533   1.866  14.190  1.2777 -1.6611  1.5224
11845TIP3   OH257025   5.142   3.711   1.533  0.6774  0.0243  0.3169
11845TIP3    H157026   5.163   3.634   1.586  0.7423 -1.8074 -2.1825
11845TIP3    H257027   5.182   3.693   1.448 -3.1210  0.6578 -1.8378
11846TIP3   OH257028   1.023   6.156  14.780 -0.7377 -0.6650  0.2740
11846TIP3    H157029   1.008   6.085  14.842 -0.9604 -1.0604 -0.2265
11846TIP3    H257030   1.018   6.236  14.833 -0.2345 -1.0285  0.8848
11847TIP3   OH257031   1.099   6.509  15.231 -0.2455 -0.1214  0.0511
11847TIP3    H157032   1.016   6.494  15.186  0.3266  0.5258 -1.2889
11847TIP3    H257033   1.149   6.566  15.172  1.1484 -0.4679  0.8300
11848TIP3   OH257034   5.176   2.318  14.898  0.5018  0.1260 -0.3351
11848TIP3    H157035   5.128   2.279  14.971  1.1901  1.6946  1.0239
11848TIP3    H257036   5.262   2.277  14.901  0.4940  0.1101 -0.3353
11849TIP3   OH257037   1.926   0.736  15.552 -0.1065 -0.4841 -0.6269
11849TIP3    H157038   1.869   0.694  15.488  0.1145 -0.4901 -0.8197
11849TIP3    H257039   1.948   0.667  15.615 -0.0087 -0.5748 -0.7612
11850TIP3   OH257040   3.483   4.326  16.261 -0.0242 -0.1551 -0.2636
11850TIP3    H157041   3.533   4.406  16.277 -2.5221  1.3072  0.7425
11850TIP3    H257042   3.504   4.269  16.335  0.5272  0.2208 -0.1313
11851TIP3   OH257043   5.061   3.743   3.311 -0.5794  0.2863  0.0915
11851TIP3    H157044   4.982   3.796   3.320 -0.9472 -0.4799  1.7141
11851TIP3    H257045   5.029   3.653   3.308  0.0927  0.0728 -1.7855
11852TIP3   OH257046   2.097   2.747   5.182 -0.0327 -0.3389  0.2691
11852TIP3    H157047   2.103   2.842   5.191  0.1689 -0.3053 -0.1593
11852TIP3    H257048   2.098   2.713   5.271  1.0616 -0.0008  0.4041
11853TIP3   OH257049   2.848   4.266  14.772  0.1289  0.5073  0.1081
11853TIP3    H157050   2.910   4.326  14.732 -0.1123  1.1007  0.6104
11853TIP3    H257051   2.823   4.206  14.701 -0.4406  1.6482 -0.6935
11854TIP3   OH257052   6.067   4.975  16.153 -0.4154  0.2223 -0.2297
11854TIP3    H157053   6.146   4.984  16.207 -1.2013  0.6926  0.8922
11854TIP3    H257054   6.080   4.895  16.103  0.1325 -0.5223  1.0550
11855TIP3   OH257055   6.245   2.405  15.979 -0.0841  0.0802 -0.6105
11855TIP3    H157056   6.276   2.343  16.046 -0.1088  1.2894  0.5602
11855TIP3    H257057   6.153   2.381  15.966 -0.1774  0.0406  0.0602
11856TIP3   OH257058   1.686   5.708  15.156  0.2332 -0.2159  0.6697
11856TIP3    H157059   1.608   5.732  15.106  0.2191 -1.6458 -0.0407
11856TIP3    H257060   1.726   5.792  15.179 -0.8194  0.5120 -0.0521
11857TIP3   OH257061   5.624   5.439  16.040 -0.1539 -0.0385 -0.3258
11857TIP3    H157062   5.584   5.494  15.973  1.2394 -0.4853 -1.5917
11857TIP3    H257063   5.690   5.388  15.993  0.9262 -0.3358  1.3979
11858TIP3   OH257064   5.067   5.045  14.780 -0.5650 -0.1863 -0.4956
11858TIP3    H157065   4.985   5.071  14.738 -0.2602  1.6149 -0.0684
11858TIP3    H257066   5.124   5.018  14.708 -1.1362 -0.3297 -0.9029
11859TIP3   OH257067   6.180   4.889  11.075  0.6071  0.4759  0.2833
11859TIP3    H157068   6.094   4.855  11.049  0.3464  0.1874  1.4426
11859TIP3    H257069   6.172   4.984  11.066  0.3380  0.4180 -0.1143
11860TIP3   OH257070   1.132   3.550   5.082  0.4248 -0.0980  1.2951
11860TIP3    H157071   1.058   3.575   5.138  0.1089  0.9454  0.4496
11860TIP3    H257072   1.182   3.631   5.072  0.5791 -0.3181  0.2260
11861TIP3   OH257073   5.458   6.285  13.763 -0.0687  0.0519 -0.1869
11861TIP3    H157074   5.508   6.334  13.698  0.3546 -1.5114 -1.1014
11861TIP3    H257075   5.425   6.208  13.716 -0.7129 -0.5466  1.1680
11862TIP3   OH257076   5.865   1.480   4.153  0.7776  0.2852 -0.0151
11862TIP3    H157077   5.798   1.412   4.158 -0.1659  1.1194 -0.8543
11862TIP3    H257078   5.910   1.463   4.071 -2.3491  3.1315 -2.6262
11863TIP3   OH257079   6.470   4.446   2.593 -0.3905 -0.0254 -0.1763
11863TIP3    H157080   6.544   4.437   2.533 -1.5531 -0.2046 -1.6159
11863TIP3    H257081   6.444   4.357   2.614  0.8060  0.0047  1.6719
11864TIP3   OH257082   3.601   3.193   4.401  0.2774 -0.0470 -0.0712
11864TIP3    H157083   3.677   3.156   4.355 -0.3021 -0.9702 -0.3292
11864TIP3    H257084   3.593   3.140   4.480  2.4148  2.7187  2.2113
11865TIP3   OH257085   5.131   0.262   5.803  0.6806  0.0759 -0.1091
11865TIP3    H157086   5.097   0.253   5.893 -0.7729  0.2911 -0.6038
11865TIP3    H257087   5.119   0.355   5.782 -0.9782 -0.3516 -1.2454
11866TIP3   OH257088   4.377   6.407  14.317  0.1738  0.4385  0.5252
11866TIP3    H157089   4.300   6.456  14.290  2.0796  3.4598  0.0848
11866TIP3    H257090   4.422   6.386  14.235 -0.5020 -2.1246  0.7063
11867TIP3   OH257091   0.781   5.198   1.805  0.3529  0.4184  0.5643
11867TIP3    H157092   0.803   5.291   1.807 -0.2620  0.6017 -0.4048
11867TIP3    H257093   0.801   5.167   1.894 -2.2316  2.1431  1.8872
11868TIP3   OH257094   5.143   6.139  13.434 -0.2039 -0.5106 -0.0289
11868TIP3    H157095   5.106   6.059  13.396 -1.6590  1.0687 -2.1221
11868TIP3    H257096   5.210   6.167  13.372  0.0400  0.1143  0.4978
11869TIP3   OH257097   4.439   1.274   2.681 -0.2863 -0.2098 -0.0423
11869TIP3    H157098   4.418   1.367   2.695 -2.9453 -0.8316  0.6475
11869TIP3    H257099   4.464   1.269   2.589 -0.4934  1.1184 -0.2009
11870TIP3   OH257100   3.973   4.605  11.385  0.5154  0.6086 -0.9684
11870TIP3    H157101   3.884   4.629  11.411 -0.2790 -2.5168 -0.3872
11870TIP3    H257102   3.967   4.591  11.290  0.0794 -0.6503 -0.7674
11871TIP3   OH257103   4.561   3.647  15.946 -0.1786  0.0443  0.4495
11871TIP3    H157104   4.558   3.588  15.871 -0.6317  1.2600 -0.5210
11871TIP3    H257105   4.652   3.647  15.973  0.3058  0.7367 -1.0666
11872TIP3   OH257106   4.778   4.905   0.413 -0.0476 -0.2224  0.4410
11872TIP3    H157107   4.721   4.945   0.478 -0.0455 -0.5304  0.6343
11872TIP3    H257108   4.829   4.978   0.378  0.0126 -0.0703  0.8442
11873TIP3   OH257109   6.238   3.114  14.450  0.0636  0.0803  0.3579
11873TIP3    H157110   6.317   3.135  14.399  0.4789 -2.1862 -0.0244
11873TIP3    H257111   6.269   3.053  14.518 -1.4952 -1.7498 -0.4957
11874TIP3   OH257112   6.725   4.848   4.974 -0.7851 -0.2469 -0.5974
11874TIP3    H157113   6.692   4.872   5.061 -2.5862  0.0734 -1.3219
11874TIP3    H257114   6.715   4.928   4.923 -1.1695 -0.8505 -1.4855
11875TIP3   OH257115   3.660   4.938   3.094 -0.5024 -0.2932 -0.5726
11875TIP3    H157116   3.617   5.008   3.045 -0.2708  0.7763  0.6870
11875TIP3    H257117   3.592   4.871   3.104 -0.8675 -0.0574 -1.4148
11876TIP3   OH257118   1.924   1.889   4.171 -0.4035  0.7579  0.2449
11876TIP3    H157119   1.892   1.967   4.126  0.9378  0.3858 -1.4516
11876TIP3    H257120   1.854   1.825   4.159  0.1372  0.4923 -1.8919
11877TIP3   OH257121   5.937   2.090   3.783 -0.4583  0.4988 -0.1317
11877TIP3    H157122   5.906   2.033   3.713  1.9381  1.4784 -2.1201
11877TIP3    H257123   5.991   2.032   3.838 -2.0597 -0.1880  0.7985
11878TIP3   OH257124   3.843   0.319   5.957  0.4095  0.0998 -0.4852
11878TIP3    H157125   3.763   0.280   5.992  0.8312 -2.3370 -1.9957
11878TIP3    H257126   3.824   0.335   5.865  1.5293 -0.2488 -0.7985
11879TIP3   OH257127   2.259   0.054   0.305  0.4190 -0.0063 -0.2884
11879TIP3    H157128   2.267   0.079   0.397  1.6221 -0.7441 -0.1708
11879TIP3    H257129   2.169   0.024   0.296  0.3333 -0.0728  0.6899
11880TIP3   OH257130   5.136   5.969   5.150  0.7172 -0.6581  0.1363
11880TIP3    H157131   5.139   6.029   5.076 -0.2927 -1.3971 -0.5390
11880TIP3    H257132   5.052   5.987   5.193 -0.5443 -2.8268 -1.2225
11881TIP3   OH257133   6.813   2.987   3.684 -0.7016  0.0208 -0.0471
11881TIP3    H157134   6.757   3.064   3.694  0.1937  0.6679  0.1865
11881TIP3    H257135   6.812   2.945   3.770 -0.0823  0.5755  0.2443
11882TIP3   OH257136   2.859   3.391  13.984 -0.0710 -0.2395  0.2306
11882TIP3    H157137   2.870   3.482  14.011 -0.4754 -0.2737  0.5309
11882TIP3    H257138   2.800   3.395  13.909  0.3082 -0.2170 -0.0676
11883TIP3   OH257139   2.882   0.487  17.108 -0.3102 -0.2165 -0.3088
11883TIP3    H157140   2.909   0.396  17.096 -1.0532 -0.2305 -2.1199
11883TIP3    H257141   2.815   0.502  17.041 -1.7049  1.0678  1.2633
11884TIP3   OH257142   5.050   0.672  11.145  0.2437  0.2736  0.5281
11884TIP3    H157143   5.021   0.665  11.054 -0.6338 -1.5808  0.8993
11884TIP3    H257144   4.992   0.613  11.193  3.4494 -2.2571  1.6409
11885TIP3   OH257145   4.108   1.398  13.322 -0.6344 -0.4699  0.0478
11885TIP3    H157146   4.066   1.419  13.405 -0.3406 -1.6015  0.4990
11885TIP3    H257147   4.133   1.306  13.330  1.2317 -0.0559 -0.5134
11886TIP3   OH257148   5.021   3.828  14.194 -0.4916 -0.4448  0.0786
11886TIP3    H157149   4.985   3.856  14.278  1.2435 -1.8888  1.3966
11886TIP3    H257150   4.956   3.767  14.158 -1.5926  0.7578 -0.0364
11887TIP3   OH257151   4.780   2.424   2.211 -0.7427 -0.2179  0.2868
11887TIP3    H157152   4.771   2.395   2.302 -0.6116 -0.8429  0.1034
11887TIP3    H257153   4.839   2.499   2.216 -0.3169 -0.5701  0.6640
11888TIP3   OH257154   1.605   4.885  14.651 -0.0346 -0.4092 -0.3473
11888TIP3    H157155   1.680   4.941  14.632  0.8668 -1.3249  0.3759
11888TIP3    H257156   1.561   4.927  14.725  0.2769 -0.3095 -0.2157
11889TIP3   OH257157   3.123   5.874  13.873  0.1819 -0.4780  0.2267
11889TIP3    H157158   3.132   5.816  13.797  0.0199 -1.9530  1.2909
11889TIP3    H257159   3.213   5.895  13.898  0.3081 -1.6002  0.7864
11890TIP3   OH257160   6.017   5.417  15.286 -0.4686  0.1050  0.2376
11890TIP3    H157161   5.928   5.404  15.320 -1.0667  2.1166 -0.4022
11890TIP3    H257162   6.051   5.492  15.336  1.1796 -1.0663  0.9716
11891TIP3   OH257163   3.418   0.397  13.429 -0.2161 -0.1718  0.1314
11891TIP3    H157164   3.368   0.392  13.511 -1.1758 -1.0438 -0.4838
11891TIP3    H257165   3.475   0.320  13.432  1.8726  1.3137  1.2738
11892TIP3   OH257166   2.271   4.404   1.134  0.0387  0.0091  0.8437
11892TIP3    H157167   2.320   4.322   1.129 -0.2494 -0.1431  0.4919
11892TIP3    H257168   2.303   4.456   1.061 -0.6361 -0.2652  0.3455
11893TIP3   OH257169   0.172   4.837   6.087  0.5914 -0.4680 -0.6490
11893TIP3    H157170   0.107   4.789   6.139 -0.4842 -0.1944 -1.6868
11893TIP3    H257171   0.214   4.895   6.150 -1.5251  0.7372 -0.2206
11894TIP3   OH257172   0.646   2.522  12.459 -0.0314  0.3894  0.6586
11894TIP3    H157173   0.553   2.534  12.478  0.3252  3.6241  0.8486
11894TIP3    H257174   0.648   2.486  12.370 -1.4528  0.2320  0.6679
11895TIP3   OH257175   1.944   5.689  11.607  0.1380 -0.5171  0.7795
11895TIP3    H157176   1.891   5.694  11.528 -0.4665  0.4425  1.2240
11895TIP3    H257177   1.964   5.596  11.617 -1.3253 -0.8839  0.5041
11896TIP3   OH257178   3.489   4.651   4.201 -1.2271  0.2601 -0.7284
11896TIP3    H157179   3.525   4.569   4.234 -0.7197  0.8897  0.3362
11896TIP3    H257180   3.527   4.661   4.114  0.7571  0.6250  0.1409
11897TIP3   OH257181   5.871   0.210   4.921  0.1846  0.2489  0.1550
11897TIP3    H157182   5.868   0.156   4.842 -1.5894  0.7630 -0.1707
11897TIP3    H257183   5.787   0.194   4.964  1.6957 -1.2471  2.8294
11898TIP3   OH257184   1.978   5.574  12.796  0.0184 -0.2020  0.1110
11898TIP3    H157185   1.975   5.480  12.781  0.9336 -0.2547  0.1965
11898TIP3    H257186   1.892   5.596  12.831 -0.0129 -1.0980  0.6095
11899TIP3   OH257187   1.853   1.259   3.271 -0.2530 -0.3202  0.0566
11899TIP3    H157188   1.942   1.281   3.243 -0.1321 -0.0765  0.6039
11899TIP3    H257189   1.863   1.177   3.320 -0.1631  0.2214  0.9745
11900TIP3   OH257190   3.361   0.485   3.363 -0.3728  0.0607 -0.2196
11900TIP3    H157191   3.386   0.443   3.281 -0.1613 -4.5303  1.9033
11900TIP3    H257192   3.442   0.494   3.412 -0.7964  0.5606  0.4109
11901TIP3   OH257193   1.842   6.327   1.294 -0.1208  0.1226  0.3004
11901TIP3    H157194   1.759   6.335   1.342 -0.5289 -2.1495  0.1104
11901TIP3    H257195   1.901   6.282   1.355  0.6560  0.7953  0.0609
11902TIP3   OH257196   5.953   5.568   5.484  0.0217  0.4490  0.2906
11902TIP3    H157197   5.979   5.651   5.522  0.2901  1.0992 -1.2353
11902TIP3    H257198   6.017   5.553   5.414 -0.2466 -0.8558  0.3039
11903TIP3   OH257199   4.223   5.291   3.688  0.5214  0.3871 -0.1303
11903TIP3    H157200   4.183   5.210   3.719  2.2993  0.2044  1.9448
11903TIP3    H257201   4.304   5.263   3.646  2.0587  1.0789  2.1616
11904TIP3   OH257202   3.200   3.887   1.720 -0.3851 -0.2258 -0.2532
11904TIP3    H157203   3.106   3.900   1.704 -0.2860 -0.0666 -0.7347
11904TIP3    H257204   3.242   3.960   1.675 -0.0068 -0.4961 -0.3475
11905TIP3   OH257205   4.712   0.063   2.870  0.2553 -0.2902  0.9106
11905TIP3    H157206   4.759   0.145   2.887  1.9637 -1.0836  0.2544
11905TIP3    H257207   4.628   0.091   2.833  2.2559  1.2530 -3.1640
11906TIP3   OH257208   3.925   6.102  12.336 -0.1383  0.0470 -0.5183
11906TIP3    H157209   3.990   6.049  12.289 -0.6418  0.7697 -2.0949
11906TIP3    H257210   3.867   6.037  12.378 -0.4517 -0.6851 -2.0034
11907TIP3   OH257211   6.132   4.927   1.215  0.2730 -0.2052  0.1495
11907TIP3    H157212   6.092   4.870   1.281 -0.8300  0.5015  0.1283
11907TIP3    H257213   6.204   4.970   1.260  0.9050 -1.3531  0.2626
11908TIP3   OH257214   6.527   4.524  15.688 -0.5022 -0.1277 -0.4098
11908TIP3    H157215   6.458   4.563  15.634 -1.2605 -2.7440 -1.5098
11908TIP3    H257216   6.480   4.481  15.759  0.3355  1.3321  1.0696
11909TIP3   OH257217   0.939   2.746  12.604 -0.3402  0.1204 -0.5312
11909TIP3    H157218   0.921   2.662  12.562 -0.6507 -0.3299  0.4674
11909TIP3    H257219   1.022   2.775  12.566 -0.2062 -0.6607 -0.8486
11910TIP3   OH257220   6.109   1.758  10.874  0.3173  0.1009  0.3514
11910TIP3    H157221   6.016   1.782  10.871  0.4918  0.7717 -2.5432
11910TIP3    H257222   6.110   1.665  10.854  0.2872  0.2490 -0.3656
11911TIP3   OH257223   0.927   6.614  12.836 -0.4284 -0.2530 -0.3624
11911TIP3    H157224   0.925   6.603  12.741 -0.4222  0.8691 -0.5043
11911TIP3    H257225   0.858   6.678  12.854  1.3697  1.6387  0.0754
11912TIP3   OH257226   5.326   4.542   1.317 -0.5741 -0.0133  0.1828
11912TIP3    H157227   5.406   4.496   1.343  0.4646  0.4374 -1.9789
11912TIP3    H257228   5.276   4.477   1.268 -1.2518 -0.1096  0.9872
11913TIP3   OH257229   5.670   1.282  14.602 -0.2034 -0.0850  0.7107
11913TIP3    H157230   5.613   1.254  14.531 -1.1335  0.8060  1.0800
11913TIP3    H257231   5.727   1.348  14.563 -0.8034  0.5020  0.8004
11914TIP3   OH257232   3.294   0.823  12.145 -0.8482  0.0329  0.2416
11914TIP3    H157233   3.232   0.762  12.105 -0.4988  0.9414 -1.8435
11914TIP3    H257234   3.296   0.799  12.238 -0.8623 -2.9734 -0.4411
11915TIP3   OH257235   1.200   6.164   3.163 -0.1585  0.2433  0.2054
11915TIP3    H157236   1.108   6.186   3.149  0.1131  1.1183 -0.3036
11915TIP3    H257237   1.244   6.192   3.083  0.2707 -2.0954 -0.4542
11916TIP3   OH257238   4.308   0.474  13.040 -0.1757 -0.0910 -0.2950
11916TIP3    H157239   4.217   0.472  13.071  0.2530 -1.4602  0.9797
11916TIP3    H257240   4.356   0.422  13.104  1.5150  0.5591 -0.9856
11917TIP3   OH257241   0.503   1.286  11.240 -0.0217 -0.1892 -0.4034
11917TIP3    H157242   0.413   1.300  11.271 -0.1160 -1.2463 -0.1752
11917TIP3    H257243   0.551   1.362  11.274 -0.0400 -1.4136  2.7603
11918TIP3   OH257244   5.174   2.307   3.366  0.1540 -0.2118 -0.0746
11918TIP3    H157245   5.242   2.277   3.307  0.6767 -1.8742  1.2928
11918TIP3    H257246   5.137   2.227   3.403 -1.0217  0.7256  0.8836
11919TIP3   OH257247   0.967   0.797  11.826  0.0229  0.1104 -0.3256
11919TIP3    H157248   1.039   0.860  11.824  0.6793 -0.6420 -2.7288
11919TIP3    H257249   1.008   0.712  11.813 -1.0023 -0.7456  1.5631
11920TIP3   OH257250   2.129   5.772  16.471 -0.1624  0.0643  0.0476
11920TIP3    H157251   2.215   5.740  16.499  0.0934  0.4823 -0.2605
11920TIP3    H257252   2.098   5.705  16.409  0.4969  0.5437 -0.8097
11921TIP3   OH257253   6.034   6.099  17.054 -0.3652  0.4636 -0.2382
11921TIP3    H157254   6.005   6.088  17.145 -0.2122  0.1835 -0.2219
11921TIP3    H257255   6.127   6.122  17.061  0.5213 -2.6770 -0.3939
11922TIP3   OH257256   3.836   2.071  12.750  0.1131  0.1563 -0.5258
11922TIP3    H157257   3.867   2.002  12.808 -0.2472  0.1902 -0.2880
11922TIP3    H257258   3.774   2.121  12.803 -1.0826 -0.4765 -1.2754
11923TIP3   OH257259   5.416   5.876  13.776 -0.0280 -0.3439 -0.5429
11923TIP3    H157260   5.440   5.924  13.855 -0.7845 -1.0263  0.1159
11923TIP3    H257261   5.333   5.913  13.748 -0.4637 -1.0503 -0.2038
11924TIP3   OH257262   1.266   4.752   5.433 -0.0499 -0.7195 -0.3784
11924TIP3    H157263   1.218   4.706   5.502 -1.5738 -0.2526 -1.0764
11924TIP3    H257264   1.267   4.843   5.462 -2.1778 -0.1972 -1.6558
11925TIP3   OH257265   0.615   3.818  12.408 -0.1326 -0.4370 -0.2364
11925TIP3    H157266   0.666   3.844  12.485 -0.5344  1.1344 -0.4832
11925TIP3    H257267   0.589   3.727  12.427  1.6849 -0.8578  0.4389
11926TIP3   OH257268   3.307   1.919  13.144  0.2378 -0.0291 -0.5102
11926TIP3    H157269   3.306   1.994  13.202  1.7462  0.6202 -1.2765
11926TIP3    H257270   3.369   1.858  13.184 -0.4687 -0.5839 -0.2431
11927TIP3   OH257271   3.703   4.181  14.937  0.4040  0.1966 -0.0503
11927TIP3    H157272   3.671   4.268  14.961  0.2173 -0.1524  0.9833
11927TIP3    H257273   3.730   4.190  14.845 -0.8605  0.9970 -0.3699
11928TIP3   OH257274   4.586   0.108  13.771 -0.0168 -0.1005  0.1440
11928TIP3    H157275   4.589   0.118  13.866  0.9147  2.0525 -0.0441
11928TIP3    H257276   4.561   0.195  13.739  1.8947 -0.1362 -1.6506
11929TIP3   OH257277   5.404   1.216   5.680  0.1092  0.3779 -0.3482
11929TIP3    H157278   5.348   1.293   5.680 -1.3644 -0.6424 -0.9676
11929TIP3    H257279   5.347   1.145   5.649  1.7285 -0.7290 -0.9332
11930TIP3   OH257280   1.129   1.573  13.752  0.0614 -0.2020  0.3319
11930TIP3    H157281   1.163   1.614  13.832 -0.0063 -2.7059  1.7548
11930TIP3    H257282   1.201   1.517  13.722 -0.4550 -0.4279 -0.4903
11931TIP3   OH257283   1.432   0.309  14.238 -0.2319 -0.5090  0.3965
11931TIP3    H157284   1.401   0.229  14.196 -0.3327  0.1038 -0.7467
11931TIP3    H257285   1.512   0.284  14.284 -0.1971 -1.2335 -0.0529
11932TIP3   OH257286   3.936   5.576   0.372 -0.4106 -0.9122  0.3220
11932TIP3    H157287   4.006   5.511   0.373 -0.6443 -1.2377 -1.1924
11932TIP3    H257288   3.974   5.654   0.412  0.6834 -1.2202 -0.0956
11933TIP3   OH257289   0.733   4.590   0.140 -0.5363 -0.1230  0.2066
11933TIP3    H157290   0.667   4.659   0.151 -0.3884 -0.3413  3.8354
11933TIP3    H257291   0.687   4.520   0.092 -0.9962  1.9502 -2.6235
11934TIP3   OH257292   3.281   0.344   1.792 -0.0615  0.2076 -0.7988
11934TIP3    H157293   3.341   0.277   1.825 -1.8720 -1.0608  0.0886
11934TIP3    H257294   3.271   0.323   1.699  0.3967  0.0624 -0.8193
11935TIP3   OH257295   1.441   3.498   0.636 -0.6956 -0.1491 -0.1319
11935TIP3    H157296   1.413   3.522   0.547 -0.7855  0.9192  0.1687
11935TIP3    H257297   1.425   3.403   0.641 -1.2936 -0.1157 -1.0373
11936TIP3   OH257298   4.497   6.263  12.873 -0.4918 -0.0738 -0.2467
11936TIP3    H157299   4.562   6.321  12.834 -0.6334  0.0202 -0.3438
11936TIP3    H257300   4.486   6.296  12.962  0.1243 -0.5295  0.0047
11937TIP3   OH257301   3.993   6.004   0.997  0.0345 -0.0977  0.4886
11937TIP3    H157302   4.032   5.918   0.976  0.8752  0.9456 -2.8421
11937TIP3    H257303   3.900   5.985   1.011  0.2332 -1.5737  0.0224
11938TIP3   OH257304   0.475   4.217  15.996  0.6529  0.7436 -0.1939
11938TIP3    H157305   0.402   4.275  16.020 -0.0442 -0.3421  0.4213
11938TIP3    H257306   0.486   4.161  16.073 -0.9733 -2.2023 -1.9467
11939TIP3   OH257307   5.409   4.868   0.728 -0.3399  0.2501 -0.2002
11939TIP3    H157308   5.367   4.902   0.649 -1.4413  0.0914  0.3065
11939TIP3    H257309   5.369   4.782   0.742 -1.2552  0.9053  1.3693
11940TIP3   OH257310   2.135   0.593   4.166  0.2753 -0.4920 -0.7840
11940TIP3    H157311   2.226   0.618   4.177  0.5599 -1.4741 -0.8003
11940TIP3    H257312   2.095   0.667   4.119  1.0661 -0.0797 -0.8167
11941TIP3   OH257313   6.770   0.125  10.304 -1.1659  0.2145  0.5249
11941TIP3    H157314   6.733   0.175  10.231 -0.5325  0.2956  0.2456
11941TIP3    H257315   6.715   0.047  10.311 -1.0053  0.0115 -0.3036
11942TIP3   OH257316   4.240   4.665  13.501 -0.2000 -0.0032  0.0960
11942TIP3    H157317   4.264   4.574  13.518 -0.7557  0.1237  1.7456
11942TIP3    H257318   4.299   4.716  13.556  0.4153  0.6847 -1.1630
11943TIP3   OH257319   4.307   6.343  15.050  0.4081 -0.4530  0.3173
11943TIP3    H157320   4.392   6.307  15.024 -0.3538 -2.7774  0.8498
11943TIP3    H257321   4.312   6.351  15.145  1.0435  2.3625  0.1588
11944TIP3   OH257322   1.419   3.907  15.959 -0.1525  0.3300 -0.6307
11944TIP3    H157323   1.352   3.885  16.023  1.0438 -1.5519  0.0578
11944TIP3    H257324   1.373   3.908  15.875 -1.2809  0.3837 -0.0327
11945TIP3   OH257325   3.173   3.943  16.123 -0.1760 -0.3920  0.4144
11945TIP3    H157326   3.176   3.857  16.082 -1.4169  0.1933 -0.9997
11945TIP3    H257327   3.222   4.000  16.063 -1.0134  0.2604  0.3355
11946TIP3   OH257328   5.456   0.202   5.283  0.3027  0.3525 -0.1539
11946TIP3    H157329   5.449   0.129   5.345 -0.8676  1.5568  1.2237
11946TIP3    H257330   5.371   0.204   5.239  0.0801  1.2749  0.3053
11947TIP3   OH257331   4.109   6.710   1.695 -0.4046 -0.4057  0.0941
11947TIP3    H157332   4.061   6.665   1.626 -1.9781 -1.2329  1.6625
11947TIP3    H257333   4.055   6.787   1.715  0.1282 -0.0809  0.2903
11948TIP3   OH257334   3.689   5.233  15.260  0.5432 -0.4393  0.1342
11948TIP3    H157335   3.715   5.145  15.288  1.2495 -0.4690 -0.5635
11948TIP3    H257336   3.742   5.291  15.314 -0.3636 -0.4155  1.0213
11949TIP3   OH257337   1.012   0.942   2.982  0.2600 -0.3947  0.2747
11949TIP3    H157338   1.091   0.995   2.986  0.4045 -0.1273 -3.2840
11949TIP3    H257339   1.023   0.877   3.052  2.4597  1.0786  1.3968
11950TIP3   OH257340   3.200   0.256   4.967 -0.2274  0.0944  0.3274
11950TIP3    H157341   3.180   0.169   5.003  2.4344 -0.2054  1.2978
11950TIP3    H257342   3.242   0.303   5.039 -1.7407  2.3002 -0.1321
11951TIP3   OH257343   2.465   5.143   4.716  0.4164 -0.0814 -0.0459
11951TIP3    H157344   2.423   5.193   4.647  1.8696  0.9024 -0.2512
11951TIP3    H257345   2.501   5.065   4.672  0.8833  0.2822 -0.3154
11952TIP3   OH257346   4.655   5.249   3.635  0.0062 -0.5465 -0.2672
11952TIP3    H157347   4.731   5.246   3.576  0.1124  0.1550 -0.1781
11952TIP3    H257348   4.580   5.263   3.578  0.0445 -0.4106 -0.2845
11953TIP3   OH257349   5.242   0.703   5.992  0.5364 -0.3924 -0.5717
11953TIP3    H157350   5.177   0.654   6.042 -0.6366  0.5433 -1.1276
11953TIP3    H257351   5.321   0.700   6.046 -0.6247  0.4391  1.3034
11954TIP3   OH257352   4.391   2.178  11.436  0.1884 -0.5977 -0.0176
11954TIP3    H157353   4.444   2.105  11.468  0.4726  0.3137  1.7244
11954TIP3    H257354   4.301   2.147  11.446  0.2019  0.0605  2.9537
11955TIP3   OH257355   5.776   4.234   5.716  0.3491  0.4281  0.0898
11955TIP3    H157356   5.700   4.236   5.659  0.4637  1.3543 -0.0375
11955TIP3    H257357   5.742   4.258   5.802  0.2711 -0.4431  0.3102
11956TIP3   OH257358   6.707   6.308  15.387  0.1995  0.2272 -0.1607
11956TIP3    H157359   6.717   6.390  15.339 -1.2382  1.3777  1.3495
11956TIP3    H257360   6.623   6.272  15.357  0.6988 -0.5769 -0.6285
11957TIP3   OH257361   0.690   4.200   2.046 -0.1269  0.7571 -0.3571
11957TIP3    H157362   0.639   4.262   2.098  1.1147  1.8823 -0.4182
11957TIP3    H257363   0.738   4.148   2.111  0.6625  1.4957 -0.3293
11958TIP3   OH257364   0.063   6.017   6.058  0.4113  0.4344  0.4672
11958TIP3    H157365   0.099   6.021   5.969 -3.4495 -0.1024 -1.3160
11958TIP3    H257366   0.086   6.102   6.097  0.3138  1.6212 -1.9018
11959TIP3   OH257367   6.468   2.732   4.318  0.1182 -0.0907 -0.5363
11959TIP3    H157368   6.399   2.686   4.270  1.1805  0.1191 -2.3782
11959TIP3    H257369   6.429   2.752   4.403 -1.0845 -2.5229 -0.4298
11960TIP3   OH257370   3.546   0.872   0.311  0.3544  0.1395  0.2825
11960TIP3    H157371   3.496   0.944   0.350 -0.1218  0.4585 -0.8698
11960TIP3    H257372   3.480   0.820   0.265  1.0793  0.7775 -1.6024
11961TIP3   OH257373   3.381   6.106   0.922  0.1006  0.3080  0.2551
11961TIP3    H157374   3.449   6.162   0.959  0.9983 -0.3733 -0.3138
11961TIP3    H257375   3.387   6.025   0.972  0.4071 -0.1236 -0.4722
11962TIP3   OH257376   6.305   6.217   3.435  0.3239 -0.1579 -0.1684
11962TIP3    H157377   6.264   6.173   3.360  1.0902  1.4901 -1.6144
11962TIP3    H257378   6.319   6.307   3.405  0.8649  0.4946  1.8992
11963TIP3   OH257379   5.119   6.309   5.479  0.4024  0.1638  0.0402
11963TIP3    H157380   5.155   6.390   5.515 -0.1891 -0.2006  1.5333
11963TIP3    H257381   5.047   6.337   5.422  0.6088  0.7071  0.0391
11964TIP3   OH257382   0.767   4.553  15.903  0.0317  0.6487  0.0695
11964TIP3    H157383   0.781   4.459  15.913  0.7146  0.4157 -2.4072
11964TIP3    H257384   0.678   4.568  15.936  0.4549 -0.5467  1.9212
11965TIP3   OH257385   2.517   1.119   3.866 -0.1227  0.3854 -0.2553
11965TIP3    H157386   2.579   1.165   3.810  0.3947 -1.9504 -1.7369
11965TIP3    H257387   2.443   1.098   3.809 -0.3051 -0.6331  0.3185
11966TIP3   OH257388   2.449   0.271  15.293 -0.4561  0.3928 -0.1688
11966TIP3    H157389   2.376   0.302  15.347  0.1273 -1.8768  2.1096
11966TIP3    H257390   2.407   0.222  15.222 -1.1882 -0.4879  0.8496
11967TIP3   OH257391   0.570   4.363   2.242 -0.3641 -0.5681 -0.3681
11967TIP3    H157392   0.616   4.444   2.218 -1.0316  0.5682  1.8883
11967TIP3    H257393   0.478   4.389   2.250 -1.5052 -2.6471 -4.1176
11968TIP3   OH257394   1.907   1.228  12.098 -0.3900 -0.0484 -0.0186
11968TIP3    H157395   1.907   1.162  12.028 -0.1479 -0.2454  0.1656
11968TIP3    H257396   1.836   1.287  12.074  1.1033  1.2050 -1.6490
11969TIP3   OH257397   5.221   2.245   1.510  0.2824 -0.0555  0.3070
11969TIP3    H157398   5.239   2.152   1.519  1.5394  0.2058  0.7190
11969TIP3    H257399   5.132   2.256   1.543  1.1019 -0.7039  3.0665
11970TIP3   OH257400   5.615   2.997   2.679  0.1472 -0.5311  0.6100
11970TIP3    H157401   5.637   2.914   2.637  0.3845  0.8512 -2.2171
11970TIP3    H257402   5.685   3.057   2.654 -0.9660  1.0100  0.9842
11971TIP3   OH257403   3.269   4.276  15.532  0.6419 -0.0073  0.2589
11971TIP3    H157404   3.317   4.208  15.579  0.2138 -0.1500  0.4987
11971TIP3    H257405   3.220   4.229  15.465 -0.4254 -0.0711  1.0489
11972TIP3   OH257406   0.650   4.797   0.565  0.1417 -0.3975 -0.5177
11972TIP3    H157407   0.579   4.763   0.620  0.2722  2.5684  1.7588
11972TIP3    H257408   0.689   4.719   0.525 -2.1073 -2.4505  0.9924
11973TIP3   OH257409   1.730   3.628   5.387 -0.1867  0.7562  0.0330
11973TIP3    H157410   1.718   3.533   5.388 -2.9896  1.0296  1.2073
11973TIP3    H257411   1.678   3.657   5.312  1.3626  1.3393 -0.8480
11974TIP3   OH257412   3.030   4.929  14.022  0.2965  0.1989  0.0460
11974TIP3    H157413   2.947   4.961  13.987 -0.2496 -0.4953  0.6932
11974TIP3    H257414   3.056   4.996  14.086 -0.1478  0.0468  0.3921
11975TIP3   OH257415   6.532   5.076  14.833  0.5023 -0.3153  0.6105
11975TIP3    H157416   6.623   5.097  14.811  0.3967 -2.1232 -1.9916
11975TIP3    H257417   6.521   4.985  14.805 -2.0956 -0.1761  0.9654
11976TIP3   OH257418   3.403   2.269   0.748 -0.0378  0.3386  0.5108
11976TIP3    H157419   3.363   2.259   0.662  0.7876  0.3477  0.1192
11976TIP3    H257420   3.491   2.302   0.730  0.0087  0.7208  1.3786
11977TIP3   OH257421   2.824   0.738   0.492  0.1785 -0.0680  0.2815
11977TIP3    H157422   2.820   0.799   0.418 -0.5247  1.2921  1.3923
11977TIP3    H257423   2.791   0.656   0.457  0.8310  0.2556 -1.1817
11978TIP3   OH257424   0.083   4.334  11.853 -0.1926 -0.5215 -0.0161
11978TIP3    H157425   0.091   4.419  11.896 -0.7384 -0.4398 -0.0722
11978TIP3    H257426   0.146   4.278  11.899 -1.9862 -0.9205  2.0999
11979TIP3   OH257427   4.353   2.462   1.493 -0.0329  0.2956  0.4615
11979TIP3    H157428   4.337   2.368   1.477 -1.1722  0.3427  1.2095
11979TIP3    H257429   4.268   2.503   1.481  0.7182  1.4723 -1.2378
11980TIP3   OH257430   4.271   1.452   4.325  0.0385  0.1784 -0.0622
11980TIP3    H157431   4.239   1.366   4.297  1.3237 -0.4004  0.1700
11980TIP3    H257432   4.210   1.514   4.284 -2.0036 -0.8592  1.2077
11981TIP3   OH257433   5.487   5.400   5.138 -0.3143  0.2508 -0.4876
11981TIP3    H157434   5.443   5.349   5.206  0.9492 -1.2141 -0.6996
11981TIP3    H257435   5.575   5.416   5.174 -0.0914  0.6747 -1.1986
11982TIP3   OH257436   6.564   4.834   1.974 -0.5361 -0.3146  0.4174
11982TIP3    H157437   6.557   4.835   1.878 -1.8186 -0.4059  0.4883
11982TIP3    H257438   6.647   4.790   1.992  0.2249  0.6296 -0.6643
11983TIP3   OH257439   1.934   6.132  10.257 -0.4777 -0.2357 -0.7917
11983TIP3    H157440   1.851   6.123  10.211 -0.5396 -2.5154 -0.3459
11983TIP3    H257441   1.964   6.042  10.271  1.0392  0.4634  0.8992
11984TIP3   OH257442   2.554   4.676  12.580  0.4608  0.1080  0.6691
11984TIP3    H157443   2.471   4.668  12.532  0.7782  0.7954  0.0051
11984TIP3    H257444   2.593   4.589  12.573 -0.4344 -0.3854  1.4383
11985TIP3   OH257445   4.256   2.557   1.115 -0.3847  0.0977 -0.2684
11985TIP3    H157446   4.310   2.480   1.099 -1.2447 -0.9945  1.6941
11985TIP3    H257447   4.317   2.624   1.146  0.1333 -0.3786 -0.2546
11986TIP3   OH257448   0.617   1.288  16.319  0.3493 -0.3696 -0.6534
11986TIP3    H157449   0.626   1.265  16.226 -0.1710 -0.4785 -0.6783
11986TIP3    H257450   0.589   1.379  16.318  1.9706  0.1675 -0.5633
11987TIP3   OH257451   0.135   1.699  11.582 -0.4509  0.1263 -0.1783
11987TIP3    H157452   0.190   1.652  11.520  0.6156  0.9234  0.1282
11987TIP3    H257453   0.049   1.700  11.541  0.2813  0.8912 -1.8052
11988TIP3   OH257454   3.666   5.471   3.831 -0.2259 -0.0599  0.1613
11988TIP3    H157455   3.582   5.515   3.828  0.3900  1.2061  0.8326
11988TIP3    H257456   3.649   5.387   3.874 -1.1752  0.0753  0.0532
11989TIP3   OH257457   6.350   3.988  17.270  0.1145 -0.6130 -0.0454
11989TIP3    H157458   6.268   3.938  17.278 -0.6335  0.5916  0.1093
11989TIP3    H257459   6.323   4.070  17.230  1.5693 -0.9255 -1.7686
11990TIP3   OH257460   4.177   0.032  13.941 -0.4684 -0.1573  0.7706
11990TIP3    H157461   4.224   0.026  13.858 -0.0047  0.2143  0.9974
11990TIP3    H257462   4.239   0.075  14.000 -0.3421 -1.4755  1.6387
11991TIP3   OH257463   0.613   5.518  14.022  0.1754 -0.3520  0.3649
11991TIP3    H157464   0.610   5.505  13.927  1.1033 -1.7314  0.4986
11991TIP3    H257465   0.525   5.548  14.045  0.0510  0.3606 -0.9707
11992TIP3   OH257466   4.371   1.405  13.241 -0.6008 -0.1829 -0.4204
11992TIP3    H157467   4.277   1.412  13.259 -0.3374 -1.3520  1.6884
11992TIP3    H257468   4.399   1.494  13.222 -2.0523  0.2325 -0.7441
11993TIP3   OH257469   2.206   5.174  14.680 -0.2587 -0.1362 -0.4295
11993TIP3    H157470   2.231   5.264  14.657 -1.1093 -0.0715 -1.1575
11993TIP3    H257471   2.130   5.155  14.624 -1.3790 -0.5893  1.1708
11994TIP3   OH257472   4.673   3.257   0.760 -0.8333 -0.5102  0.1698
11994TIP3    H157473   4.581   3.250   0.736 -1.3751  1.7126  1.3286
11994TIP3    H257474   4.675   3.245   0.855  0.0075 -0.1107  0.2201
11995TIP3   OH257475   3.150   2.512   4.661 -0.1064  0.1502 -0.0107
11995TIP3    H157476   3.172   2.585   4.718  0.1010  0.8887 -1.0197
11995TIP3    H257477   3.149   2.549   4.572 -0.3752 -0.9789 -0.5013
11996TIP3   OH257478   4.934   4.400  13.986  0.4799  0.3856 -0.3612
11996TIP3    H157479   5.017   4.385  13.943  1.6251  2.1040  1.0791
11996TIP3    H257480   4.952   4.387  14.079 -1.8391 -2.9759 -0.2004
11997TIP3   OH257481   0.600   6.228  11.403  0.5799  0.1749  0.3769
11997TIP3    H157482   0.548   6.299  11.441 -1.1801 -1.2257  0.7451
11997TIP3    H257483   0.577   6.229  11.310 -0.8581 -0.9870  0.6860
11998TIP3   OH257484   6.408   3.893   1.195  0.0869 -0.2422  0.1943
11998TIP3    H157485   6.476   3.880   1.129  1.0244  3.4381  0.1834
11998TIP3    H257486   6.331   3.850   1.159  1.5646 -1.7377 -1.3730
11999TIP3   OH257487   0.811   0.050   2.016 -0.1222  0.0453  0.4187
11999TIP3    H157488   0.860   0.060   1.935  0.0273  1.1163  0.6279
11999TIP3    H257489   0.747   0.121   2.014 -0.6202 -0.3830  0.8828
12000TIP3   OH257490   2.056   2.266   0.215  0.4522 -0.1104  0.3917
12000TIP3    H157491   2.036   2.230   0.129 -1.5129  0.7611  0.4237
12000TIP3    H257492   2.136   2.222   0.242  0.9721 -0.5953 -1.7607
12001TIP3   OH257493   6.002   5.100  11.605 -0.0231  0.5839 -0.7042
12001TIP3    H157494   6.012   5.188  11.642  0.1838 -0.1898  1.1472
12001TIP3    H257495   6.087   5.059  11.618  0.1493  0.3482 -2.3333
12002TIP3   OH257496   2.247   3.998  12.202  0.3294 -0.0849 -0.1179
12002TIP3    H157497   2.222   4.005  12.294 -0.3582 -0.4824 -0.2653
12002TIP3    H257498   2.214   4.079  12.162 -0.9031 -0.6660 -0.3381
12003TIP3   OH257499   6.310   6.607   1.875 -0.5921  0.2259  0.8921
12003TIP3    H157500   6.291   6.514   1.886 -1.8890  0.4220  0.4372
12003TIP3    H257501   6.255   6.635   1.802 -0.3410  1.3822  1.1231
12004TIP3   OH257502   0.939   5.125  14.980 -0.9493  0.2800  0.4609
12004TIP3    H157503   0.945   5.091  14.891  0.1102  1.0122  0.2364
12004TIP3    H257504   0.985   5.060  15.034 -1.2089  0.0571  0.4155
12005TIP3   OH257505   4.110   2.009  12.820 -0.1522  0.2435 -1.3255
12005TIP3    H157506   4.076   2.052  12.742 -0.5917  0.0347 -1.2487
12005TIP3    H257507   4.118   2.079  12.885 -1.4358  0.1123 -1.0096
12006TIP3   OH257508   5.156   0.340  15.412  0.3248  0.9907  0.4005
12006TIP3    H157509   5.146   0.346  15.317  2.5985  2.1431  0.1771
12006TIP3    H257510   5.150   0.430  15.444 -0.2322  0.6387  1.3510
12007TIP3   OH257511   2.525   6.423  11.352 -0.1390 -0.0426 -0.6060
12007TIP3    H157512   2.568   6.501  11.316  0.5194 -0.4916 -0.8247
12007TIP3    H257513   2.434   6.429  11.322 -0.1976  0.8463 -0.2748
12008TIP3   OH257514   6.411   1.218   2.631  0.7108 -0.0522 -0.5210
12008TIP3    H157515   6.472   1.248   2.700 -1.8650 -0.0174  1.9271
12008TIP3    H257516   6.445   1.132   2.606  0.7798 -0.9230  2.2037
12009TIP3   OH257517   1.024   3.164   3.114 -0.1237  0.1509 -0.3932
12009TIP3    H157518   1.048   3.085   3.163  2.6241  0.9032 -0.3425
12009TIP3    H257519   1.009   3.231   3.182  1.6479  0.6672 -0.4611
12010TIP3   OH257520   1.029   2.610  15.865 -0.8168  0.1748 -0.0926
12010TIP3    H157521   0.978   2.539  15.905 -0.1034  0.5766  1.6096
12010TIP3    H257522   0.986   2.625  15.781 -1.4919 -1.7037 -0.1333
12011TIP3   OH257523   0.136   5.410   0.012  0.0168 -0.2520  0.3955
12011TIP3    H157524   0.141   5.446  -0.076  1.8355  0.7937  0.8702
12011TIP3    H257525   0.165   5.319   0.002  2.1555  0.4079  0.1584
12012TIP3   OH257526   2.780   5.771   0.819 -0.3882  0.2391  0.3694
12012TIP3    H157527   2.716   5.700   0.820 -0.9920  0.7044 -1.2145
12012TIP3    H257528   2.727   5.850   0.803  0.3187  0.9960  1.6149
12013TIP3   OH257529   1.152   2.788  13.551  0.4157 -0.5951 -0.3125
12013TIP3    H157530   1.120   2.807  13.463  2.2552  0.8204 -0.7202
12013TIP3    H257531   1.073   2.789  13.605 -1.0536 -3.3364 -2.1302
12014TIP3   OH257532   3.838   2.218   1.898  0.5027 -0.1846  0.1302
12014TIP3    H157533   3.886   2.135   1.898 -0.5710 -0.8208  0.5430
12014TIP3    H257534   3.849   2.251   1.987  0.3527 -0.2345  0.1681
12015TIP3   OH257535   0.625   1.595   0.178 -0.0209 -0.3625 -0.2947
12015TIP3    H157536   0.547   1.606   0.124  0.7770  2.3137 -1.0969
12015TIP3    H257537   0.606   1.642   0.259  0.7447  0.3631 -0.5206
12016TIP3   OH257538   5.819   3.724   2.322 -0.7247 -0.2815 -0.1452
12016TIP3    H157539   5.743   3.702   2.268 -1.6971  0.0234  1.0427
12016TIP3    H257540   5.823   3.820   2.320 -1.0171 -0.2442  0.6198
12017TIP3   OH257541   2.412   2.531  11.841  0.1824  0.2481  0.0165
12017TIP3    H157542   2.342   2.554  11.902  0.7661  1.1995  0.3599
12017TIP3    H257543   2.368   2.489  11.767 -0.5481 -0.8559  1.0472
12018TIP3   OH257544   3.650   5.886  12.232  0.0335 -0.8227  0.2242
12018TIP3    H157545   3.556   5.898  12.243  0.1313 -0.2574  0.4849
12018TIP3    H257546   3.664   5.792  12.242 -0.3050 -0.7260  1.8322
12019TIP3   OH257547   3.153   3.751   5.603 -0.7973 -0.0875 -0.2240
12019TIP3    H157548   3.074   3.747   5.548 -0.4522 -2.9855 -0.6398
12019TIP3    H257549   3.225   3.737   5.541 -0.1851 -0.5861  0.5947
12020TIP3   OH257550   5.890   3.070  15.041  0.2790 -0.3685 -0.2273
12020TIP3    H157551   5.803   3.080  15.080 -0.4012  0.1458 -1.7966
12020TIP3    H257552   5.906   2.975  15.043  0.0016 -0.4088  0.6941
12021TIP3   OH257553   6.786   0.064  12.389 -0.0196 -0.2037 -0.2221
12021TIP3    H157554   6.804  -0.025  12.418 -0.0946 -0.4879 -1.0153
12021TIP3    H257555   6.757   0.054  12.298  0.2426  0.6558 -0.4106
12022TIP3   OH257556   1.796   1.353  11.778  0.1720 -0.0072  0.4847
12022TIP3    H157557   1.722   1.334  11.721  0.2125 -1.1245  0.7807
12022TIP3    H257558   1.872   1.324  11.729  0.2787 -0.2010  0.7631
12023TIP3   OH257559   2.467   0.873  15.068  0.2259  0.3804 -0.2547
12023TIP3    H157560   2.454   0.962  15.034  1.7792  0.5839 -0.4079
12023TIP3    H257561   2.461   0.882  15.163 -2.0826  0.1734 -0.3179
12024TIP3   OH257562   0.036   4.030   1.035 -0.4897  0.4661  0.0053
12024TIP3    H157563  -0.006   4.099   0.984 -0.7852  1.7536  1.9189
12024TIP3    H257564  -0.032   3.964   1.048 -0.8082  0.7801 -0.0668
12025TIP3   OH257565   4.470   0.312  11.586  0.7270  0.4580  0.2317
12025TIP3    H157566   4.487   0.321  11.680  0.3692  0.5696  0.2876
12025TIP3    H257567   4.422   0.230  11.578  1.8296 -0.1867  0.0005
12026TIP3   OH257568   5.522   2.223  14.062  0.3641 -0.6035  0.0088
12026TIP3    H157569   5.433   2.228  14.027  0.1427  0.5298  0.6758
12026TIP3    H257570   5.578   2.234  13.986 -0.0761 -0.6424 -0.3271
12027TIP3   OH257571   4.113   1.815  11.086  0.1246 -0.9397  0.0199
12027TIP3    H157572   4.121   1.766  11.005  1.1552 -1.4603  0.4253
12027TIP3    H257573   4.200   1.813  11.125 -0.2416 -0.3095  0.9229
12028TIP3   OH257574   0.424   0.370   4.217  0.2927 -0.3371  0.3600
12028TIP3    H157575   0.333   0.354   4.190 -0.1185  0.6417  1.0739
12028TIP3    H257576   0.435   0.316   4.295  1.2482 -2.5988 -1.2195
12029TIP3   OH257577   2.802   6.173   0.656  0.4854 -0.1063 -0.2748
12029TIP3    H157578   2.807   6.235   0.729  1.0059 -0.4138 -0.0406
12029TIP3    H257579   2.729   6.204   0.603  0.9391  0.8897 -0.3359
12030TIP3   OH257580   4.811   1.563   4.762  0.4904  0.2491 -0.0857
12030TIP3    H157581   4.828   1.649   4.723  1.1327  0.0545 -0.2478
12030TIP3    H257582   4.729   1.534   4.722  0.1887  0.8451  0.0818
12031TIP3   OH257583   1.363   6.499  11.343  0.4682  0.2472  0.5547
12031TIP3    H157584   1.283   6.448  11.357 -0.6482  1.7581 -0.0304
12031TIP3    H257585   1.365   6.562  11.416  1.3881 -0.0753  0.8258
12032TIP3   OH257586   0.164   6.421  11.795 -0.6675  0.3203 -0.0807
12032TIP3    H157587   0.082   6.378  11.772 -0.9038  1.6086 -1.8106
12032TIP3    H257588   0.207   6.439  11.712  0.8219  0.7734  0.7361
12033TIP3   OH257589   4.528   5.432   2.454 -0.2710  0.0585  0.5510
12033TIP3    H157590   4.453   5.489   2.469 -1.3910 -0.3996 -2.4938
12033TIP3    H257591   4.603   5.481   2.487 -1.1722  3.3026 -1.7238
12034TIP3   OH257592   4.988   2.077  11.770  0.1941 -0.4615 -0.3816
12034TIP3    H157593   5.008   2.012  11.837 -1.1324 -0.4579  0.0414
12034TIP3    H257594   4.935   2.143  11.815 -1.6048 -0.9833 -1.6341
12035TIP3   OH257595   3.418   3.255  13.289 -0.1282 -0.2289 -0.4003
12035TIP3    H157596   3.446   3.337  13.248  0.8029 -0.5469 -0.4204
12035TIP3    H257597   3.440   3.187  13.225 -1.0602 -0.4809 -0.4564
12036TIP3   OH257598   4.692   3.328   4.109 -0.8744 -0.1009 -0.6784
12036TIP3    H157599   4.721   3.271   4.038  1.8122  1.3000 -0.8329
12036TIP3    H257600   4.728   3.288   4.188 -0.4876  0.4033 -0.5904
12037TIP3   OH257601   5.532   2.558   4.310 -0.3182  0.4672  0.5051
12037TIP3    H157602   5.556   2.650   4.326  1.8645 -0.1400  1.0209
12037TIP3    H257603   5.496   2.528   4.393 -0.0103  0.5765  0.6819
12038TIP3   OH257604   3.277   2.719   4.813  0.0444  0.0258 -0.3767
12038TIP3    H157605   3.366   2.707   4.781 -0.3839  2.5521 -2.8124
12038TIP3    H257606   3.277   2.805   4.855 -0.8465 -0.7733  1.3864
12039TIP3   OH257607   3.399   4.225   0.997  0.1898  0.5136 -0.7430
12039TIP3    H157608   3.371   4.298   1.052  0.8651  0.8098 -0.7706
12039TIP3    H257609   3.443   4.165   1.057 -0.2069  0.2171 -0.7501
12040TIP3   OH257610   1.206   2.513   0.324  0.4116 -0.3048  0.9669
12040TIP3    H157611   1.134   2.459   0.356  0.3537 -0.1062  1.1836
12040TIP3    H257612   1.269   2.451   0.288 -0.1980 -0.4316  0.0932
12041TIP3   OH257613   1.136   2.915   1.018  0.3796  0.1979  0.1455
12041TIP3    H157614   1.069   2.983   1.013 -0.9876 -1.0346  0.9816
12041TIP3    H257615   1.175   2.913   0.930 -1.2688  0.3900 -0.6320
12042TIP3   OH257616   5.605   5.720   6.180 -0.0184 -0.5420  0.3754
12042TIP3    H157617   5.574   5.634   6.151  1.0190 -0.5497 -0.7537
12042TIP3    H257618   5.589   5.719   6.274 -1.9856 -1.1363  0.0880
12043TIP3   OH257619   2.280   4.982   1.209  0.0248  0.6741  0.3200
12043TIP3    H157620   2.286   4.889   1.228  1.4106  0.5520 -0.5620
12043TIP3    H257621   2.225   4.988   1.132  0.9417  0.4522 -0.3699
12044TIP3   OH257622   2.366   0.785  14.498 -0.2998 -0.3646  0.1841
12044TIP3    H157623   2.336   0.874  14.479 -1.5279 -0.8024 -0.0480
12044TIP3    H257624   2.312   0.757  14.572  2.3113  0.2068  2.4857
12045TIP3   OH257625   6.332   5.635   2.499 -0.6055  0.5368 -0.2918
12045TIP3    H157626   6.391   5.623   2.574 -1.3977  0.9779  0.4176
12045TIP3    H257627   6.257   5.683   2.535 -0.1968  2.3613 -1.7555
12046TIP3   OH257628   4.283   2.600   2.309  0.4133 -0.4991  0.1885
12046TIP3    H157629   4.342   2.650   2.365 -0.3198 -0.6734  1.1351
12046TIP3    H257630   4.197   2.607   2.351  0.2890 -2.6049  0.4273
12047TIP3   OH257631   6.061   4.300   2.149  0.4500 -0.1829 -0.6619
12047TIP3    H157632   6.097   4.349   2.223 -1.2120 -1.7335  1.3040
12047TIP3    H257633   6.133   4.244   2.119  1.3457  0.9638 -0.7166
12048TIP3   OH257634   3.530   1.974  14.599 -0.3706  0.9366 -0.2572
12048TIP3    H157635   3.444   2.012  14.584  0.2531  2.9468  0.7347
12048TIP3    H257636   3.515   1.902  14.659 -1.3353  1.4978  0.1944
12049TIP3   OH257637   1.097   6.539   1.911 -0.2265  0.5503  0.5123
12049TIP3    H157638   1.046   6.552   1.831  0.3052 -0.5895 -0.0293
12049TIP3    H257639   1.181   6.583   1.894 -0.1356  0.3596  0.4693
12050TIP3   OH257640   2.107   2.928   3.803  0.1000 -0.3892  0.3129
12050TIP3    H157641   2.026   2.945   3.851  0.6303  0.3254  0.9824
12050TIP3    H257642   2.079   2.885   3.723 -1.0437  0.8312  0.0322
12051TIP3   OH257643   0.114   6.736  15.768  0.0419  0.1099  0.0048
12051TIP3    H157644   0.081   6.716  15.680 -1.8827  0.0222  0.6809
12051TIP3    H257645   0.204   6.705  15.768  0.1311  0.2374 -1.9722
12052TIP3   OH257646   2.349   2.732  16.601  0.5819 -0.0740  0.5256
12052TIP3    H157647   2.342   2.810  16.655  1.5189  0.4867 -0.1331
12052TIP3    H257648   2.441   2.728  16.576  0.2898 -0.6520 -0.5317
12053TIP3   OH257649   0.648   6.426   0.586  0.1796  0.2708  0.1658
12053TIP3    H157650   0.680   6.365   0.654 -0.0581  1.1138  1.0547
12053TIP3    H257651   0.569   6.463   0.624  0.0599  0.7774 -0.5785
12054TIP3   OH257652   5.827   3.677   0.701 -0.1049 -0.1605 -0.6200
12054TIP3    H157653   5.919   3.660   0.681  0.0697 -0.3542  0.2979
12054TIP3    H257654   5.828   3.757   0.754 -0.3610 -0.6792  0.1955
12055TIP3   OH257655   5.276   6.101   1.349  0.0649  1.0422 -0.2915
12055TIP3    H157656   5.328   6.178   1.328 -2.2667  2.3553 -1.7957
12055TIP3    H257657   5.340   6.032   1.366  2.3054  3.4762  2.1948
12056TIP3   OH257658   6.153   0.336   6.468 -0.0993 -0.0598 -1.0292
12056TIP3    H157659   6.113   0.411   6.513  0.2639 -1.1919  1.3695
12056TIP3    H257660   6.082   0.272   6.463  0.4053 -0.7143 -0.1082
12057TIP3   OH257661   1.369   0.768  16.668 -0.0274 -0.1938  0.4146
12057TIP3    H157662   1.307   0.836  16.643 -0.4707 -0.6125  0.3679
12057TIP3    H257663   1.346   0.693  16.613  1.9791  0.3423 -1.2943
12058TIP3   OH257664   3.931   2.658   3.725  0.1760  0.5307 -0.1199
12058TIP3    H157665   3.964   2.632   3.811  0.0627 -0.8693 -0.4745
12058TIP3    H257666   3.918   2.575   3.679  0.1202  1.2589 -1.4434
12059TIP3   OH257667   4.006   6.349   5.860  0.1872 -0.1810 -0.1713
12059TIP3    H157668   4.084   6.364   5.913  0.1937 -0.9189  0.0338
12059TIP3    H257669   3.933   6.377   5.916  0.3381  1.2191 -0.6383
12060TIP3   OH257670   6.815   3.398   2.683 -0.4414 -0.5983 -0.3463
12060TIP3    H157671   6.896   3.383   2.733  0.3306  0.1317 -1.3245
12060TIP3    H257672   6.844   3.400   2.592 -0.9918  2.9978 -0.5734
12061TIP3   OH257673   0.754   3.541   5.737 -0.3332 -0.5227 -0.2094
12061TIP3    H157674   0.696   3.597   5.790  1.2926  0.4820  0.5779
12061TIP3    H257675   0.798   3.601   5.677 -0.6600 -1.3875 -1.3479
12062TIP3   OH257676   4.737   5.993  10.576  0.1551 -0.2640 -0.2964
12062TIP3    H157677   4.761   5.993  10.483 -0.0931 -0.0097 -0.3607
12062TIP3    H257678   4.819   5.973  10.622  0.2854 -0.3535 -0.5682
12063TIP3   OH257679   0.510   2.401   3.359  0.1665 -0.2217  0.6734
12063TIP3    H157680   0.530   2.490   3.388  2.3175  0.2463 -1.9746
12063TIP3    H257681   0.500   2.352   3.441  0.8427  2.0092  2.1956
12064TIP3   OH257682   1.997   0.788   3.310 -0.0112  0.2823 -0.0285
12064TIP3    H157683   1.922   0.757   3.260  1.2283 -1.2166 -1.0821
12064TIP3    H257684   2.053   0.711   3.320  0.6322  0.9488  2.1924
12065TIP3   OH257685   3.922   4.405  16.372  0.6531  0.5354  0.3028
12065TIP3    H157686   3.855   4.336  16.372 -1.5347  2.5358  0.4225
12065TIP3    H257687   4.003   4.359  16.396 -0.6181 -2.0137  0.1169
12066TIP3   OH257688   3.371   0.590   2.735 -0.0860  0.1336 -0.7691
12066TIP3    H157689   3.412   0.615   2.651 -1.0119 -0.4623 -1.4088
12066TIP3    H257690   3.354   0.496   2.726 -2.0181  0.4483 -0.7182
12067TIP3   OH257691   0.969   5.281  15.840  0.2914  0.8050 -0.5534
12067TIP3    H157692   1.053   5.262  15.799  0.5958  0.1147  0.3600
12067TIP3    H257693   0.906   5.226  15.793  0.8590 -1.0661  0.7714
12068TIP3   OH257694   4.319   0.968  17.044 -0.6057  0.0149  0.0940
12068TIP3    H157695   4.313   1.055  17.082 -0.5952 -0.5542  1.4591
12068TIP3    H257696   4.368   0.917  17.109 -1.4961 -1.2575 -0.2063
12069TIP3   OH257697   6.789   5.843   4.552  0.3562 -0.2394 -0.6153
12069TIP3    H157698   6.730   5.776   4.516 -1.0963  0.4233  0.4340
12069TIP3    H257699   6.850   5.794   4.607 -0.3985 -0.7794 -0.2332
12070TIP3   OH257700   1.151   2.979  11.406 -0.5450  0.0991 -0.0376
12070TIP3    H157701   1.225   3.032  11.434 -1.4932  2.3356 -1.4583
12070TIP3    H257702   1.081   3.001  11.467 -0.2604 -1.5915  0.9663
12071TIP3   OH257703   5.678   0.363   0.646 -0.3567  0.1102 -1.2634
12071TIP3    H157704   5.736   0.421   0.696 -2.1341  0.3576  0.6690
12071TIP3    H257705   5.656   0.292   0.707 -2.0238  0.0056 -1.9137
12072TIP3   OH257706   5.727   6.666  14.275  0.3174 -0.1293 -0.2514
12072TIP3    H157707   5.785   6.607  14.227 -0.2584 -0.8536 -0.0814
12072TIP3    H257708   5.776   6.748  14.282  1.5359 -0.8771  0.3460
12073TIP3   OH257709   2.184   0.882  16.800  0.2081  0.1779  0.1535
12073TIP3    H157710   2.234   0.894  16.719  3.3212  1.4313  2.0753
12073TIP3    H257711   2.213   0.798  16.834  0.8187  0.7610  1.1233
12074TIP3   OH257712   2.840   5.175   1.701 -0.0580 -0.2834  0.1578
12074TIP3    H157713   2.858   5.151   1.610  0.4070  1.6299 -0.3079
12074TIP3    H257714   2.857   5.269   1.704 -3.0595  0.3242  1.4778
12075TIP3   OH257715   5.891   2.250   4.248  0.0471 -0.5765  0.5602
12075TIP3    H157716   5.858   2.305   4.178 -0.0273 -1.0672  0.2016
12075TIP3    H257717   5.974   2.290   4.274  0.5781 -0.9640 -0.5029
12076TIP3   OH257718   3.452   4.655   2.573 -0.2846 -0.0784  0.2286
12076TIP3    H157719   3.500   4.715   2.515 -1.3434  1.4810  0.9174
12076TIP3    H257720   3.375   4.630   2.523 -0.1152 -0.4475  0.1496
12077TIP3   OH257721   4.743   3.026  16.877  0.8514  0.6812  0.0071
12077TIP3    H157722   4.760   3.051  16.787 -1.2355 -0.0368 -0.6277
12077TIP3    H257723   4.779   2.937  16.885  3.8825  1.8575  0.8726
12078TIP3   OH257724   2.107   1.931   3.210  0.2628 -0.2383 -0.0310
12078TIP3    H157725   2.037   1.995   3.224  0.2149  0.1076 -1.6392
12078TIP3    H257726   2.161   1.937   3.289 -1.3928 -0.3708  1.1571
12079TIP3   OH257727   0.645   0.044   1.188 -0.1536 -0.3023  0.3582
12079TIP3    H157728   0.660   0.123   1.135 -1.9765 -0.1898 -0.0362
12079TIP3    H257729   0.612   0.077   1.271 -0.6422 -0.6223  0.2970
12080TIP3   OH257730   3.212   0.245  11.555  0.9103 -0.3273  0.5819
12080TIP3    H157731   3.159   0.289  11.621  0.3957  0.9291 -0.6407
12080TIP3    H257732   3.159   0.170  11.527  2.2695 -2.5964  3.5117
12081TIP3   OH257733   1.743   5.647  12.414 -0.4505 -0.0148  0.1207
12081TIP3    H157734   1.815   5.585  12.418  0.1319  0.6318  3.7840
12081TIP3    H257735   1.786   5.732  12.404 -1.0532  0.0844 -1.9707
12082TIP3   OH257736   5.213   4.626  11.010 -0.2607  0.7559 -0.3150
12082TIP3    H157737   5.263   4.632  10.928 -1.0473  1.9069 -0.7344
12082TIP3    H257738   5.198   4.532  11.021 -1.9991  0.6478 -2.7048
12083TIP3   OH257739   1.515   2.205   5.963  0.1952 -0.3845  0.2006
12083TIP3    H157740   1.596   2.187   5.915  0.5126  0.4870  0.3982
12083TIP3    H257741   1.483   2.118   5.989  2.2260 -0.6617  2.0062
12084TIP3   OH257742   3.412   5.931  12.463  0.3850 -0.1741 -0.2701
12084TIP3    H157743   3.373   5.897  12.382 -0.3494 -0.4032  0.1758
12084TIP3    H257744   3.340   5.972  12.510 -0.1708 -3.4390  2.1135
12085TIP3   OH257745   2.794   0.200  14.170 -0.0704  0.5233 -0.4925
12085TIP3    H157746   2.872   0.144  14.170 -1.4566 -1.5033  0.5041
12085TIP3    H257747   2.790   0.236  14.258 -1.3914 -1.1402  0.1858
12086TIP3   OH257748   1.453   6.339   5.786  0.1169 -0.4431 -0.2012
12086TIP3    H157749   1.384   6.280   5.752 -0.8200  0.6301 -0.2212
12086TIP3    H257750   1.407   6.395   5.848  0.6992  1.1371 -1.1511
12087TIP3   OH257751   0.694   0.675   1.232  0.1180  0.2454 -0.4596
12087TIP3    H157752   0.695   0.703   1.323  0.9322 -0.6493 -0.1767
12087TIP3    H257753   0.604   0.648   1.215 -0.4867  2.1083 -0.4820
12088TIP3   OH257754   5.280   2.867  12.023 -0.1906  0.4718 -0.0840
12088TIP3    H157755   5.198   2.825  11.995 -0.3211  2.0619 -2.3309
12088TIP3    H257756   5.328   2.883  11.942  0.6822  2.9491  0.8354
12089TIP3   OH257757   0.470   5.796   2.187  0.0363  0.3283  0.2674
12089TIP3    H157758   0.443   5.803   2.095 -1.3527  2.3130  0.7707
12089TIP3    H257759   0.544   5.856   2.195 -1.0826  1.6804  0.8385
12090TIP3   OH257760   2.532   5.705  13.100  0.1301  0.2827 -0.4360
12090TIP3    H157761   2.542   5.721  13.194 -0.5890  1.1539 -0.4848
12090TIP3    H257762   2.478   5.778  13.069 -2.0730 -1.4699 -1.0098
12091TIP3   OH257763   2.517   5.285   1.547 -0.2941  1.1289  0.4396
12091TIP3    H157764   2.458   5.338   1.599 -1.0598  1.4230 -0.6972
12091TIP3    H257765   2.464   5.252   1.474  0.3468 -0.5687  0.6796
12092TIP3   OH257766   3.647   0.486  12.949  0.0658 -0.4037  0.3199
12092TIP3    H157767   3.686   0.565  12.910 -1.8483  0.2828 -0.3482
12092TIP3    H257768   3.593   0.519  13.021 -0.5920 -1.0930  0.1636
12093TIP3   OH257769   5.516   3.335   1.465 -0.1775 -0.5888 -0.0154
12093TIP3    H157770   5.439   3.320   1.519  0.2890 -0.1403  0.8046
12093TIP3    H257771   5.544   3.424   1.487 -0.4446 -0.0771 -1.6241
12094TIP3   OH257772   2.403   4.963  14.604  0.7260  0.3137 -0.1635
12094TIP3    H157773   2.330   4.908  14.576  1.1157 -0.6846  0.7000
12094TIP3    H257774   2.365   5.050  14.617  0.2915  0.5666 -2.5757
12095TIP3   OH257775   3.692   0.911  16.927  0.7210  0.4465  0.4549
12095TIP3    H157776   3.781   0.944  16.934  0.4411  1.7831 -1.6406
12095TIP3    H257777   3.645   0.955  16.998  1.5026  0.4276  1.0008
12096TIP3   OH257778   5.472   1.026   4.537 -0.5305 -0.0518 -0.6226
12096TIP3    H157779   5.390   0.982   4.516 -0.1340 -1.3440  0.4087
12096TIP3    H257780   5.518   1.033   4.454 -0.6045 -1.6173 -0.8113
12097TIP3   OH257781   4.148   5.603  12.174 -0.2223  0.4886  0.3061
12097TIP3    H157782   4.136   5.648  12.090  0.7866  0.3218  0.0509
12097TIP3    H257783   4.242   5.609  12.190 -0.2944 -0.2028  1.0287
12098TIP3   OH257784   3.657   4.133   2.422  0.1120  0.6584  0.2296
12098TIP3    H157785   3.674   4.218   2.463 -1.7128  1.2224 -0.1153
12098TIP3    H257786   3.590   4.151   2.356  0.2003 -0.9365 -0.3399
12099TIP3   OH257787   3.850   6.644   4.682 -0.0090 -0.1874  0.5173
12099TIP3    H157788   3.930   6.591   4.687  0.0549 -0.1209  0.2081
12099TIP3    H257789   3.852   6.699   4.761  0.2695 -0.1566  0.4873
12100TIP3   OH257790   5.975   3.954   4.000  0.5698 -0.1220 -0.0309
12100TIP3    H157791   6.038   3.939   3.929  1.4865 -0.3464  0.8123
12100TIP3    H257792   6.012   4.025   4.051  0.2459 -0.3917  0.5924
12101TIP3   OH257793   0.250   6.198   1.532  0.2814  0.1952 -0.1254
12101TIP3    H157794   0.267   6.292   1.532  1.7849 -0.0385 -1.4942
12101TIP3    H257795   0.195   6.182   1.456 -1.8555  0.2043  1.3227
12102TIP3   OH257796   0.017   0.735  16.727  0.4300 -0.5138  0.0060
12102TIP3    H157797   0.004   0.819  16.681  0.0331 -1.2494 -1.2968
12102TIP3    H257798   0.101   0.703  16.694  1.9252  0.5603  2.5076
12103TIP3   OH257799   4.579   1.461   0.278 -0.4263 -0.5965 -0.1796
12103TIP3    H157800   4.613   1.382   0.321  0.6738 -1.2546 -2.1243
12103TIP3    H257801   4.619   1.533   0.327  0.4751 -1.3060  0.1717
12104TIP3   OH257802   3.716   5.510  16.132 -0.1062  0.3551 -0.4078
12104TIP3    H157803   3.781   5.443  16.109  1.0170  1.0029  0.7984
12104TIP3    H257804   3.683   5.483  16.217 -0.4314  0.7670 -0.4031
12105TIP3   OH257805   1.367   6.472  16.167 -0.2242 -0.3690  0.2735
12105TIP3    H157806   1.311   6.416  16.113 -1.1833 -0.4985  1.3596
12105TIP3    H257807   1.415   6.412  16.223 -0.9900 -0.1602  1.1896
12106TIP3   OH257808   2.547   2.021  14.388 -0.1098  0.4159  0.1834
12106TIP3    H157809   2.539   1.927  14.374  0.2790  0.5027 -0.7368
12106TIP3    H257810   2.621   2.047  14.334 -1.3224  1.5281 -1.0429
12107TIP3   OH257811   0.851   0.120  14.351  0.0058 -0.0002  0.2127
12107TIP3    H157812   0.905   0.194  14.381 -1.2021  1.2402 -0.5088
12107TIP3    H257813   0.892   0.043  14.389  2.5589  0.8120 -0.6319
12108TIP3   OH257814   5.479   2.642  12.840  0.4347 -0.1191  0.1746
12108TIP3    H157815   5.455   2.724  12.883  1.3601  0.9287 -1.2188
12108TIP3    H257816   5.575   2.640  12.845  0.4494 -0.8715 -0.2570
12109TIP3   OH257817   1.958   3.714  11.561  0.1268 -0.2415  0.1037
12109TIP3    H157818   1.977   3.787  11.621  0.5545 -0.4455  0.2235
12109TIP3    H257819   2.043   3.672  11.548 -0.0180 -0.3799 -0.4139
12110TIP3   OH257820   3.952   3.411  12.035 -0.8445 -0.7631  0.0323
12110TIP3    H157821   3.945   3.419  12.130 -2.4053 -0.1535 -0.0996
12110TIP3    H257822   3.893   3.478  12.001 -0.8048 -1.3994 -1.3643
12111TIP3   OH257823   4.177   2.933  13.145 -0.7142  0.1799 -0.4623
12111TIP3    H157824   4.199   2.858  13.201 -0.6320  2.0604  2.2279
12111TIP3    H257825   4.087   2.918  13.119 -0.4400 -1.2397 -0.6903
12112TIP3   OH257826   5.766   4.757   4.288 -0.5787 -0.1753 -0.1464
12112TIP3    H157827   5.745   4.664   4.293 -0.8978 -0.0731  0.7167
12112TIP3    H257828   5.854   4.765   4.323  0.2327 -0.3769 -2.0510
12113TIP3   OH257829   2.149   0.568  13.927 -0.4933  0.0608 -0.1892
12113TIP3    H157830   2.073   0.510  13.929 -0.6203  0.2174 -0.5107
12113TIP3    H257831   2.223   0.510  13.946 -0.5258 -0.3699 -1.3131
12114TIP3   OH257832   5.392   6.223  11.857 -0.3123  0.5777 -0.6856
12114TIP3    H157833   5.450   6.147  11.865 -0.9840  0.1861  0.6160
12114TIP3    H257834   5.451   6.296  11.838  0.6931  0.2798  1.0713
12115TIP3   OH257835   3.745   2.888   4.498  0.4986  0.3223 -0.0662
12115TIP3    H157836   3.793   2.884   4.581 -0.2561  3.1254  0.6116
12115TIP3    H257837   3.659   2.922   4.522 -0.5931 -1.0608 -1.7575
12116TIP3   OH257838   4.734   5.729   0.551  0.2383  0.0035 -0.0704
12116TIP3    H157839   4.818   5.726   0.599 -1.5871 -0.4133  3.4342
12116TIP3    H257840   4.718   5.822   0.537  1.0279  0.1134 -0.3162
12117TIP3   OH257841   3.911   4.622   0.985  0.5557 -0.4373 -0.1117
12117TIP3    H157842   3.912   4.531   1.015 -1.0293 -0.6536 -0.6116
12117TIP3    H257843   3.883   4.672   1.062 -3.4753 -0.9880 -0.9634
12118TIP3   OH257844   1.988   5.826   2.048  0.0783  0.1273  0.6181
12118TIP3    H157845   2.048   5.772   1.997 -1.2111 -0.9168  0.1378
12118TIP3    H257846   2.016   5.916   2.030  0.0003 -0.2236 -1.5932
12119TIP3   OH257847   6.099   1.289  13.809  0.9268 -0.0913  0.6301
12119TIP3    H157848   6.087   1.311  13.901  1.7549  1.6662  0.3609
12119TIP3    H257849   6.161   1.216  13.809  1.2063  0.1350  1.4668
12120TIP3   OH257850   4.160   4.229   2.275  0.2415 -0.1732 -0.7139
12120TIP3    H157851   4.095   4.166   2.306  1.0539 -0.0539  1.3649
12120TIP3    H257852   4.118   4.314   2.287  0.4792 -0.1375 -0.1259
12121TIP3   OH257853   5.989   0.073  17.050 -0.0866  0.7099  0.1859
12121TIP3    H157854   5.949   0.057  17.135  0.0042  0.6097  0.2106
12121TIP3    H257855   5.930   0.134  17.006  0.5819  1.8696  0.8674
12122TIP3   OH257856   2.620   5.177   5.625 -0.0763  0.2562  0.0241
12122TIP3    H157857   2.578   5.169   5.540  0.0985  2.9083 -0.3886
12122TIP3    H257858   2.564   5.127   5.684 -1.4700  0.2308 -1.2534
12123TIP3   OH257859   5.447   5.422   5.601  1.0813 -0.1989  0.4415
12123TIP3    H157860   5.392   5.435   5.524  0.1446 -2.5135  0.6523
12123TIP3    H257861   5.525   5.477   5.585 -0.5162  1.9040 -0.5842
12124TIP3   OH257862   0.012   5.961  12.263  0.4085  0.8967 -0.2575
12124TIP3    H157863   0.024   5.915  12.347 -0.0045  1.1549 -0.0512
12124TIP3    H257864   0.041   5.898  12.197  1.2893  0.8964  0.1066
12125TIP3   OH257865   6.087   4.969  16.503  0.3302 -0.0347 -0.1118
12125TIP3    H157866   6.038   4.984  16.422  0.0797 -0.0327  0.0404
12125TIP3    H257867   6.086   5.053  16.548  0.7669  0.0570 -0.2671
12126TIP3   OH257868   1.783   4.640   2.995 -0.0423  0.2108  0.5868
12126TIP3    H157869   1.701   4.612   3.036 -0.7466 -2.3680 -2.2250
12126TIP3    H257870   1.847   4.575   3.024  0.5354  0.9725  1.0580
12127TIP3   OH257871   2.846   0.150   2.070  0.0553  0.0226  0.1534
12127TIP3    H157872   2.870   0.198   1.992  0.7722  0.7023  0.7804
12127TIP3    H257873   2.852   0.214   2.141  1.5182 -1.0673  1.0803
12128TIP3   OH257874   4.894   2.694  12.143 -0.2076 -0.1754  0.1400
12128TIP3    H157875   4.829   2.628  12.168 -1.8398  1.0051 -0.8139
12128TIP3    H257876   4.944   2.709  12.224 -1.7368 -0.4328  1.1857
12129TIP3   OH257877   4.561   3.106  12.983 -0.6424 -0.1813  0.5479
12129TIP3    H157878   4.636   3.143  12.936 -0.0963 -0.8461  0.8759
12129TIP3    H257879   4.572   3.138  13.073 -0.9632  0.0205  0.5161
12130TIP3   OH257880   2.191   5.648  12.986 -0.7510 -0.1580  0.3951
12130TIP3    H157881   2.252   5.587  12.945  0.2760  2.2013 -1.8724
12130TIP3    H257882   2.111   5.639  12.935 -0.7955 -0.0767  0.4512
12131TIP3   OH257883   3.816   3.310  15.450 -0.2338  0.2131 -0.2735
12131TIP3    H157884   3.730   3.351  15.444 -0.3670 -0.0584 -0.2153
12131TIP3    H257885   3.859   3.357  15.522 -0.9740 -0.8086  0.8707
12132TIP3   OH257886   6.056   1.111   3.004 -0.5962  0.0723 -0.0731
12132TIP3    H157887   5.964   1.113   2.975 -0.7463  0.4682  0.4148
12132TIP3    H257888   6.051   1.114   3.099 -0.0477  2.8237 -0.0390
12133TIP3   OH257889   2.150   1.724   2.755 -0.0537 -0.2424  0.4346
12133TIP3    H157890   2.170   1.665   2.683  1.2005 -1.1652  1.5011
12133TIP3    H257891   2.165   1.812   2.720 -0.0550 -0.6418 -0.5866
12134TIP3   OH257892   1.389   5.372  13.792  0.1195  0.1475  0.5677
12134TIP3    H157893   1.398   5.429  13.716 -0.9346 -1.1749 -0.6128
12134TIP3    H257894   1.442   5.296  13.771 -0.9311 -0.6495  0.7065
12135TIP3   OH257895   5.110   4.218  14.698  0.3231  0.4816 -0.0609
12135TIP3    H157896   5.120   4.308  14.729  0.4322  0.5043 -0.1614
12135TIP3    H257897   5.021   4.194  14.723 -0.1094  1.0038 -1.0253
12136TIP3   OH257898   2.370   5.329   0.363 -0.2957  0.4664 -0.2147
12136TIP3    H157899   2.360   5.274   0.285 -0.7916 -0.7307  0.6514
12136TIP3    H257900   2.464   5.333   0.377 -0.2467 -0.1418 -0.3165
12137TIP3   OH257901   3.110   5.680   2.435  0.4988 -0.0959  0.4848
12137TIP3    H157902   3.067   5.695   2.351 -1.2605  0.2876  1.4090
12137TIP3    H257903   3.042   5.641   2.490  1.4979  0.0170  1.8509
12138TIP3   OH257904   1.199   4.132   5.555  0.4571 -0.5396 -0.5377
12138TIP3    H157905   1.153   4.197   5.502 -0.0243 -1.2623 -1.0248
12138TIP3    H257906   1.284   4.172   5.574 -0.4370  0.9348  0.5980
12139TIP3   OH257907   3.953   0.907  12.999  0.0734  0.3557 -0.3019
12139TIP3    H157908   3.926   0.946  13.082  0.6069 -0.9056  0.4787
12139TIP3    H257909   4.041   0.941  12.984  0.3146 -0.0889  0.0909
12140TIP3   OH257910   1.800   2.671   5.138  0.4738 -0.1628 -0.2271
12140TIP3    H157911   1.840   2.735   5.080 -2.5943  0.0865 -2.3374
12140TIP3    H257912   1.745   2.723   5.197  1.8291 -0.5823  1.4665
12141TIP3   OH257913   0.819   0.994   2.327  0.4332  0.6593 -0.0404
12141TIP3    H157914   0.875   1.027   2.397 -0.8218  0.0572  1.3108
12141TIP3    H257915   0.855   0.909   2.304  0.7876  0.8098 -0.0370
12142TIP3   OH257916   1.985   6.420   6.539 -0.4787 -0.2288 -0.1855
12142TIP3    H157917   1.893   6.448   6.542 -0.5512 -0.3596 -1.0446
12142TIP3    H257918   1.981   6.324   6.544 -0.4786 -0.3198 -1.5268
12143TIP3   OH257919   2.020   2.910   2.037 -0.1537 -0.4563  0.2909
12143TIP3    H157920   2.007   2.928   1.944  0.0776 -0.4528  0.2568
12143TIP3    H257921   2.030   2.997   2.076 -0.8579 -0.4291  0.4162
12144TIP3   OH257922   3.999   0.838   0.040 -0.7233 -0.4798  0.0004
12144TIP3    H157923   4.042   0.870   0.119 -0.1294  1.1910 -0.9517
12144TIP3    H257924   4.036   0.752   0.025 -0.2113 -0.4521  1.0594
12145TIP3   OH257925   1.032   5.710  14.561 -0.0021  0.5310 -0.2780
12145TIP3    H157926   1.103   5.744  14.506 -0.7150 -0.0002 -1.5757
12145TIP3    H257927   1.075   5.684  14.642  1.0064  1.8265 -0.3582
12146TIP3   OH257928   0.349   6.063   6.071 -0.0465 -0.4192 -1.0766
12146TIP3    H157929   0.328   6.055   6.164  1.0834 -1.1788 -0.8603
12146TIP3    H257930   0.401   6.144   6.065  0.1371 -0.5312 -0.9972
12147TIP3   OH257931   4.567   2.795  12.964 -0.4117 -0.5770 -0.2527
12147TIP3    H157932   4.562   2.784  12.869 -0.9069 -0.0987 -0.2876
12147TIP3    H257933   4.544   2.887  12.978 -3.9400 -1.4600  0.6182
12148TIP3   OH257934   2.355   2.674  11.063 -0.7776  0.1255 -0.4326
12148TIP3    H157935   2.415   2.601  11.048 -0.3547  0.6825 -1.4788
12148TIP3    H257936   2.270   2.640  11.035 -0.8848 -0.4990  0.6001
12149TIP3   OH257937   1.028   0.669  12.338  0.5177  0.3397  0.7098
12149TIP3    H157938   0.978   0.732  12.390 -0.5666 -0.5729  0.8123
12149TIP3    H257939   1.020   0.701  12.248 -0.7143 -0.0820  0.6571
12150TIP3   OH257940   3.732   1.178   2.601 -1.1982  0.1678  0.4460
12150TIP3    H157941   3.747   1.153   2.510 -1.0535  0.7839  0.2990
12150TIP3    H257942   3.701   1.097   2.643  1.8553 -1.0524  0.6249
12151TIP3   OH257943   6.077   5.397   5.281  0.0175 -0.2861  0.0229
12151TIP3    H157944   6.170   5.388   5.304 -0.1037 -0.3526  0.4855
12151TIP3    H257945   6.040   5.310   5.296  0.5241 -1.2150 -3.1951
12152TIP3   OH257946   3.243   1.013  14.710  0.3484 -0.2452 -0.0105
12152TIP3    H157947   3.200   1.050  14.787 -2.5710 -0.3506 -1.4681
12152TIP3    H257948   3.288   1.088  14.669  2.1588 -0.2445  1.8361
12153TIP3   OH257949   4.447   5.965   1.351 -0.3555  0.4786 -0.8556
12153TIP3    H157950   4.369   5.962   1.295 -0.5566  2.1486 -0.7149
12153TIP3    H257951   4.460   5.875   1.379 -1.7555  0.0358 -1.5453
12154TIP3   OH257952   2.457   3.675   1.628  0.7073 -0.0199 -0.2494
12154TIP3    H157953   2.442   3.749   1.687 -3.1278 -0.8251  0.0750
12154TIP3    H257954   2.542   3.692   1.589  2.3368  1.8588  3.6034
12155TIP3   OH257955   3.072   3.638  15.096 -0.3524  0.3076 -0.0459
12155TIP3    H157956   3.080   3.664  15.004 -2.8708 -0.9380 -0.6791
12155TIP3    H257957   2.982   3.659  15.119 -0.0377 -0.2895  1.8736
12156TIP3   OH257958   1.743   4.279  16.116 -0.4734 -0.5767 -0.2299
12156TIP3    H157959   1.761   4.219  16.043 -0.8945 -1.4866  0.3847
12156TIP3    H257960   1.826   4.323  16.133 -0.6432  0.4695 -1.9741
12157TIP3   OH257961   0.601   3.881   4.967 -0.2662 -0.2123  0.5239
12157TIP3    H157962   0.680   3.842   4.930 -1.6028 -0.6136 -2.1757
12157TIP3    H257963   0.532   3.818   4.947 -1.6538  1.2032  0.6844
12158TIP3   OH257964   4.157   4.614  14.607 -0.1446 -0.0190 -0.5022
12158TIP3    H157965   4.160   4.664  14.688  3.1266  1.1957 -1.2127
12158TIP3    H257966   4.139   4.524  14.634  1.9810  0.1401  1.7642
12159TIP3   OH257967   3.237   0.405   0.776  0.1602  0.1156 -0.2060
12159TIP3    H157968   3.194   0.336   0.726  0.6993  0.1504 -0.7294
12159TIP3    H257969   3.313   0.429   0.724  2.0583 -1.4483  1.6958
12160TIP3   OH257970   2.310   0.483  15.504  0.4631 -0.2027  0.4844
12160TIP3    H157971   2.281   0.559  15.453  0.7174  0.0329  0.6882
12160TIP3    H257972   2.231   0.452  15.548 -0.2742 -1.7307 -1.7116
12161TIP3   OH257973   4.602   5.518  11.163  0.6716 -0.0055  0.6273
12161TIP3    H157974   4.574   5.516  11.255  0.5288  2.1495  0.6950
12161TIP3    H257975   4.520   5.528  11.114  0.8626  0.4002  0.3903
12162TIP3   OH257976   3.522   5.936   1.541 -0.3553 -0.5555 -0.6130
12162TIP3    H157977   3.598   5.923   1.484 -0.7740  0.3513 -1.4134
12162TIP3    H257978   3.467   5.999   1.493 -3.6199 -4.1172 -2.0338
12163TIP3   OH257979   2.337   6.826  13.810  0.3004 -0.3575 -0.6632
12163TIP3    H157980   2.428   6.848  13.830  0.3124 -0.3470 -0.7303
12163TIP3    H257981   2.340   6.785  13.724  0.1719  0.1430 -0.9036
12164TIP3   OH257982   2.031   2.261  13.830 -0.1263  0.3018  0.6951
12164TIP3    H157983   2.056   2.306  13.749 -0.7493 -0.1286  0.2579
12164TIP3    H257984   2.102   2.281  13.891  1.5105 -1.2488 -0.6212
12165TIP3   OH257985   2.715   4.919  16.487  0.0064 -0.0766  0.5996
12165TIP3    H157986   2.740   5.001  16.531  0.1886 -0.1132  0.5644
12165TIP3    H257987   2.793   4.893  16.439 -0.7802  0.9907 -1.3429
12166TIP3   OH257988   2.183   5.582   5.281  0.4934 -0.3554 -0.2858
12166TIP3    H157989   2.130   5.625   5.214  0.3424  1.0753  0.7020
12166TIP3    H257990   2.202   5.495   5.245 -4.0746 -1.7388  0.0201
12167TIP3   OH257991   6.558   5.888  13.614 -0.4262 -0.3073 -0.6925
12167TIP3    H157992   6.478   5.911  13.661  0.1154 -0.9900  0.6024
12167TIP3    H257993   6.589   5.971  13.578 -0.8879  0.2240  0.0931
12168TIP3   OH257994   1.632   0.360  13.454 -0.2582  0.3107 -0.1251
12168TIP3    H157995   1.599   0.271  13.445 -2.1208  0.9819 -0.2137
12168TIP3    H257996   1.591   0.394  13.533  1.4369  0.7045  0.6415
12169TIP3   OH257997   3.052   3.637  13.416  0.1714 -0.4080  0.4425
12169TIP3    H157998   3.113   3.701  13.379  0.0993 -0.1316  0.7958
12169TIP3    H257999   3.047   3.568  13.350  1.1334 -0.5999  0.5612
12170TIP3   OH258000   0.222   1.406   1.450 -0.6264 -0.4477  0.7094
12170TIP3    H158001   0.205   1.393   1.543 -0.3418  0.1088  0.8403
12170TIP3    H258002   0.316   1.389   1.440 -0.6768 -0.6206  0.4992
12171TIP3   OH258003   2.813   3.682  12.750  0.5918 -0.2360  0.3676
12171TIP3    H158004   2.816   3.673  12.655 -1.0684 -2.4511  0.4344
12171TIP3    H258005   2.728   3.723  12.768  1.4534  1.4017  0.8789
12172TIP3   OH258006   5.135   0.820  14.842 -0.1309  0.0487  0.0565
12172TIP3    H158007   5.061   0.855  14.792 -0.2227  0.4856  0.4889
12172TIP3    H258008   5.139   0.727  14.819  0.2045  0.3586 -1.2420
12173TIP3   OH258009   6.330   1.377  11.606  0.4180  0.4133  0.4815
12173TIP3    H158010   6.346   1.305  11.546  0.7360  1.3231 -0.5638
12173TIP3    H258011   6.291   1.336  11.683  0.7462 -0.8838 -0.0134
12174TIP3   OH258012   0.996   2.799  15.029  0.6992 -0.4926 -0.1504
12174TIP3    H158013   0.900   2.803  15.032  0.6515  2.3304 -2.0227
12174TIP3    H258014   1.023   2.819  15.118 -0.4165 -1.3706  0.4233
12175TIP3   OH258015   3.082   0.101  14.789  0.1511  0.2640 -0.1280
12175TIP3    H158016   3.051   0.191  14.797 -0.2415  0.1184  0.0167
12175TIP3    H258017   3.077   0.066  14.879 -0.0376 -0.0083 -0.2421
12176TIP3   OH258018   6.491   3.642   2.965  0.3594  0.3418  0.0349
12176TIP3    H158019   6.491   3.707   2.896 -3.1519 -1.2445 -1.7178
12176TIP3    H258020   6.550   3.573   2.934  0.1662  0.4353 -0.5496
12177TIP3   OH258021   4.159   1.411   5.207 -0.0385  0.2044 -0.7124
12177TIP3    H158022   4.159   1.317   5.221  0.0319  0.2465 -0.4248
12177TIP3    H258023   4.212   1.424   5.128  0.4968  0.0565 -0.3790
12178TIP3   OH258024   3.033   3.913  17.100  0.0483  0.1580  0.2257
12178TIP3    H158025   3.036   3.916  17.196 -0.6857  1.4184  0.2253
12178TIP3    H258026   2.967   3.846  17.081 -0.3403  0.4183  0.6230
12179TIP3   OH258027   3.791   3.417  13.206 -0.0363  0.0576 -0.2912
12179TIP3    H158028   3.700   3.412  13.176 -0.3055 -0.3024  0.5637
12179TIP3    H258029   3.824   3.328  13.198 -0.9497 -0.6961  2.9771
12180TIP3   OH258030   0.589   0.155  13.422 -0.1685  0.5507  0.1800
12180TIP3    H158031   0.634   0.146  13.506  2.3847  0.6141 -1.0854
12180TIP3    H258032   0.501   0.184  13.445 -0.1774 -1.2468  2.9141
12181TIP3   OH258033   6.537   3.355   5.848  0.0997 -0.0510  0.0984
12181TIP3    H158034   6.604   3.298   5.812 -0.2282 -0.9401  0.8658
12181TIP3    H258035   6.586   3.422   5.897  0.4402 -0.5920  0.5072
12182TIP3   OH258036   1.291   5.590  15.194  0.4967  0.2309  0.1926
12182TIP3    H158037   1.326   5.622  15.112 -0.7607 -3.7711 -2.1968
12182TIP3    H258038   1.201   5.623  15.197  0.2507 -0.3577 -0.5452
12183TIP3   OH258039   0.484   0.530   0.382  0.1846 -0.3135  0.0532
12183TIP3    H158040   0.442   0.480   0.452 -1.6754  2.6496  1.2500
12183TIP3    H258041   0.519   0.464   0.323 -1.1613 -2.9665  2.0197
12184TIP3   OH258042   1.587   6.064   0.414 -0.7600 -0.4729  0.2417
12184TIP3    H158043   1.680   6.083   0.408 -0.4622 -1.9791 -0.3434
12184TIP3    H258044   1.566   6.076   0.507  0.0208 -0.1643  0.3857
12185TIP3   OH258045   0.988   5.685   6.220 -0.2317  0.2674  0.8034
12185TIP3    H158046   1.048   5.722   6.156  0.3064  0.4026  1.3720
12185TIP3    H258047   0.938   5.760   6.253 -0.1398  0.2780  0.9199
12186TIP3   OH258048   5.406   1.052  12.403 -0.1195 -0.2276  0.1560
12186TIP3    H158049   5.481   1.108  12.423 -0.0900 -0.9198  2.3283
12186TIP3    H258050   5.330   1.109  12.413 -0.0620 -0.3746  1.8853
12187TIP3   OH258051   4.297   0.023  10.655 -0.0040  0.7125 -0.0447
12187TIP3    H158052   4.258  -0.007  10.574 -0.3735  1.8361 -0.3066
12187TIP3    H258053   4.361   0.090  10.628  1.4649 -0.4391  0.4429
12188TIP3   OH258054   4.040   2.273   6.204 -0.3282 -0.4132  0.1731
12188TIP3    H158055   4.004   2.337   6.265  0.8301 -1.3734  1.9674
12188TIP3    H258056   4.079   2.325   6.134 -3.7149  0.6933 -1.0973
12189TIP3   OH258057   2.504   0.868   4.166 -0.2433 -0.0539 -0.1397
12189TIP3    H158058   2.414   0.876   4.134 -0.4112 -0.5179  0.2131
12189TIP3    H258059   2.557   0.863   4.086 -0.2889  2.5359 -0.4162
12190TIP3   OH258060   0.998   6.667   3.312 -0.4018  0.1267 -0.0795
12190TIP3    H158061   1.051   6.699   3.385  0.1721  1.1688 -0.9438
12190TIP3    H258062   0.956   6.745   3.276 -1.3306 -0.4889 -0.3717
12191TIP3   OH258063   2.707   5.348   4.950 -0.0871  0.1446  0.2042
12191TIP3    H158064   2.647   5.416   4.918  0.9168  0.6415 -0.7275
12191TIP3    H258065   2.662   5.266   4.933 -0.6621  0.5210 -0.1434
12192TIP3   OH258066   1.224   6.703   0.579 -0.4271  0.0563  0.1078
12192TIP3    H158067   1.133   6.699   0.548  0.2238 -1.6539 -1.8618
12192TIP3    H258068   1.227   6.643   0.653 -0.7735 -0.4562 -0.2821
12193TIP3   OH258069   0.856   2.716   1.932 -0.1101  0.1590  0.0249
12193TIP3    H158070   0.776   2.665   1.924  1.3349 -2.2808  0.0020
12193TIP3    H258071   0.867   2.758   1.847 -1.1437  0.2196 -0.0926
12194TIP3   OH258072   4.786   4.638  13.463 -0.2434  0.0856  0.0333
12194TIP3    H158073   4.844   4.623  13.537 -0.1900 -1.0102 -0.2042
12194TIP3    H258074   4.777   4.733  13.457  2.6924  0.3962 -0.8413
12195TIP3   OH258075   6.213   4.813   2.952 -0.0033 -0.2238 -1.0108
12195TIP3    H158076   6.153   4.867   2.899 -0.4916 -1.7443 -2.0670
12195TIP3    H258077   6.206   4.850   3.040 -0.2054  1.5174 -1.7162
12196TIP3   OH258078   3.529   2.659   2.106  0.2684  0.3531 -0.1526
12196TIP3    H158079   3.514   2.707   2.188  1.5171 -0.1855  0.4195
12196TIP3    H258080   3.560   2.573   2.134 -3.3067 -1.4328 -1.0975
12197TIP3   OH258081   5.197   6.418  13.664 -0.4510  0.3926 -0.5709
12197TIP3    H158082   5.230   6.366  13.737 -0.5129  1.3759  0.1863
12197TIP3    H258083   5.161   6.497  13.705  0.8778  1.6817 -1.7462
12198TIP3   OH258084   6.586   1.018   3.502 -0.2313  0.0225  0.0113
12198TIP3    H158085   6.654   1.067   3.549  1.2764  0.2117 -2.2101
12198TIP3    H258086   6.588   0.931   3.541  1.3531  0.0150 -0.0029
12199TIP3   OH258087   4.150   6.279   4.383 -0.5432  0.4090  0.1548
12199TIP3    H158088   4.130   6.197   4.427 -0.8176  0.3189 -0.1354
12199TIP3    H258089   4.145   6.258   4.290  0.2647  0.5421  0.0782
12200TIP3   OH258090   4.232   5.000  11.670  0.4202 -0.1942 -0.0140
12200TIP3    H158091   4.324   5.020  11.688  0.3363  0.5739 -0.3929
12200TIP3    H258092   4.226   4.999  11.575  0.1101 -0.6232  0.0066
12201TIP3   OH258093   0.593   3.236  11.766 -0.4168 -0.8122  0.2410
12201TIP3    H158094   0.664   3.172  11.761  1.0934  0.7622  0.6581
12201TIP3    H258095   0.523   3.189  11.811  0.4113 -2.3673 -0.0158
12202TIP3   OH258096   1.308   3.539   2.000 -0.0775  0.1482 -0.1112
12202TIP3    H158097   1.284   3.454   2.035 -2.2347 -0.3773 -2.5694
12202TIP3    H258098   1.252   3.601   2.047  0.1626 -0.0170  0.3906
12203TIP3   OH258099   3.339   3.817   5.854 -0.3223  0.4321  0.4230
12203TIP3    H158100   3.259   3.863   5.825 -1.1827 -0.6541  0.9928
12203TIP3    H258101   3.373   3.871   5.925 -0.9566  0.5505  0.6489
12204TIP3   OH258102   5.881   0.700   1.046 -0.1447  0.7197  0.3324
12204TIP3    H158103   5.968   0.736   1.030 -0.3985  1.0077 -0.4735
12204TIP3    H258104   5.896   0.616   1.089  0.4658  1.9210  2.6341
12205TIP3   OH258105   3.593   3.916  15.036 -0.8028  0.1068  0.0943
12205TIP3    H158106   3.636   3.990  14.994 -0.8769  0.1256  0.0514
12205TIP3    H258107   3.505   3.913  14.997 -0.3581 -0.8009 -0.8697
12206TIP3   OH258108   2.035   0.011   1.220 -0.1203 -0.0379 -0.4378
12206TIP3    H158109   1.971   0.041   1.285  0.9256  0.8318  0.2144
12206TIP3    H258110   2.032  -0.085   1.226 -0.4229  0.0265  0.5105
12207TIP3   OH258111   4.786   0.053   1.569  0.3380 -0.2534  0.1420
12207TIP3    H158112   4.856   0.061   1.635  2.1961  1.7039 -1.8632
12207TIP3    H258113   4.717   0.111   1.601  2.1736  2.5779 -0.5709
12208TIP3   OH258114   0.259   3.247   3.387 -0.0610 -0.1032 -0.3222
12208TIP3    H158115   0.211   3.328   3.402 -0.3248 -0.2630 -0.2937
12208TIP3    H258116   0.191   3.180   3.377  0.1371 -0.2285 -0.8785
12209TIP3   OH258117   5.762   6.726   5.158 -0.8831  0.2655  0.1137
12209TIP3    H158118   5.835   6.781   5.189 -0.1487 -0.2653 -0.6148
12209TIP3    H258119   5.757   6.655   5.222  0.5806 -0.7866 -0.8645
12210TIP3   OH258120   5.244   2.978  16.666 -0.0975 -0.0155 -0.3208
12210TIP3    H158121   5.325   2.933  16.641  0.1123  0.3219 -0.2484
12210TIP3    H258122   5.248   3.062  16.621 -0.4971 -0.0694 -0.4622
12211TIP3   OH258123   5.681   5.974  16.811  0.1764  0.1262  0.2498
12211TIP3    H158124   5.652   6.024  16.735  0.9009  0.0441 -0.0959
12211TIP3    H258125   5.617   5.903  16.819  0.2894 -0.0732 -0.5113
12212TIP3   OH258126   3.866   5.104  13.635 -0.3700 -0.1035  0.1702
12212TIP3    H158127   3.907   5.159  13.568  2.3071 -2.3232 -0.2176
12212TIP3    H258128   3.779   5.086  13.601  0.2875  0.2880 -1.8834
12213TIP3   OH258129   5.248   2.776  12.563 -0.4654  0.1845 -0.3102
12213TIP3    H158130   5.230   2.863  12.528 -0.3186 -0.0835 -1.0810
12213TIP3    H258131   5.209   2.776  12.651 -0.7082  0.9274 -0.4133
12214TIP3   OH258132   3.802   2.578  15.545 -0.6505 -0.0532 -0.6840
12214TIP3    H158133   3.886   2.623  15.559 -0.2643 -0.5614 -1.3269
12214TIP3    H258134   3.751   2.637  15.491 -0.7548  0.3044 -0.2032
12215TIP3   OH258135   1.651   3.780  10.468  0.3417 -0.0379  0.0692
12215TIP3    H158136   1.738   3.794  10.505  0.5233 -0.7509 -0.0790
12215TIP3    H258137   1.617   3.868  10.454  0.0482  0.2898  2.4124
12216TIP3   OH258138   3.659   3.976   4.504 -0.1031 -0.0929  0.0672
12216TIP3    H158139   3.695   3.927   4.430 -0.8837  1.3596 -1.3533
12216TIP3    H258140   3.577   3.931   4.524 -0.7748  0.5152 -1.1696
12217TIP3   OH258141   3.248   1.486   5.745 -0.6652 -0.0990 -0.4163
12217TIP3    H158142   3.255   1.462   5.837  0.0516 -0.7100 -0.6154
12217TIP3    H258143   3.337   1.511   5.720  0.3234 -4.4195 -2.0934
12218TIP3   OH258144   5.786   4.389  16.218 -0.1175 -0.2974 -0.2846
12218TIP3    H158145   5.881   4.401  16.210 -0.0802  0.1250  0.6598
12218TIP3    H258146   5.766   4.314  16.161  0.8697 -0.7897 -0.0003
12219TIP3   OH258147   0.315   6.101   6.391  0.2940  0.6369  0.1123
12219TIP3    H158148   0.225   6.099   6.424  0.2212 -1.1590 -0.0845
12219TIP3    H258149   0.358   6.169   6.443 -0.8639  0.6677  1.0755
12220TIP3   OH258150   6.336   0.648  13.486  0.3197 -0.0354  0.4805
12220TIP3    H158151   6.250   0.663  13.447  0.3434  0.6114  0.6730
12220TIP3    H258152   6.322   0.659  13.580  0.6917  0.4459  0.4813
12221TIP3   OH258153   2.724   4.343  15.434 -0.0580 -0.2495  0.0414
12221TIP3    H158154   2.691   4.429  15.409  1.0791  0.5735  1.2160
12221TIP3    H258155   2.692   4.284  15.366 -2.6238  0.7123  0.2842
12222TIP3   OH258156   1.359   6.097  16.042  0.2540 -0.0916 -0.6758
12222TIP3    H158157   1.320   6.110  16.128  0.6034 -0.7384 -0.4086
12222TIP3    H258158   1.314   6.021  16.006 -0.3114  0.5430 -1.3240
12223TIP3   OH258159   3.946   2.598  12.947 -0.3796  0.8204 -0.9941
12223TIP3    H158160   3.929   2.518  12.998 -0.6611  0.3558 -1.7849
12223TIP3    H258161   4.016   2.573  12.886  1.2853  1.9155  0.3805
12224TIP3   OH258162   1.457   4.070  17.171 -0.5105  0.3863  0.1087
12224TIP3    H158163   1.382   4.011  17.169 -0.0338 -0.2136 -0.8624
12224TIP3    H258164   1.421   4.156  17.148 -1.1103  0.3857  0.9759
12225TIP3   OH258165   0.926   4.642   2.068  0.7918 -0.3088  0.1427
12225TIP3    H158166   0.833   4.623   2.079  0.3832  0.2026 -1.9743
12225TIP3    H258167   0.970   4.583   2.130 -0.9231 -0.5391  1.2006
12226TIP3   OH258168   2.587   1.729  13.322 -0.2207 -0.1063 -0.1993
12226TIP3    H158169   2.502   1.709  13.283 -0.5794 -0.1335  0.5770
12226TIP3    H258170   2.644   1.746  13.248 -1.8093  3.8246 -0.7366
12227TIP3   OH258171   5.177   5.367   3.139  0.0996  0.2182  0.4226
12227TIP3    H158172   5.187   5.322   3.055 -1.2068  1.7305 -0.6149
12227TIP3    H258173   5.240   5.439   3.135  0.5817 -0.1541  1.0939
12228TIP3   OH258174   3.016   3.039  11.617  0.0323 -0.2342  0.4781
12228TIP3    H158175   3.099   3.080  11.645 -0.5117  1.8662 -0.7368
12228TIP3    H258176   3.017   3.046  11.522 -0.4971 -2.4308  0.2595
12229TIP3   OH258177   2.451   3.948   5.199 -0.1906  0.0942  0.1901
12229TIP3    H158178   2.423   3.947   5.291 -1.2541 -0.1689 -0.1213
12229TIP3    H258179   2.376   3.986   5.152  0.1777 -0.1605 -0.6191
12230TIP3   OH258180   1.211   0.407  12.380 -0.3333 -0.2898  0.4370
12230TIP3    H158181   1.251   0.367  12.302 -2.2742 -0.6473 -0.4384
12230TIP3    H258182   1.166   0.485  12.346  0.4029  0.6489  1.5447
12231TIP3   OH258183   6.576   0.191   5.577 -0.1976  0.1899 -0.3106
12231TIP3    H158184   6.544   0.216   5.491  0.9635  3.0816 -0.0213
12231TIP3    H258185   6.500   0.196   5.634 -0.5633  0.3112 -0.8029
12232TIP3   OH258186   4.712   1.882  15.145  0.0262 -0.1215 -0.6489
12232TIP3    H158187   4.784   1.839  15.192  1.4818  1.3964 -1.3669
12232TIP3    H258188   4.652   1.811  15.123  1.2511 -1.4428  0.0830
12233TIP3   OH258189   0.484   2.457   4.700  0.0658 -0.0848 -0.3333
12233TIP3    H158190   0.452   2.547   4.699 -0.1908 -0.1725 -1.1424
12233TIP3    H258191   0.577   2.464   4.678  0.0983 -0.0015 -0.1700
12234TIP3   OH258192   3.695   5.909   4.658 -0.2980  0.0451 -0.0886
12234TIP3    H158193   3.754   5.983   4.644 -0.1489 -0.4053 -2.3105
12234TIP3    H258194   3.750   5.843   4.701  0.4982  0.0993 -0.9821
12235TIP3   OH258195   3.836   2.548  16.314 -0.3129  0.1195  0.4264
12235TIP3    H158196   3.800   2.464  16.287  0.5982  0.5491 -2.5755
12235TIP3    H258197   3.774   2.582  16.377 -2.0626 -1.6865 -0.2180
12236TIP3   OH258198   6.265   5.243  15.581 -0.0964  0.3969  0.5798
12236TIP3    H158199   6.199   5.184  15.617 -1.9782  1.9763 -0.0873
12236TIP3    H258200   6.347   5.218  15.624 -1.3498 -0.8727  2.3271
12237TIP3   OH258201   5.766   4.100   3.076  0.0091 -0.3737  0.5684
12237TIP3    H158202   5.715   4.134   3.149  1.3152  0.7725  0.9890
12237TIP3    H258203   5.847   4.067   3.117  0.2811 -0.7352 -0.2386
12238TIP3   OH258204   4.756   0.454  11.049 -0.0532 -0.1879 -0.4291
12238TIP3    H158205   4.665   0.452  11.020  0.3896 -0.1894 -1.8851
12238TIP3    H258206   4.805   0.487  10.974  1.4515 -2.3623 -0.5168
12239TIP3   OH258207   0.429   2.703  11.331 -0.3873 -0.5581 -0.6990
12239TIP3    H158208   0.447   2.781  11.383  1.4189 -1.3584 -0.0554
12239TIP3    H258209   0.345   2.721  11.289  0.1298  1.8541 -0.8250
12240TIP3   OH258210   2.097   6.111  16.147  0.2519 -0.0060  1.1811
12240TIP3    H158211   2.190   6.112  16.126 -0.2302 -0.2009 -1.2186
12240TIP3    H258212   2.062   6.189  16.104 -0.5724  0.5909  2.8609
12241TIP3   OH258213   1.847   1.930  15.752  0.5442  0.1632  0.5790
12241TIP3    H158214   1.887   1.885  15.677  0.1630  0.3376  0.2667
12241TIP3    H258215   1.758   1.897  15.755  0.0007  1.4902 -0.1586
12242TIP3   OH258216   6.382   6.648   2.217  0.5418 -0.0364  0.1995
12242TIP3    H158217   6.438   6.684   2.285 -0.3110  2.5890 -0.3290
12242TIP3    H258218   6.405   6.556   2.212 -0.0854 -0.6636  4.7359
12243TIP3   OH258219   5.699   3.476   6.857 -0.0147  0.1940 -0.6930
12243TIP3    H158220   5.680   3.570   6.860 -2.6204 -0.2571 -0.9729
12243TIP3    H258221   5.721   3.452   6.947  2.8264  1.3779 -0.9557
12244TIP3   OH258222   4.965   3.114   5.337 -0.1166  0.5947  0.8579
12244TIP3    H158223   4.979   3.087   5.428  1.9158 -0.7943  0.2115
12244TIP3    H258224   4.964   3.032   5.288 -1.3762  1.3132 -0.3847
12245TIP3   OH258225   2.276   0.689   1.589  0.6577 -0.1819 -0.2481
12245TIP3    H158226   2.301   0.599   1.611  0.7498  0.1231  0.9986
12245TIP3    H258227   2.359   0.736   1.585  0.4747  0.4411  2.0454
12246TIP3   OH258228   5.728   2.266   4.969  1.3125 -0.6230 -0.4136
12246TIP3    H158229   5.773   2.253   5.053 -0.3727 -1.8908  0.3656
12246TIP3    H258230   5.722   2.361   4.959  0.3503 -0.4083  1.6257
12247TIP3   OH258231   5.028   5.062   1.417  0.2693  0.1761  0.2014
12247TIP3    H158232   5.047   5.141   1.469  1.4093 -0.5562  0.9449
12247TIP3    H258233   5.109   5.045   1.368 -1.1374  1.5184 -2.8315
12248TIP3   OH258234   6.733   1.001   5.215 -0.4282 -0.2063  0.0730
12248TIP3    H158235   6.800   1.005   5.283 -1.1353 -1.7230  0.9069
12248TIP3    H258236   6.689   1.086   5.220 -0.2038 -0.1415  1.2271
12249TIP3   OH258237   5.055   5.133  16.004 -0.7317  0.3341  0.4921
12249TIP3    H158238   5.036   5.227  16.005  0.2200  0.5340  1.2906
12249TIP3    H258239   4.969   5.091  16.013 -0.9762  1.1759  2.6187
12250TIP3   OH258240   3.570   5.497  15.523 -0.6988 -0.8213  0.4150
12250TIP3    H158241   3.490   5.481  15.473  0.2165 -0.2033 -1.3722
12250TIP3    H258242   3.567   5.590  15.545 -0.3615 -0.7254  0.0790
12251TIP3   OH258243   5.908   2.043  11.510 -0.2585 -0.5346 -0.1071
12251TIP3    H158244   5.948   1.963  11.474 -0.6448  0.1092 -2.0898
12251TIP3    H258245   5.982   2.096  11.538  0.0136 -1.4487  0.9989
12252TIP3   OH258246   2.091   4.844  13.489  0.0906 -0.0798  0.0721
12252TIP3    H158247   2.087   4.749  13.504  2.5719 -0.1963  0.4514
12252TIP3    H258248   2.154   4.854  13.418  0.1353  1.2967  0.2831
12253TIP3   OH258249   1.575   3.069  16.603  0.1473  0.6430 -0.3970
12253TIP3    H158250   1.543   2.997  16.549 -1.4187 -0.9344  2.4516
12253TIP3    H258251   1.670   3.057  16.605 -0.1373 -2.0565  0.8347
12254TIP3   OH258252   3.409   1.066   0.928  0.1428 -0.6946 -0.2559
12254TIP3    H158253   3.372   0.990   0.884 -0.2298 -0.8550  0.3249
12254TIP3    H258254   3.487   1.032   0.973 -0.3725 -0.8789  0.5221
12255TIP3   OH258255   1.223   1.014   5.534  0.6616  0.0652  0.1712
12255TIP3    H158256   1.197   0.998   5.444  0.3444 -0.4800  0.3556
12255TIP3    H258257   1.141   1.034   5.580  0.6694 -0.7893  0.5711
12256TIP3   OH258258   6.563   1.972   4.964  0.4341 -0.5431  0.4087
12256TIP3    H158259   6.638   1.926   5.003  0.9302 -0.0663  0.0305
12256TIP3    H258260   6.498   1.974   5.034  0.8078 -0.8844  0.7738
12257TIP3   OH258261   3.860   2.079  15.615 -0.5685  0.4665  0.2949
12257TIP3    H158262   3.946   2.037  15.612 -0.7747 -0.0577  1.2271
12257TIP3    H258263   3.874   2.161  15.662 -0.6665  0.1259  0.9311
12258TIP3   OH258264   2.611   3.334  15.243  0.2185 -0.1513 -0.1040
12258TIP3    H158265   2.604   3.429  15.241 -1.4075 -0.2297 -1.9160
12258TIP3    H258266   2.530   3.304  15.286  0.4807 -0.7133  0.0131
12259TIP3   OH258267   1.652   3.667  14.725  0.0947 -0.2583 -0.6976
12259TIP3    H158268   1.614   3.755  14.728 -0.3236 -0.4616  1.0783
12259TIP3    H258269   1.739   3.677  14.764 -0.5665 -0.8574  1.0753
12260TIP3   OH258270   5.490   3.708  17.097 -0.7811 -0.2764  0.1291
12260TIP3    H158271   5.535   3.668  17.171 -0.0493  0.3345  0.0290
12260TIP3    H258272   5.558   3.718  17.030 -0.7888  1.6374  0.3588
12261TIP3   OH258273   6.318   2.222  15.017  0.2240 -0.0845  0.3400
12261TIP3    H158274   6.354   2.168  15.088 -0.3937 -1.1433 -0.1265
12261TIP3    H258275   6.341   2.174  14.937 -0.2165  0.4171 -0.0898
12262TIP3   OH258276   1.164   5.621  16.121 -0.1463 -0.9986  0.4769
12262TIP3    H158277   1.239   5.569  16.093  0.6597  0.6435 -0.5435
12262TIP3    H258278   1.090   5.560  16.114  0.8039 -2.1227 -0.2979
12263TIP3   OH258279   1.923   6.473   2.978 -0.2656  0.4125 -0.6820
12263TIP3    H158280   1.899   6.559   3.013  2.1466  0.6613  0.5818
12263TIP3    H258281   1.946   6.421   3.054 -0.3764 -0.9290 -1.5279
12264TIP3   OH258282   4.742   0.483  11.661  0.0775 -0.1506 -0.0021
12264TIP3    H158283   4.833   0.515  11.668 -0.0287  0.0798  0.4037
12264TIP3    H258284   4.705   0.502  11.747 -0.1758 -0.8093  0.0325
12265TIP3   OH258285   6.494   1.315  14.067 -0.4703  0.0326 -0.4652
12265TIP3    H158286   6.418   1.350  14.021 -2.3951 -3.1424 -0.0453
12265TIP3    H258287   6.510   1.230  14.026  0.7700 -0.8109  1.5891
12266TIP3   OH258288   5.479   2.226   6.112 -0.5045 -0.7960 -0.1595
12266TIP3    H158289   5.501   2.266   6.196  0.6407  1.3903 -1.4218
12266TIP3    H258290   5.525   2.142   6.112  1.9644  0.4943  0.2106
12267TIP3   OH258291   5.321   5.571   5.401 -0.4240  0.5509 -0.0774
12267TIP3    H158292   5.262   5.624   5.348 -0.9161 -1.9580 -2.3070
12267TIP3    H258293   5.380   5.634   5.443 -3.1527  2.9978  0.3742
12268TIP3   OH258294   6.537   0.610   2.412  0.2874  0.0026 -0.0760
12268TIP3    H158295   6.447   0.612   2.444  0.4175 -0.9578  0.3788
12268TIP3    H258296   6.553   0.519   2.390  1.7178 -0.1853  1.5441
12269TIP3   OH258297   5.986   2.826  12.007 -0.6352 -0.5011 -0.4738
12269TIP3    H158298   5.894   2.842  11.987 -0.7523 -0.2190  0.2487
12269TIP3    H258299   5.986   2.751  12.066 -0.5853  0.7810  1.2146
12270TIP3   OH258300   2.697   3.280  17.034 -0.4269  0.5196  0.3136
12270TIP3    H158301   2.641   3.357  17.027 -1.3649 -0.2722 -1.7753
12270TIP3    H258302   2.635   3.207  17.044  0.1440 -0.3743 -2.0591
12271TIP3   OH258303   1.575   3.085  10.691  0.0973 -0.2404  0.7339
12271TIP3    H158304   1.618   3.002  10.710  0.7953 -0.3203 -1.0111
12271TIP3    H258305   1.557   3.082  10.597  1.5312  2.1843  0.3041
12272TIP3   OH258306   2.638   6.722   2.847  0.1420 -0.5775 -0.0047
12272TIP3    H158307   2.581   6.691   2.777  0.1637  0.5676 -0.5573
12272TIP3    H258308   2.592   6.699   2.927 -0.2362 -1.2555 -0.4056
12273TIP3   OH258309   4.411   5.264  15.506  0.1802  0.2198  0.1492
12273TIP3    H158310   4.399   5.203  15.579  0.9684  0.0407  0.1374
12273TIP3    H258311   4.440   5.209  15.433 -0.3159  0.4396 -0.2179
12274TIP3   OH258312   2.925   5.414  12.189  0.8995  0.9817  0.3950
12274TIP3    H158313   2.964   5.410  12.276  2.3742  1.9549 -0.1765
12274TIP3    H258314   2.904   5.323  12.168  4.0150  0.1846  0.3012
12275TIP3   OH258315   2.706   4.462   4.777  0.3324 -0.1088 -0.0010
12275TIP3    H158316   2.630   4.479   4.833  0.2858 -1.1069  0.2589
12275TIP3    H258317   2.683   4.381   4.730  1.5372 -0.8367  0.6297
12276TIP3   OH258318   1.209   4.792   5.956  0.7464  0.2770 -0.1318
12276TIP3    H158319   1.213   4.805   6.050 -1.3487  1.0552 -0.1120
12276TIP3    H258320   1.179   4.702   5.945 -2.3816  1.1792  0.0859
12277TIP3   OH258321   5.601   1.856  13.627 -0.7311  0.1941  0.8080
12277TIP3    H158322   5.556   1.891  13.704 -2.5701 -3.2404  1.5479
12277TIP3    H258323   5.531   1.813  13.577  0.5867  1.4288 -2.3273
12278TIP3   OH258324   1.286   5.587   3.734 -0.6693 -0.2965  0.1909
12278TIP3    H158325   1.219   5.628   3.679  0.2098 -1.7324 -2.0871
12278TIP3    H258326   1.336   5.531   3.674  2.3316  0.3633  1.8587
12279TIP3   OH258327   2.408   4.988   0.356 -0.3253 -0.3227 -0.6698
12279TIP3    H158328   2.454   5.030   0.428  0.9267 -0.6749 -1.2392
12279TIP3    H258329   2.329   4.952   0.395  1.1764 -2.0756  0.9125
12280TIP3   OH258330   3.709   3.489   5.771  0.2534 -0.2735  0.2345
12280TIP3    H158331   3.677   3.449   5.852 -0.8623 -1.9096 -0.9563
12280TIP3    H258332   3.636   3.542   5.740 -0.1369 -1.3472 -0.7581
12281TIP3   OH258333   4.317   3.478  16.604  0.2807  0.1434  0.6043
12281TIP3    H158334   4.239   3.473  16.548  0.6905  1.0105 -0.0848
12281TIP3    H258335   4.348   3.568  16.593  2.1357 -0.5445 -0.1881
12282TIP3   OH258336   4.939   6.809  14.830 -0.1715 -0.7501 -0.0728
12282TIP3    H158337   4.891   6.794  14.748 -0.5763  1.7742 -0.3781
12282TIP3    H258338   4.871   6.821  14.896  0.1081 -0.7834  0.2240
12283TIP3   OH258339   6.600   4.847  17.060  0.3063  0.2651 -0.0352
12283TIP3    H158340   6.664   4.775  17.061  0.5190  0.2996 -3.0575
12283TIP3    H258341   6.515   4.803  17.066  0.4990  0.1143  2.3960
12284TIP3   OH258342   0.329   5.736  15.637 -0.0155 -0.2460  0.0268
12284TIP3    H158343   0.250   5.787  15.623  0.1438 -0.1115 -0.4036
12284TIP3    H258344   0.374   5.780  15.709 -0.9529 -1.0712  1.1437
12285TIP3   OH258345   0.721   1.835   5.323 -0.1508 -0.4118  0.1517
12285TIP3    H158346   0.640   1.791   5.296 -0.4630 -0.8500  1.6883
12285TIP3    H258347   0.695   1.885   5.401  1.3848 -1.8512  1.6542
12286TIP3   OH258348   2.016   2.159  13.273 -0.5583  0.9071  0.1961
12286TIP3    H158349   2.085   2.217  13.306  1.7495 -0.2265 -2.2243
12286TIP3    H258350   1.961   2.215  13.219  0.7802  1.1946 -0.9272
12287TIP3   OH258351   0.936   4.325  14.568 -0.5093  0.0033 -0.4601
12287TIP3    H158352   0.886   4.356  14.643 -2.3523 -0.4667 -1.4255
12287TIP3    H258353   0.907   4.379  14.494  0.6167 -0.1183 -1.0276
12288TIP3   OH258354   1.725   2.247   5.013 -0.0921 -0.0920 -0.1223
12288TIP3    H158355   1.671   2.307   4.962  1.4465  0.4269 -1.2144
12288TIP3    H258356   1.785   2.304   5.062 -0.0284 -0.6760  0.5021
12289TIP3   OH258357   3.011   1.212   4.182  0.0623  0.2561  0.1037
12289TIP3    H158358   3.000   1.306   4.166 -0.3092  0.2448  0.3011
12289TIP3    H258359   3.085   1.187   4.126 -0.6104  0.4184 -0.8795
12290TIP3   OH258360   3.201   5.296   5.813  0.2111 -0.7430 -0.4179
12290TIP3    H158361   3.158   5.330   5.734 -2.8690 -0.7255  1.1185
12290TIP3    H258362   3.195   5.368   5.876  1.7846 -1.0830  0.1612
12291TIP3   OH258363   4.048   6.218   4.118 -0.2198 -0.8481  0.5063
12291TIP3    H158364   3.979   6.160   4.085 -2.0278  0.3770  1.9016
12291TIP3    H258365   4.112   6.221   4.047 -2.4174 -0.7228 -1.6311
12292TIP3   OH258366   3.345   6.455  12.100 -0.3540 -0.4641 -0.0859
12292TIP3    H158367   3.347   6.471  12.006  0.4885 -1.0849 -0.1810
12292TIP3    H258368   3.430   6.416  12.120 -0.1940  0.4351  1.0801
12293TIP3   OH258369   0.315   4.319   1.145 -0.2250 -0.1291  0.8945
12293TIP3    H158370   0.346   4.247   1.091 -0.1572  0.0153  0.7426
12293TIP3    H258371   0.263   4.373   1.086  0.8570  0.6977  0.6721
12294TIP3   OH258372   6.064   5.150  15.750  0.7372 -0.5620  0.0083
12294TIP3    H158373   6.090   5.224  15.805 -2.3324  0.8310 -0.1705
12294TIP3    H258374   5.991   5.110  15.798  1.0796 -2.2912 -0.8377
12295TIP3   OH258375   0.573   6.350   0.230  0.2729  0.1170  0.5486
12295TIP3    H158376   0.623   6.276   0.196  1.0911  1.1297 -0.5305
12295TIP3    H258377   0.482   6.318   0.234  0.3816 -0.5249 -1.2290
12296TIP3   OH258378   1.965   0.827  16.967  0.8533 -0.8169  0.3473
12296TIP3    H158379   2.032   0.855  16.905  0.1256 -0.1549 -0.1620
12296TIP3    H258380   2.014   0.792  17.041  1.8078  1.2046  0.7477
12297TIP3   OH258381   1.380   5.445  16.039 -0.3250  1.0119  0.0749
12297TIP3    H158382   1.389   5.353  16.064 -2.7239  0.8393  0.5968
12297TIP3    H258383   1.392   5.446  15.944 -2.1207 -0.1994 -0.2139
12298TIP3   OH258384   0.519   6.487  17.222  0.0867  0.4862  0.0204
12298TIP3    H158385   0.464   6.468  17.297 -0.9944 -0.9950 -1.0762
12298TIP3    H258386   0.608   6.485  17.256 -0.2675 -1.8707  0.9724
12299TIP3   OH258387   1.318   4.789  16.084 -0.2517 -0.5363 -0.2148
12299TIP3    H158388   1.392   4.751  16.133 -0.8773 -2.6071 -0.7765
12299TIP3    H258389   1.359   4.839  16.014  0.6171 -0.1188  0.5618
12300TIP3   OH258390   3.959   0.849   2.881 -0.1399  0.1253 -0.1699
12300TIP3    H158391   3.931   0.773   2.932 -1.9945  2.0616  1.9465
12300TIP3    H258392   4.051   0.863   2.905 -0.1902 -0.6487  0.4810
12301TIP3   OH258393   4.039   3.921  17.003 -0.3814  0.1458 -0.1874
12301TIP3    H158394   4.054   3.839  16.956 -0.8877  0.9967 -1.9092
12301TIP3    H258395   4.092   3.913  17.083  1.2599 -0.9921 -1.3181
12302TIP3   OH258396   3.851   6.619  13.674  0.1136 -0.9315  0.0869
12302TIP3    H158397   3.930   6.669  13.653 -0.0721 -0.8019 -0.3161
12302TIP3    H258398   3.799   6.622  13.594 -0.8879  0.0959  0.7453
12303TIP3   OH258399   0.110   2.236  12.510  0.1065 -0.5046 -0.4369
12303TIP3    H158400   0.063   2.257  12.429 -0.8293 -2.4403 -0.4482
12303TIP3    H258401   0.053   2.269  12.579 -0.0210 -0.5560 -0.5172
12304TIP3   OH258402   1.692   1.979  15.536  0.0348  0.5716  0.0097
12304TIP3    H158403   1.672   2.062  15.581  1.4961  0.6856  0.4842
12304TIP3    H258404   1.696   2.002  15.444 -2.1618  0.4970 -0.1596
12305TIP3   OH258405   3.493   3.769   0.918 -0.3022 -0.5579  0.1255
12305TIP3    H158406   3.411   3.814   0.938  0.1170  0.0730  0.4483
12305TIP3    H258407   3.507   3.709   0.992 -0.4551 -0.6471  0.0818
12306TIP3   OH258408   1.581   5.098  12.465  0.0592  0.0299 -0.1294
12306TIP3    H158409   1.644   5.104  12.537  0.1398 -0.0247 -0.1953
12306TIP3    H258410   1.575   5.004  12.447 -1.5906 -0.1791  1.2584
12307TIP3   OH258411   0.919   1.606  13.402  0.0958  0.2537  0.4210
12307TIP3    H158412   0.852   1.644  13.459  0.0092 -0.7860  1.0482
12307TIP3    H258413   0.893   1.632  13.314 -1.9422 -1.2391  0.4952
12308TIP3   OH258414   5.933   1.239   3.561  0.2206 -0.0284 -0.2883
12308TIP3    H158415   6.009   1.190   3.532 -0.2807 -0.2624 -1.2285
12308TIP3    H258416   5.961   1.331   3.557  1.1588 -0.1924  1.4762
12309TIP3   OH258417   5.708   1.170   0.556  0.2845  0.4739 -0.5448
12309TIP3    H158418   5.682   1.114   0.629  0.9184 -1.7444 -1.9348
12309TIP3    H258419   5.674   1.257   0.580  2.3312  0.4197  3.4093
12310TIP3   OH258420   6.647   6.187  15.610 -0.5062 -0.5444  0.5026
12310TIP3    H158421   6.697   6.205  15.530 -1.1175 -1.7127 -0.1812
12310TIP3    H258422   6.631   6.273  15.649  0.7073 -0.0390 -0.0722
12311TIP3   OH258423   1.485   0.795   6.011 -0.3207  0.4152  0.4512
12311TIP3    H158424   1.555   0.853   6.040  1.1230 -1.8022  1.7813
12311TIP3    H258425   1.444   0.765   6.093 -2.0195  0.7024 -0.2641
12312TIP3   OH258426   6.178   5.035   5.325  0.6276  0.9172  0.4059
12312TIP3    H158427   6.133   5.112   5.292 -1.7692  0.2902  1.9663
12312TIP3    H258428   6.123   5.003   5.396  1.7487 -1.9906  0.1261
12313TIP3   OH258429   0.129   3.405  15.899 -0.8834 -0.2803  0.1836
12313TIP3    H158430   0.202   3.347  15.921  0.4207  1.2739  0.1124
12313TIP3    H258431   0.108   3.384  15.808  0.4974  0.2818 -0.2843
12314TIP3   OH258432   6.537   0.545  11.847 -0.1982 -0.1755  0.3457
12314TIP3    H158433   6.514   0.466  11.895 -0.5907  0.8203  1.8893
12314TIP3    H258434   6.465   0.606  11.866  0.3397  0.7145 -0.3941
12315TIP3   OH258435   6.005   2.504   3.522  0.2224 -0.5255 -1.2256
12315TIP3    H158436   5.984   2.512   3.429  0.3401  2.4852 -1.1008
12315TIP3    H258437   5.933   2.452   3.558 -1.8801  1.3058 -2.4591
12316TIP3   OH258438   2.862   3.916  14.261 -0.2649 -0.1439 -0.6596
12316TIP3    H158439   2.788   3.963  14.301 -1.1095 -0.0482 -2.2435
12316TIP3    H258440   2.921   3.985  14.231  1.2207 -0.2316  1.8298
12317TIP3   OH258441   6.038   4.520  14.460  0.9813  0.3021 -0.1677
12317TIP3    H158442   6.049   4.566  14.377  0.2981 -0.7009 -0.8421
12317TIP3    H258443   6.077   4.578  14.525 -0.7693  2.3305 -0.8117
12318TIP3   OH258444   1.952   5.326  16.684  0.3962  0.2079  0.0562
12318TIP3    H158445   1.865   5.358  16.707  0.2127 -0.2485  0.0029
12318TIP3    H258446   1.940   5.233  16.665  0.5669  0.5339 -1.7531
12319TIP3   OH258447   1.351   0.078  14.022 -0.1484  0.3797 -0.0450
12319TIP3    H158448   1.374   0.003  14.077  0.8716  1.4251  1.0187
12319TIP3    H258449   1.263   0.059  13.990  1.2747 -2.8576 -2.6003
12320TIP3   OH258450   3.263   0.099   4.076 -0.3823 -0.0593  1.2348
12320TIP3    H158451   3.258   0.185   4.035 -0.7890  0.6816  2.7615
12320TIP3    H258452   3.193   0.099   4.141 -0.9511 -1.8889  0.6624
12321TIP3   OH258453   3.737   1.380  16.745 -0.4264 -0.1015 -0.1696
12321TIP3    H158454   3.665   1.318  16.756 -0.9336  0.2116 -1.6174
12321TIP3    H258455   3.806   1.346  16.803 -1.4534 -0.8085  0.6809
12322TIP3   OH258456   6.602   4.002   4.757 -0.3221 -0.2026  0.1008
12322TIP3    H158457   6.652   4.012   4.677  0.0115 -1.0450  0.1868
12322TIP3    H258458   6.566   4.088   4.775  2.0241  0.7312  0.6566
12323TIP3   OH258459   5.532   6.205   5.385 -0.5730  0.5434  0.1887
12323TIP3    H158460   5.606   6.150   5.414 -1.9829 -0.8968  1.2859
12323TIP3    H258461   5.545   6.214   5.291  0.1484 -1.0647  0.0798
12324TIP3   OH258462   4.578   1.939  11.539  0.0366 -0.4411  0.2789
12324TIP3    H158463   4.535   1.880  11.478  0.4130 -0.2878 -0.1416
12324TIP3    H258464   4.665   1.953  11.501 -1.2320  3.4195 -1.7346
12325TIP3   OH258465   2.434   6.387  12.224 -0.6974  0.8772 -0.6829
12325TIP3    H158466   2.459   6.474  12.257 -3.5887  0.6484  2.7194
12325TIP3    H258467   2.338   6.389  12.222 -0.8082 -1.4037 -3.2488
12326TIP3   OH258468   2.316   4.317  14.716 -0.3856  0.3190 -0.0418
12326TIP3    H158469   2.377   4.263  14.665 -1.2302 -0.1809 -0.5466
12326TIP3    H258470   2.367   4.394  14.740  1.0956 -1.0297  1.3568
12327TIP3   OH258471   6.657   4.170  11.922  0.2409 -0.1792 -0.1554
12327TIP3    H158472   6.568   4.138  11.933  0.0641  0.3538 -0.0057
12327TIP3    H258473   6.670   4.233  11.993  1.0432 -0.8979  0.3546
12328TIP3   OH258474   0.778   1.836  14.562 -0.0298 -0.0503 -0.0128
12328TIP3    H158475   0.865   1.834  14.602 -0.1296 -1.8254  0.1864
12328TIP3    H258476   0.775   1.920  14.516  1.8283 -0.0025 -0.1297
12329TIP3   OH258477   6.115   3.102  13.661 -0.2874  0.3684  0.0178
12329TIP3    H158478   6.174   3.083  13.734  2.1212  1.9195 -1.3695
12329TIP3    H258479   6.032   3.125  13.703 -0.0406 -2.0367  2.0653
12330TIP3   OH258480   6.044   3.279  12.381  0.4569 -0.3229  0.2930
12330TIP3    H158481   6.084   3.305  12.298  0.9203  0.4746  0.7613
12330TIP3    H258482   6.016   3.361  12.422  0.3716 -0.6952  0.9985
12331TIP3   OH258483   2.425   6.690   3.133  0.1958  0.6456  0.4301
12331TIP3    H158484   2.332   6.667   3.129  0.3987 -0.4429  1.3646
12331TIP3    H258485   2.426   6.785   3.140 -0.8226  0.7203 -0.1862
12332TIP3   OH258486   5.266   4.781  11.223 -0.1352 -0.4337  0.5086
12332TIP3    H158487   5.218   4.754  11.301 -1.9136  2.9623  0.7810
12332TIP3    H258488   5.233   4.724  11.154 -2.4829 -0.1452  1.2820
12333TIP3   OH258489   1.963   5.301   1.143  0.0299  0.1165 -0.2930
12333TIP3    H158490   1.932   5.386   1.112 -2.3378 -0.7413 -0.4495
12333TIP3    H258491   2.027   5.323   1.211 -2.6303  2.1524  1.8108
12334TIP3   OH258492   2.502   4.092   3.023 -0.0016 -0.5754 -0.0402
12334TIP3    H158493   2.408   4.079   3.014 -0.1017  1.0264 -2.2540
12334TIP3    H258494   2.511   4.173   3.073  0.1185  0.0506 -1.0396
12335TIP3   OH258495   4.375   6.545   4.054  0.0151  0.2015 -0.1539
12335TIP3    H158496   4.415   6.583   3.976  1.2803  0.8319  0.7642
12335TIP3    H258497   4.444   6.548   4.120 -1.1958  0.2307  1.1612
12336TIP3   OH258498   5.468   5.925  14.571 -0.0669  0.0090 -0.9578
12336TIP3    H158499   5.391   5.925  14.628  0.4279 -0.3148 -0.2604
12336TIP3    H258500   5.526   5.860  14.611  1.3836  1.6139 -0.3351
12337TIP3   OH258501   3.209   4.127   5.459  0.3382 -0.7137 -0.1066
12337TIP3    H158502   3.184   4.074   5.383  0.8557 -0.4230 -0.4908
12337TIP3    H258503   3.194   4.071   5.534  1.3162 -1.5828 -0.5343
12338TIP3   OH258504   2.159   5.723   1.000 -0.3196  0.0667  0.2894
12338TIP3    H158505   2.095   5.792   0.984 -0.0711  0.4966  1.0618
12338TIP3    H258506   2.197   5.705   0.914 -0.7711  0.5135 -0.0084
12339TIP3   OH258507   6.024   5.398   5.749  0.1337  0.0293  0.3244
12339TIP3    H158508   5.940   5.375   5.788  0.7212 -1.7367  0.6602
12339TIP3    H258509   6.037   5.490   5.771 -1.4758  0.1916  0.6844
12340TIP3   OH258510   1.202   0.456  17.022  0.5310  0.3507 -0.1749
12340TIP3    H158511   1.186   0.460  17.116  2.3098 -0.2187  0.1946
12340TIP3    H258512   1.151   0.529  16.986  3.6010  3.8880  1.8432
12341TIP3   OH258513   2.573   2.923  15.210  0.2203 -0.5129 -0.1943
12341TIP3    H158514   2.665   2.900  15.222  0.3361 -1.0966 -2.0046
12341TIP3    H258515   2.574   2.994  15.146 -0.5672 -0.0219  0.3100
12342TIP3   OH258516   2.589   3.771  11.850 -0.9358  0.1766  0.0052
12342TIP3    H158517   2.543   3.688  11.860 -0.4665  0.0575  1.3877
12342TIP3    H258518   2.527   3.838  11.880 -0.8780  0.1974  0.0804
12343TIP3   OH258519   5.473   5.309  13.137  0.4763  0.6387 -0.2119
12343TIP3    H158520   5.427   5.237  13.094  0.6810  0.8573 -0.8079
12343TIP3    H258521   5.502   5.273  13.221 -1.8387  0.8571  0.7480
12344TIP3   OH258522   4.666   0.147   4.852 -0.2595 -0.3262  0.0187
12344TIP3    H158523   4.646   0.240   4.862  2.1612  0.1041  2.0182
12344TIP3    H258524   4.599   0.103   4.903 -1.6769  0.2351 -1.2792
12345TIP3   OH258525   6.246   2.878   4.180  0.2952 -0.3205 -0.6035
12345TIP3    H158526   6.268   2.867   4.087 -3.6313 -0.6774 -1.6450
12345TIP3    H258527   6.220   2.791   4.209 -1.9772  0.3967 -0.2835
12346TIP3   OH258528   3.191   6.030  11.349  0.2335 -0.3150  0.2203
12346TIP3    H158529   3.280   5.997  11.351  0.8657  1.3197  0.9799
12346TIP3    H258530   3.199   6.120  11.316 -1.0967 -0.0569  0.5281
12347TIP3   OH258531   5.231   3.052   1.855  0.6151 -0.2612  0.5387
12347TIP3    H158532   5.315   3.082   1.820  0.0674  0.7523  0.0417
12347TIP3    H258533   5.166   3.106   1.810 -0.3485 -1.3994  0.5213
12348TIP3   OH258534   0.105   4.693   0.410 -0.3798  0.0248 -0.4159
12348TIP3    H158535   0.120   4.778   0.451 -1.4610 -0.4601  1.0427
12348TIP3    H258536   0.132   4.629   0.476 -0.0976 -0.7865 -1.2869
12349TIP3   OH258537   0.749   4.978  11.270  0.4298 -0.0702  0.4781
12349TIP3    H158538   0.716   4.893  11.241  0.9537  0.0625 -0.5533
12349TIP3    H258539   0.670   5.028  11.290  0.0554 -0.3566 -0.2283
12350TIP3   OH258540   2.028   2.652   4.922 -0.2110 -0.6593 -0.1984
12350TIP3    H158541   2.024   2.558   4.943  1.8651 -0.6188  0.7181
12350TIP3    H258542   2.052   2.693   5.005  0.6291  0.4724 -0.9722
12351TIP3   OH258543   4.051   5.038   1.529  0.2471 -0.5218  0.1683
12351TIP3    H158544   3.956   5.030   1.532  0.1923 -0.8918 -1.5928
12351TIP3    H258545   4.068   5.132   1.538 -0.4907 -0.0924 -2.1347
12352TIP3   OH258546   2.855   4.693  12.975 -0.8548 -0.1866  0.2328
12352TIP3    H158547   2.913   4.698  12.900  0.1671  0.1961  1.0199
12352TIP3    H258548   2.828   4.784  12.991  1.8059  0.3400  2.4547
12353TIP3   OH258549   4.879   6.340  11.688  0.0026  0.8581 -0.4773
12353TIP3    H158550   4.923   6.392  11.755 -0.0430  1.0200 -0.5741
12353TIP3    H258551   4.835   6.404  11.633 -1.5758  0.6292  0.4747
12354TIP3   OH258552   2.144   6.633   0.089  0.5046 -0.0047  0.4798
12354TIP3    H158553   2.101   6.677   0.163  1.7615 -0.3611  1.4558
12354TIP3    H258554   2.100   6.548   0.083 -1.4055  0.9867 -0.9244
12355TIP3   OH258555   1.888   1.020   3.366 -0.6610 -0.3703 -0.0481
12355TIP3    H158556   1.940   0.943   3.345 -0.7579 -0.2020 -0.9484
12355TIP3    H258557   1.815   0.987   3.419  0.4509 -0.5772  1.4116
12356TIP3   OH258558   5.270   2.147  11.609  0.0881 -0.5503  0.2693
12356TIP3    H158559   5.204   2.089  11.647  0.4684 -1.4757 -0.4519
12356TIP3    H258560   5.348   2.135  11.664 -0.8427  2.0757  2.4163
12357TIP3   OH258561   2.844   1.331  15.537  0.1820  0.2169 -0.5010
12357TIP3    H158562   2.904   1.257  15.534  0.4713  0.4777 -1.3295
12357TIP3    H258563   2.759   1.292  15.557  0.5026 -0.2236  0.0395
12358TIP3   OH258564   5.113   1.973  12.228 -0.0668 -0.5100  0.0002
12358TIP3    H158565   5.105   1.960  12.323  2.5130 -1.2266  0.1981
12358TIP3    H258566   5.052   1.910  12.190  1.0337 -2.3806  1.1972
12359TIP3   OH258567   4.576   4.432  15.183  0.2173 -0.1320  0.3377
12359TIP3    H158568   4.575   4.439  15.278  1.5625 -1.6501  0.5030
12359TIP3    H258569   4.667   4.447  15.158 -0.0934  0.1333 -0.7027
12360TIP3   OH258570   2.086   4.016  11.134  0.9923 -0.1242  0.1663
12360TIP3    H158571   2.044   4.085  11.083  1.2574 -0.7445 -0.9244
12360TIP3    H258572   2.180   4.026  11.115  0.9211 -1.6375 -1.1133
12361TIP3   OH258573   6.656   4.381   2.401  0.4497  0.1534  0.2989
12361TIP3    H158574   6.684   4.305   2.351  1.3602  0.9457 -0.4345
12361TIP3    H258575   6.734   4.437   2.406 -0.4717  1.5216 -0.1079
12362TIP3   OH258576   3.043   3.796   0.091 -0.0095 -0.0541  0.0474
12362TIP3    H158577   3.019   3.887   0.071 -0.3696  0.2640  1.7163
12362TIP3    H258578   3.095   3.802   0.171 -0.9028 -1.3699  0.7813
12363TIP3   OH258579   1.664   0.594  11.928  0.3515 -0.0469  0.0252
12363TIP3    H158580   1.660   0.678  11.882  0.1991 -1.3082 -2.4474
12363TIP3    H258581   1.621   0.610  12.011 -1.8617  1.7597 -1.3470
12364TIP3   OH258582   0.432   4.759   3.637 -0.1702  0.1320 -0.0699
12364TIP3    H158583   0.514   4.708   3.640  1.1550  2.1724 -0.0068
12364TIP3    H258584   0.363   4.692   3.635  1.4891 -1.6756 -0.7327
12365TIP3   OH258585   0.085   2.099  15.098 -0.0363 -0.3328  0.1429
12365TIP3    H158586   0.028   2.104  15.175  0.5192  0.5817  0.5055
12365TIP3    H258587   0.156   2.041  15.126 -0.8017 -1.5374 -0.3365
12366TIP3   OH258588   0.395   0.740  12.125  0.5051 -0.6012  0.3936
12366TIP3    H158589   0.476   0.755  12.174 -0.7233  2.1528  1.7565
12366TIP3    H258590   0.372   0.649  12.145  2.0340 -0.7106  1.8645
12367TIP3   OH258591   6.229   4.341   0.168  0.0575  0.2629 -0.0599
12367TIP3    H158592   6.135   4.329   0.179  0.0014  0.7207 -0.0342
12367TIP3    H258593   6.253   4.282   0.097  0.0192 -0.9882  0.9159
12368TIP3   OH258594   6.503   1.491   2.443  0.3120 -0.9171 -0.3606
12368TIP3    H158595   6.482   1.480   2.350  1.9491 -0.6133 -0.8037
12368TIP3    H258596   6.436   1.440   2.489  0.1666 -2.0605 -1.7706
12369TIP3   OH258597   5.297   5.475   0.151 -0.6314 -0.0695  0.5714
12369TIP3    H158598   5.321   5.519   0.070 -4.1533 -0.7382 -1.0164
12369TIP3    H258599   5.335   5.387   0.143  0.2334  0.3136  0.3588
12370TIP3   OH258600   2.265   3.339   3.637  0.4838  0.0012 -0.1822
12370TIP3    H158601   2.174   3.355   3.662  0.4272  0.1194 -0.4581
12370TIP3    H258602   2.278   3.245   3.649  0.3527 -0.0007 -0.0547
12371TIP3   OH258603   5.596   5.141   3.868  0.5900  0.3506 -0.0148
12371TIP3    H158604   5.543   5.113   3.793  1.4925 -0.2526 -0.4438
12371TIP3    H258605   5.550   5.218   3.902 -0.2020  0.2322 -0.7699
12372TIP3   OH258606   6.593   5.023   3.682 -0.5717 -0.0793  0.1700
12372TIP3    H158607   6.525   5.011   3.748  1.2410 -1.4658  1.9096
12372TIP3    H258608   6.573   5.107   3.642 -1.9063  0.7164  2.3187
12373TIP3   OH258609   0.580   5.472  15.188  0.5939  0.0549 -0.3963
12373TIP3    H158610   0.642   5.405  15.158 -0.0998 -0.2046 -1.2880
12373TIP3    H258611   0.620   5.555  15.160 -0.1137 -0.1813 -2.2916
12374TIP3   OH258612   6.207   0.797   4.947 -0.4615  0.2021 -0.1380
12374TIP3    H158613   6.213   0.786   5.042 -2.3207  1.3882  0.1668
12374TIP3    H258614   6.246   0.717   4.911 -0.4366 -0.6253  1.6182
12375TIP3   OH258615   5.633   2.729   1.972  0.4175 -0.4845 -0.1714
12375TIP3    H158616   5.696   2.743   1.901  0.7956 -1.3780 -0.0247
12375TIP3    H258617   5.561   2.681   1.931  0.3831 -0.5168 -0.0744
12376TIP3   OH258618   4.623   4.524   5.469  0.1745 -0.5619  0.1954
12376TIP3    H158619   4.669   4.475   5.401  0.9925  0.2987  0.1111
12376TIP3    H258620   4.684   4.527   5.542  0.3843  0.8389 -0.0223
12377TIP3   OH258621   6.012   3.654  12.850 -0.0803  0.1407  0.0843
12377TIP3    H158622   6.084   3.656  12.786 -0.7297 -3.1283 -0.9345
12377TIP3    H258623   6.043   3.596  12.919  0.0596  2.5634  2.2196
12378TIP3   OH258624   5.442   1.981   5.698  0.4233  0.3719  0.0468
12378TIP3    H158625   5.415   2.062   5.740 -1.1940 -0.0729 -0.0695
12378TIP3    H258626   5.367   1.922   5.708  1.2691 -0.8629 -0.5303
12379TIP3   OH258627   2.365   2.954   5.207 -0.0681 -0.2578  0.6961
12379TIP3    H158628   2.443   3.005   5.227  1.2190 -2.2383  1.0068
12379TIP3    H258629   2.355   2.895   5.282 -0.5543 -1.5324 -0.3335
12380TIP3   OH258630   3.905   0.015  12.754  0.0063  0.1809  0.4274
12380TIP3    H158631   3.936  -0.053  12.694  0.9689  0.0181  1.0839
12380TIP3    H258632   3.966   0.011  12.828  1.4094  3.2065 -0.4524
12381TIP3   OH258633   3.146   6.707   3.689 -0.4397 -0.0755 -0.0491
12381TIP3    H158634   3.158   6.699   3.784 -1.4390  2.8258  0.4178
12381TIP3    H258635   3.234   6.694   3.653 -0.2207 -2.2643  1.1328
12382TIP3   OH258636   2.284   0.009  16.526 -0.8622  0.6096  0.6509
12382TIP3    H158637   2.243  -0.077  16.531 -0.1020  0.2907  1.7770
12382TIP3    H258638   2.307   0.020  16.434 -0.8050 -0.4689  0.5290
12383TIP3   OH258639   1.549   3.401   3.691  0.7531 -0.1174 -0.3082
12383TIP3    H158640   1.559   3.427   3.599  1.5189  0.6640 -0.0155
12383TIP3    H258641   1.454   3.395   3.703  0.5821  1.3046 -0.7438
12384TIP3   OH258642   6.035   6.286   3.253 -0.5907 -0.2740 -0.4229
12384TIP3    H158643   5.958   6.265   3.201 -0.2494  0.2558 -1.1478
12384TIP3    H258644   6.008   6.362   3.306 -1.0892 -1.0964  0.5477
12385TIP3   OH258645   5.225   1.592  12.479 -0.2881 -0.4182  0.5391
12385TIP3    H158646   5.273   1.609  12.398  0.8530  0.3631  1.3485
12385TIP3    H258647   5.203   1.679  12.512 -1.1324 -0.7440  0.8570
12386TIP3   OH258648   3.264   1.167   3.315  0.4067 -0.4503  0.1403
12386TIP3    H158649   3.268   1.107   3.390 -1.0104  1.2365  1.6605
12386TIP3    H258650   3.338   1.225   3.328  1.6321 -1.6387 -1.1980
12387TIP3   OH258651   5.768   4.457   4.292  0.0561  0.1953  0.0805
12387TIP3    H158652   5.855   4.475   4.327  0.2721 -1.0464  0.2222
12387TIP3    H258653   5.719   4.420   4.366 -0.1848 -0.3215 -0.3311
12388TIP3   OH258654   6.190   5.469   2.266  0.9673 -0.1530 -0.1340
12388TIP3    H158655   6.140   5.480   2.347  0.0719  1.6464 -0.8689
12388TIP3    H258656   6.225   5.381   2.271  1.9388  0.3080  2.7471
12389TIP3   OH258657   3.592   3.590  16.107 -0.1920  0.0731  0.0663
12389TIP3    H158658   3.533   3.565  16.036 -0.6566 -0.0951  0.5117
12389TIP3    H258659   3.576   3.526  16.176  0.5291  0.0110  0.1852
12390TIP3   OH258660   5.450   5.337   4.865  0.6099  0.2583 -0.0597
12390TIP3    H158661   5.379   5.333   4.801  0.8555  1.5395 -0.4475
12390TIP3    H258662   5.413   5.387   4.938  1.0880  0.8967 -0.2476
12391TIP3   OH258663   5.232   4.009   3.759 -0.6106 -0.2216  0.2207
12391TIP3    H158664   5.316   4.006   3.714 -1.0978  1.7258 -0.9151
12391TIP3    H258665   5.252   3.988   3.850  1.0252 -0.1635 -0.1069
12392TIP3   OH258666   4.610   5.344   4.960  0.1004 -0.3073  0.5081
12392TIP3    H158667   4.517   5.334   4.937  0.0624 -0.9758  0.9244
12392TIP3    H258668   4.648   5.258   4.942  0.2757 -0.5667  1.9848
12393TIP3   OH258669   3.432   4.438  14.320  0.4366  0.1800  0.0316
12393TIP3    H158670   3.359   4.384  14.350  1.4791 -0.9711  0.5791
12393TIP3    H258671   3.463   4.483  14.399  1.4407 -0.7352  0.1862
12394TIP3   OH258672   1.549   1.917   6.062  0.7198  0.5451  0.8859
12394TIP3    H158673   1.643   1.902   6.050  0.1889 -2.1518 -0.8873
12394TIP3    H258674   1.539   1.927   6.157  2.8330  1.6462  1.0617
12395TIP3   OH258675   1.337   5.760  12.509  0.9178 -0.1758  0.1407
12395TIP3    H158676   1.281   5.797  12.440  0.4372 -2.0777 -0.5705
12395TIP3    H258677   1.303   5.671  12.521  0.3689  0.3386  3.5241
12396TIP3   OH258678   4.753   4.908  13.948 -0.6259  0.2064 -0.4416
12396TIP3    H158679   4.690   4.973  13.980 -1.0695  0.5698 -1.9777
12396TIP3    H258680   4.806   4.886  14.025  0.8448  3.8402 -0.2334
12397TIP3   OH258681   5.843   4.072  13.577  1.0578  0.1669 -0.1142
12397TIP3    H158682   5.844   3.977  13.565 -0.5188  0.4097 -3.0590
12397TIP3    H258683   5.752   4.098  13.561  1.5146  2.2070  0.2466
12398TIP3   OH258684   6.431   4.014  15.428  0.1143 -0.4522 -0.7784
12398TIP3    H158685   6.459   4.084  15.487  0.6463  0.0556 -1.6279
12398TIP3    H258686   6.496   4.013  15.358 -0.7797 -0.7217 -1.6297
12399TIP3   OH258687   6.141   2.667  14.106 -0.7118 -0.6819 -0.0268
12399TIP3    H158688   6.135   2.753  14.148 -0.3617 -1.2066  1.1301
12399TIP3    H258689   6.199   2.681  14.031 -0.3219  0.0012  0.3884
12400TIP3   OH258690   4.673   2.194  12.336  0.3423  0.1292  0.2369
12400TIP3    H158691   4.584   2.213  12.305  0.0254  0.3872  1.2681
12400TIP3    H258692   4.670   2.214  12.429  0.7377 -2.4186  0.8656
12401TIP3   OH258693   2.586   4.376   1.922  0.3625 -0.1942  0.1179
12401TIP3    H158694   2.651   4.417   1.979  1.2049 -0.6943 -0.4573
12401TIP3    H258695   2.518   4.443   1.912  1.2071  0.6830  0.0197
12402TIP3   OH258696   4.374   4.443   5.611  0.9946 -0.3544  0.0297
12402TIP3    H158697   4.369   4.347   5.615 -0.2492 -0.3576 -1.0322
12402TIP3    H258698   4.468   4.462   5.619  1.1072 -1.5201  2.2501
12403TIP3   OH258699   0.254   2.129  13.698 -0.0432 -0.1354  0.4224
12403TIP3    H158700   0.273   2.115  13.606 -2.1051 -2.6093  0.2760
12403TIP3    H258701   0.159   2.131  13.704  0.0353  1.2867  2.3686
12404TIP3   OH258702   1.012   3.014  12.772  0.1071 -0.0680 -0.3441
12404TIP3    H158703   1.104   3.017  12.797  0.2628  0.8931 -0.9748
12404TIP3    H258704   1.012   3.033  12.678 -0.8111  0.9118 -0.1634
12405TIP3   OH258705   0.843   5.946   3.083  0.1181  0.1807 -0.5386
12405TIP3    H158706   0.905   5.997   3.031  0.9835 -1.2097 -0.9150
12405TIP3    H258707   0.895   5.874   3.119 -0.7694  0.3127  1.1100
12406TIP3   OH258708   2.165   5.563   0.571  0.3372 -0.0500 -0.2280
12406TIP3    H158709   2.137   5.504   0.501  1.0811 -0.5393 -0.1234
12406TIP3    H258710   2.126   5.527   0.651  0.2763 -0.0403 -0.2535
12407TIP3   OH258711   2.171   4.891  14.404 -0.4872  0.5318 -0.5895
12407TIP3    H158712   2.083   4.900  14.369  0.5827  0.5812 -3.5597
12407TIP3    H258713   2.181   4.798  14.423 -1.5834  0.7284  1.0895
12408TIP3   OH258714   4.580   3.694  16.333  0.3929 -0.1628 -0.4156
12408TIP3    H158715   4.587   3.718  16.426 -0.5410  1.2137 -0.6710
12408TIP3    H258716   4.619   3.768  16.287 -1.5177  0.3963 -1.2055
12409TIP3   OH258717   4.152   1.240  14.387 -0.0188  0.5535  0.3871
12409TIP3    H158718   4.130   1.330  14.413 -1.2306  0.6209 -0.7879
12409TIP3    H258719   4.215   1.250  14.316  3.9840  0.3624  3.5305
12410TIP3   OH258720   5.229   2.842  13.893  0.2034  0.5452  0.3495
12410TIP3    H158721   5.197   2.890  13.968 -1.8987 -0.3660  0.1039
12410TIP3    H258722   5.315   2.881  13.874 -0.8951  3.4052  0.8000
12411TIP3   OH258723   6.171   3.877  13.006  0.2980 -0.3198  0.1989
12411TIP3    H158724   6.189   3.933  13.082 -0.0903  0.2475 -0.1131
12411TIP3    H258725   6.092   3.916  12.967  0.7591 -0.3256 -0.7587
12412TIP3   OH258726   2.615   2.856   5.772  0.0073 -0.5703  0.2251
12412TIP3    H158727   2.649   2.904   5.848  1.2745 -1.2199  0.0856
12412TIP3    H258728   2.594   2.924   5.708  1.3441 -0.1488  0.2091
12413TIP3   OH258729   6.583   0.797   5.145  0.2050  0.3869 -0.1925
12413TIP3    H158730   6.639   0.869   5.175  0.6951  0.0209 -0.2074
12413TIP3    H258731   6.535   0.833   5.071  1.2886  0.3584 -0.9330
12414TIP3   OH258732   5.158   4.702  12.310  1.0456  0.3858 -0.3438
12414TIP3    H158733   5.114   4.725  12.393  0.3754  0.7040 -0.7761
12414TIP3    H258734   5.201   4.619  12.329  1.0641  0.5493  0.3868
12415TIP3   OH258735   3.451   3.373  12.452  0.0698 -0.2414  0.2911
12415TIP3    H158736   3.488   3.285  12.451 -1.5059 -0.9445 -1.1376
12415TIP3    H258737   3.492   3.417  12.378  2.0919  0.8509  1.9494
12416TIP3   OH258738   3.491   3.050   2.509  0.4570 -0.2302 -0.2546
12416TIP3    H158739   3.577   3.080   2.479 -0.6171  3.9986  0.3487
12416TIP3    H258740   3.428   3.097   2.454 -1.4908 -0.9002  1.2900
12417TIP3   OH258741   1.788   5.820   2.219  0.0942 -0.5584  0.1325
12417TIP3    H158742   1.699   5.819   2.182 -0.0589 -0.9336  0.5048
12417TIP3    H258743   1.844   5.840   2.144 -0.4784  2.1762  0.3370
12418TIP3   OH258744   4.163   4.590   0.771 -0.4434  0.1797  0.0800
12418TIP3    H158745   4.212   4.628   0.843 -0.3089 -0.7036  0.4726
12418TIP3    H258746   4.229   4.569   0.705 -0.1748 -1.4964  0.8232
12419TIP3   OH258747   6.100   1.958  17.167 -0.1642  0.2071 -0.1177
12419TIP3    H158748   6.036   2.023  17.137  0.5046  1.2881  0.7183
12419TIP3    H258749   6.183   1.988  17.130 -0.1178 -1.2560 -1.3087
12420TIP3   OH258750   3.262   6.660   3.970 -0.1791 -0.1762 -0.5370
12420TIP3    H158751   3.267   6.755   3.986 -0.7225 -0.1779 -0.3209
12420TIP3    H258752   3.225   6.625   4.051  2.6470 -0.9292  0.5243
12421TIP3   OH258753   1.755   6.314   5.381  0.0489  0.2188  0.6449
12421TIP3    H158754   1.825   6.285   5.440  0.8858 -1.1567 -0.9546
12421TIP3    H258755   1.682   6.255   5.401 -0.1908  0.7447  1.3447
12422TIP3   OH258756   5.744   1.541   4.795 -0.3749  0.3554 -0.0417
12422TIP3    H158757   5.677   1.609   4.791 -1.2199 -0.4367  0.3056
12422TIP3    H258758   5.695   1.459   4.789  0.5046 -0.2604  0.9281
12423TIP3   OH258759   6.668   1.991  11.448  0.2847  0.4204 -0.1074
12423TIP3    H158760   6.706   1.904  11.447 -0.4758  0.0673 -1.5062
12423TIP3    H258761   6.683   2.024  11.537  3.3723  0.1373 -0.4418
12424TIP3   OH258762   2.989   6.447   3.586  0.1897  0.0504 -0.0086
12424TIP3    H158763   3.000   6.409   3.499 -0.2471  0.2786 -0.1622
12424TIP3    H258764   3.066   6.503   3.598 -0.2237  0.7729 -0.6421
12425TIP3   OH258765   1.986   2.210  16.667 -0.3231 -0.0084 -0.1130
12425TIP3    H158766   1.940   2.162  16.598  0.3230 -0.7032 -0.0634
12425TIP3    H258767   2.016   2.143  16.728  3.2447  0.0708 -1.5798
12426TIP3   OH258768   5.464   5.625  12.210  0.0824 -0.3635  0.7434
12426TIP3    H158769   5.380   5.579  12.217  0.9517 -1.8398  2.0489
12426TIP3    H258770   5.487   5.646  12.301  1.5645 -0.7930  0.4848
12427TIP3   OH258771   5.927   5.823  14.055 -0.2763  0.0246  0.5784
12427TIP3    H158772   5.937   5.914  14.083  0.6148  0.0162  0.3361
12427TIP3    H258773   5.859   5.787  14.112 -2.4295  1.4911 -0.9482
12428TIP3   OH258774   2.425   4.688   5.566 -0.0064 -0.6853 -0.2000
12428TIP3    H158775   2.452   4.690   5.657  0.7255  1.2576 -0.3985
12428TIP3    H258776   2.504   4.662   5.518  0.0980 -0.0467 -0.3883
12429TIP3   OH258777   6.581   0.591  13.366 -0.0418 -0.2906 -0.1014
12429TIP3    H158778   6.493   0.608  13.399 -0.7152 -3.0324 -0.2955
12429TIP3    H258779   6.621   0.535  13.432  0.9233 -0.5435 -0.8838
12430TIP3   OH258780   6.748   2.134   4.791 -0.5155  0.0702 -0.1652
12430TIP3    H158781   6.839   2.124   4.821 -0.3001  0.7916 -0.5598
12430TIP3    H258782   6.697   2.079   4.851 -0.0465  1.1722  1.2909
12431TIP3   OH258783   3.310   3.247  15.748 -0.0648  0.1569 -0.0839
12431TIP3    H158784   3.265   3.281  15.671 -3.2678 -4.7366 -0.7903
12431TIP3    H258785   3.245   3.251  15.818  0.5239 -1.3624  0.5986
12432TIP3   OH258786   2.969   0.098  15.439 -0.1584 -0.3621  0.5511
12432TIP3    H158787   2.929   0.011  15.440 -0.5904 -0.1661  1.2707
12432TIP3    H258788   2.896   0.158  15.453  0.5041 -0.0800  3.6562
12433TIP3   OH258789   1.349   5.037  13.679 -0.2497  0.8689 -0.2622
12433TIP3    H158790   1.439   5.068  13.693 -0.1950  0.0335  1.5708
12433TIP3    H258791   1.358   4.964  13.618  0.3416  0.6956  0.0254
12434TIP3   OH258792   4.716   5.493   5.166  0.3170  0.0167 -0.2119
12434TIP3    H158793   4.652   5.441   5.119  0.4883  0.1856 -0.6457
12434TIP3    H258794   4.715   5.459   5.255 -0.3779  0.0257 -0.2125
12435TIP3   OH258795   4.316   4.159  13.792  0.1479  0.3719 -0.0220
12435TIP3    H158796   4.379   4.146  13.863 -2.6714 -0.8747  2.4279
12435TIP3    H258797   4.364   4.132  13.713  2.6832 -0.4517  1.6576
12436TIP3   OH258798   4.680   6.298  16.891  0.1205  0.1103  0.3968
12436TIP3    H158799   4.673   6.226  16.953  1.1166 -0.0046  0.3971
12436TIP3    H258800   4.735   6.263  16.820 -1.2505  0.1307 -0.7247
12437TIP3   OH258801   6.033   3.328  14.007 -0.3445 -0.3217  0.4496
12437TIP3    H158802   6.106   3.387  14.028  0.0710 -0.8707  0.5753
12437TIP3    H258803   6.029   3.267  14.081  1.0484 -2.1969 -0.9169
12438TIP3   OH258804   6.052   5.770  13.187  0.0096 -0.3243 -0.2873
12438TIP3    H158805   6.038   5.864  13.192 -1.1195 -0.4540 -0.6593
12438TIP3    H258806   6.009   5.743  13.106  0.1768 -1.1842 -0.1058
12439TIP3   OH258807   0.385   3.421   5.546  0.8284  0.8980  0.3117
12439TIP3    H158808   0.465   3.412   5.495 -0.5772 -1.7866 -1.6727
12439TIP3    H258809   0.410   3.397   5.635  1.8101 -2.8297 -0.7993
12440TIP3   OH258810   1.853   3.713  16.881  0.0917  0.4048  0.1339
12440TIP3    H158811   1.841   3.806  16.900 -0.2633  0.2062  0.9272
12440TIP3    H258812   1.810   3.668  16.954  0.1960 -0.3822 -0.2808
12441TIP3   OH258813   6.520   1.060   1.748  0.3295  0.1661 -0.4323
12441TIP3    H158814   6.556   1.092   1.666  0.6669  1.5678  0.2305
12441TIP3    H258815   6.427   1.048   1.730  0.3074  0.9393 -0.8961
12442TIP3   OH258816   1.678   3.014   1.436  0.2806 -0.2288  0.1649
12442TIP3    H158817   1.672   3.091   1.379  0.5111  0.0423  0.5048
12442TIP3    H258818   1.767   3.017   1.470 -0.6345  1.1349  2.6718
12443TIP3   OH258819   5.049   2.256   4.327 -0.1168  0.1143  0.1933
12443TIP3    H158820   5.135   2.280   4.292 -0.7807 -0.0415 -1.6975
12443TIP3    H258821   5.002   2.221   4.251 -2.0977  0.8646  1.0061
12444TIP3   OH258822   0.224   1.710   2.999 -0.5001  0.0199 -0.1841
12444TIP3    H158823   0.146   1.766   3.004  0.0751  1.0045 -1.4985
12444TIP3    H258824   0.273   1.729   3.079 -0.6555  0.8924 -0.2828
12445TIP3   OH258825   0.451   1.593   3.945  0.1647  0.4376 -0.1138
12445TIP3    H158826   0.404   1.676   3.943 -1.0388 -0.2222 -0.3679
12445TIP3    H258827   0.476   1.581   4.036 -3.2887 -0.8307  0.8318
12446TIP3   OH258828   3.716   5.384  14.665  0.2598 -0.3423  0.3238
12446TIP3    H158829   3.772   5.449  14.705  1.5306 -0.8390 -0.5855
12446TIP3    H258830   3.711   5.313  14.729 -0.3290  0.2121  0.9042
12447TIP3   OH258831   4.436   1.060  11.667 -0.5989  0.2793  0.1108
12447TIP3    H158832   4.518   1.077  11.621  0.4541  2.3643  2.5198
12447TIP3    H258833   4.420   0.967  11.654  2.9082 -0.5365  0.6417
12448TIP3   OH258834   1.890   0.428   4.418 -0.0990 -0.4076  0.8087
12448TIP3    H158835   1.953   0.461   4.482  0.6507 -1.6220  0.7399
12448TIP3    H258836   1.894   0.333   4.428  0.0154 -0.6281 -1.0062
12449TIP3   OH258837   2.742   4.822   5.761  0.2998  0.6381 -0.1625
12449TIP3    H158838   2.692   4.749   5.796  0.7280  0.3856 -0.0735
12449TIP3    H258839   2.743   4.807   5.667  0.5773  0.4115 -0.1223
12450TIP3   OH258840   2.382   4.556   4.058  0.4659  0.3068 -0.0109
12450TIP3    H158841   2.412   4.472   4.093  1.7946  1.7094  2.5000
12450TIP3    H258842   2.456   4.615   4.070 -0.8314  2.1396 -0.5936
12451TIP3   OH258843   1.321   1.321   5.569  0.4746 -0.4879 -0.4002
12451TIP3    H158844   1.247   1.377   5.590  1.4095  0.1907  1.1792
12451TIP3    H258845   1.284   1.232   5.568 -0.3764 -0.1540  0.2910
12452TIP3   OH258846   0.791   3.053   4.742  0.4774 -0.0367 -0.0777
12452TIP3    H158847   0.705   3.071   4.704  0.6377  0.9575  0.0019
12452TIP3    H258848   0.776   2.980   4.802 -0.2313 -0.1114 -0.3371
12453TIP3   OH258849   1.987   1.419  15.621  0.5404  0.1291 -0.4846
12453TIP3    H158850   2.039   1.381  15.550  0.9064  0.7395 -0.5553
12453TIP3    H258851   1.922   1.473  15.577 -0.4746 -1.0051 -0.4114
12454TIP3   OH258852   4.270   4.432   3.367 -0.7010  0.0258 -0.2902
12454TIP3    H158853   4.295   4.430   3.459  0.6147  0.0214 -0.6235
12454TIP3    H258854   4.211   4.357   3.357 -1.0095  0.1408  0.5851
12455TIP3   OH258855   2.457   0.668  13.927 -0.3114 -0.6293  0.0379
12455TIP3    H158856   2.432   0.580  13.955  0.3652 -1.0888 -0.7649
12455TIP3    H258857   2.521   0.654  13.857 -0.7340  0.4925 -0.6067
12456TIP3   OH258858   0.195   3.587  15.382  0.2223  0.1730 -0.1211
12456TIP3    H158859   0.163   3.591  15.292 -2.6671  0.6320  0.8071
12456TIP3    H258860   0.237   3.672  15.396 -2.3986  1.5815 -0.1059
12457TIP3   OH258861   5.166   2.848   3.205 -0.0567  0.0752  0.0517
12457TIP3    H158862   5.177   2.755   3.223 -0.6070  0.1069  0.5546
12457TIP3    H258863   5.146   2.888   3.289  1.1581  0.8095  0.0101
12458TIP3   OH258864   1.064   2.719   2.774  0.2332 -0.4342  0.5144
12458TIP3    H158865   1.089   2.662   2.701 -0.0131  0.8429 -0.6088
12458TIP3    H258866   1.146   2.759   2.802  0.3776 -1.1712  1.1781
12459TIP3   OH258867   2.132   6.113   0.507  0.1780  0.1409  0.7566
12459TIP3    H158868   2.150   6.124   0.414 -1.5588 -0.0231  0.3708
12459TIP3    H258869   2.190   6.042   0.535  1.2280  0.6807 -0.0189
12460TIP3   OH258870   5.769   1.904   0.111  0.1459 -0.3527 -0.1809
12460TIP3    H158871   5.679   1.874   0.120 -0.2391  0.8185  0.0628
12460TIP3    H258872   5.768   1.961   0.035  0.4040  0.6111  0.5135
12461TIP3   OH258873   4.325   4.797  13.924  0.6887  0.1551  0.2539
12461TIP3    H158874   4.335   4.724  13.864 -0.4173 -1.7408  2.2528
12461TIP3    H258875   4.250   4.846  13.890  1.7227  0.7049 -1.3477
12462TIP3   OH258876   1.265   5.092  11.029  0.1298  0.0667 -0.1756
12462TIP3    H158877   1.228   5.047  11.105  2.9647 -2.8534 -0.2891
12462TIP3    H258878   1.194   5.094  10.965 -0.9452 -1.8965  0.8550
12463TIP3   OH258879   3.719   5.227  16.801  0.3469  0.3108  0.6188
12463TIP3    H158880   3.783   5.170  16.758 -0.3618  0.4552 -0.6796
12463TIP3    H258881   3.650   5.168  16.829 -0.6371  0.5226 -1.1851
12464TIP3   OH258882   2.223   4.917  15.978  0.1761 -0.1154 -0.1436
12464TIP3    H158883   2.285   4.932  15.907  1.7199  0.8428  1.2997
12464TIP3    H258884   2.207   5.005  16.014 -1.1635 -0.4877  0.2040
12465TIP3   OH258885   1.549   4.738  16.834 -0.2370  0.2406 -0.1090
12465TIP3    H158886   1.477   4.676  16.832  0.3231 -0.4089 -0.5992
12465TIP3    H258887   1.560   4.759  16.927 -1.3846  0.7518 -0.0752
12466TIP3   OH258888   0.231   0.646   4.278  0.1298 -0.2531 -0.0510
12466TIP3    H158889   0.280   0.593   4.215  0.1191  0.7498 -0.9397
12466TIP3    H258890   0.140   0.618   4.267  0.3146 -1.2283  0.7076
12467TIP3   OH258891   0.426   5.676  17.264  0.2394 -0.0006  0.0389
12467TIP3    H158892   0.496   5.613  17.244 -0.6302 -0.8554 -0.3728
12467TIP3    H258893   0.363   5.625  17.316 -0.4237  0.5679 -0.2042
12468TIP3   OH258894   4.663   2.093  15.293  0.0498  0.0420 -0.0161
12468TIP3    H158895   4.705   2.015  15.256  0.9815  1.1828 -1.5004
12468TIP3    H258896   4.669   2.158  15.223 -0.5879  1.4853  1.2262
12469TIP3   OH258897   3.146   2.845  15.073  0.5513  0.2804  0.3277
12469TIP3    H158898   3.165   2.866  15.164  0.9976 -0.3205  0.3738
12469TIP3    H258899   3.230   2.853  15.028 -0.0344  2.9730 -0.5320
12470TIP3   OH258900   4.648   5.254   0.731 -0.2197 -0.2325  0.1425
12470TIP3    H158901   4.600   5.330   0.764  2.1582  1.8162 -0.7747
12470TIP3    H258902   4.621   5.247   0.639  0.2564  0.1069 -0.0253
12471TIP3   OH258903   5.219   6.537  16.595 -0.0401  0.5997 -0.3844
12471TIP3    H158904   5.205   6.468  16.530 -0.6952 -0.1348  0.5092
12471TIP3    H258905   5.310   6.526  16.623 -0.4824 -0.7277  0.6438
12472TIP3   OH258906   2.621   4.304  11.028  0.6026  0.1435 -0.3409
12472TIP3    H158907   2.559   4.307  10.955 -0.0014 -0.7762  0.1158
12472TIP3    H258908   2.704   4.280  10.987  0.4089  0.2528 -0.8070
12473TIP3   OH258909   1.705   0.165   3.262  0.2254 -0.0475 -0.3641
12473TIP3    H158910   1.735   0.189   3.174 -1.3762 -2.2346 -1.6019
12473TIP3    H258911   1.617   0.201   3.268 -0.3000 -1.3169 -0.3101
12474TIP3   OH258912   6.250   6.638  17.066 -0.4650 -0.3078 -0.3838
12474TIP3    H158913   6.214   6.553  17.091 -0.0830  0.0790  1.7300
12474TIP3    H258914   6.215   6.698  17.132  2.3181  0.4539  0.5535
12475TIP3   OH258915   6.519   4.536  11.733 -0.3978  0.2606 -0.3500
12475TIP3    H158916   6.556   4.563  11.817 -1.0009 -1.6886  0.5936
12475TIP3    H258917   6.438   4.491  11.756  0.7118 -2.6629 -1.7303
12476TIP3   OH258918   1.080   5.596  17.126  0.3041  0.0631 -0.4831
12476TIP3    H158919   1.104   5.652  17.199  1.5097  0.9137 -1.4826
12476TIP3    H258920   1.000   5.635  17.090  0.3973  0.3617 -0.3625
12477TIP3   OH258921   2.344   3.369   5.046 -0.3412  0.1333 -0.2945
12477TIP3    H158922   2.439   3.354   5.043 -0.1381  0.3908  2.4313
12477TIP3    H258923   2.334   3.460   5.015  0.8036  1.4238  2.7197
12478TIP3   OH258924   4.623   3.757  16.813 -0.1499  0.0220 -0.0302
12478TIP3    H158925   4.632   3.849  16.836 -1.2375  0.4683 -1.2612
12478TIP3    H258926   4.681   3.746  16.737  0.1554 -0.3699  0.2560
12479TIP3   OH258927   1.008   3.435   4.100 -0.1025 -0.4281  0.2155
12479TIP3    H158928   0.983   3.385   4.178  0.3100  0.2250  0.7739
12479TIP3    H258929   1.103   3.444   4.107 -0.0264 -0.5939 -0.5073
12480TIP3   OH258930   4.275   3.996   4.674  0.4751 -0.4193  0.7582
12480TIP3    H158931   4.190   4.036   4.655  0.8895  0.3538  0.4907
12480TIP3    H258932   4.301   4.033   4.758 -0.1600 -1.8656  1.6359
12481TIP3   OH258933   4.013   6.685  16.310  0.1070  0.3360 -0.1422
12481TIP3    H158934   4.066   6.615  16.273  0.3834  0.9591 -0.9454
12481TIP3    H258935   3.966   6.644  16.383  2.3638 -0.0514  1.1956
12482TIP3   OH258936   6.698   2.915   1.746 -0.1692  0.0336 -0.0691
12482TIP3    H158937   6.633   2.846   1.735  0.4908 -0.1365 -4.2944
12482TIP3    H258938   6.673   2.982   1.683  1.8723  1.4987  0.5600
12483TIP3   OH258939   3.739   3.384   2.041  0.2529  0.1768  0.0173
12483TIP3    H158940   3.722   3.468   1.998  0.1219 -0.8543 -2.0150
12483TIP3    H258941   3.808   3.404   2.105 -1.9303  2.4768  1.9100
12484TIP3   OH258942   4.479   2.265   0.734  0.4282 -0.1672 -0.5152
12484TIP3    H158943   4.406   2.221   0.690  1.8508 -3.1539 -0.0957
12484TIP3    H258944   4.451   2.270   0.826  0.1100  0.2023 -0.6265
12485TIP3   OH258945   2.839   3.604  15.448 -0.4889  0.1724 -0.1580
12485TIP3    H158946   2.775   3.628  15.381 -1.9195  3.9850  2.2887
12485TIP3    H258947   2.797   3.624  15.531  2.5273 -0.8168  1.8064
12486TIP3   OH258948   2.034   0.037  15.661 -0.2252  0.2485 -0.2137
12486TIP3    H158949   1.975  -0.003  15.597 -1.5277  0.6152  0.7226
12486TIP3    H258950   2.111   0.061  15.610 -1.1779  0.4316 -1.6365
12487TIP3   OH258951   5.343   5.641  13.645  0.0011 -0.0008  0.0218
12487TIP3    H158952   5.394   5.657  13.566 -0.5012 -1.0870 -0.5528
12487TIP3    H258953   5.365   5.713  13.704  2.7038 -0.7664  0.0657
12488TIP3   OH258954   4.451   6.430  12.327 -0.4683  0.2928 -0.2277
12488TIP3    H158955   4.530   6.391  12.288 -0.2114  1.3528 -0.8312
12488TIP3    H258956   4.380   6.399  12.271 -0.4055 -0.1748 -0.0522
12489TIP3   OH258957   5.364   6.049   2.377 -0.0597 -0.2973 -0.4484
12489TIP3    H158958   5.343   6.130   2.424 -0.7634 -1.5439  1.5203
12489TIP3    H258959   5.279   6.009   2.359  0.3018 -1.3761  0.1200
12490TIP3   OH258960   5.853   6.745  15.624 -0.6163 -0.2778  0.1780
12490TIP3    H158961   5.894   6.780  15.545  0.0538  0.6403  0.9100
12490TIP3    H258962   5.846   6.651  15.608 -1.4397 -0.0011 -1.3907
12491TIP3   OH258963   6.008   0.218  11.091  0.4860 -0.6645 -0.1475
12491TIP3    H158964   5.981   0.141  11.141  0.2989  0.1202  1.0023
12491TIP3    H258965   5.969   0.206  11.005 -0.6388 -1.2295  0.4197
12492TIP3   OH258966   5.664   5.615  16.919 -0.2026 -0.2210 -0.4423
12492TIP3    H158967   5.744   5.585  16.876 -0.6707 -0.5504 -1.0886
12492TIP3    H258968   5.642   5.544  16.980  0.1334 -0.0174 -0.0791
12493TIP3   OH258969   6.170   6.148  16.295 -0.4942  0.2560 -0.2254
12493TIP3    H158970   6.146   6.121  16.206  0.3159  1.1488 -0.7368
12493TIP3    H258971   6.167   6.244  16.292 -1.3843  0.2854  0.9845
12494TIP3   OH258972   0.999   3.132  13.650  0.5490 -0.1968  0.7756
12494TIP3    H158973   1.054   3.203  13.682  0.8865 -0.7372  1.4197
12494TIP3    H258974   0.962   3.165  13.569 -0.7043  1.4144  1.9396
12495TIP3   OH258975   5.043   3.609  14.870  0.0634  0.3755 -0.0687
12495TIP3    H158976   5.068   3.701  14.865 -0.0541  0.3960 -0.2783
12495TIP3    H258977   4.956   3.605  14.831 -0.4350  0.3642  0.9872
12496TIP3   OH258978   6.539   0.667  10.518  0.2450  0.1455 -0.7979
12496TIP3    H158979   6.627   0.686  10.552  0.1491 -1.0032  0.1580
12496TIP3    H258980   6.481   0.679  10.593 -0.6718  2.3112 -1.7459
12497TIP3   OH258981   1.750   4.786   1.025 -0.3369 -0.1645 -0.0685
12497TIP3    H158982   1.732   4.851   0.957  0.9504  0.6443  0.3138
12497TIP3    H258983   1.665   4.766   1.063 -0.6260  2.7937  1.0979
12498TIP3   OH258984   5.590   0.538  11.988  0.2470 -0.3693  0.1610
12498TIP3    H158985   5.508   0.530  11.939 -0.3809 -1.3480  1.3208
12498TIP3    H258986   5.563   0.543  12.080  1.4391  0.4930  0.4829
12499TIP3   OH258987   3.230   4.866   6.187 -0.0507 -0.0643 -0.5158
12499TIP3    H158988   3.307   4.895   6.138 -0.9628  0.8425 -1.4664
12499TIP3    H258989   3.231   4.920   6.267  0.8497 -0.7944 -0.0116
12500TIP3   OH258990   4.628   4.908   4.711  0.2482  0.7473 -0.7866
12500TIP3    H158991   4.579   4.862   4.643 -1.2843  0.1501  0.6421
12500TIP3    H258992   4.590   4.877   4.793  0.5182  3.0519  0.3070
12501TIP3   OH258993   3.840   1.249   2.937 -0.4678 -0.3234  0.1401
12501TIP3    H158994   3.881   1.212   2.859  0.2932 -1.3819  1.0147
12501TIP3    H258995   3.818   1.173   2.990  2.2579  0.4111  2.5780
12502TIP3   OH258996   4.240   0.454  11.910  0.3105 -0.1465 -0.0605
12502TIP3    H158997   4.205   0.543  11.917 -3.2073 -1.5109  3.1138
12502TIP3    H258998   4.314   0.453  11.971  1.0632  0.8025 -0.9208
12503TIP3   OH258999   4.083   0.101  12.338 -0.5646 -0.2245  0.0081
12503TIP3    H159000   4.081   0.040  12.264  0.5746  0.2531 -0.4358
12503TIP3    H259001   4.108   0.047  12.413 -1.3158 -0.6309 -0.0230
12504TIP3   OH259002   5.389   2.963  11.795 -0.1415 -0.5510 -0.0547
12504TIP3    H159003   5.377   2.969  11.700 -0.2315  0.7548  0.0203
12504TIP3    H259004   5.483   2.975  11.808 -0.4944  3.2199  0.2029
12505TIP3   OH259005   0.910   2.175   4.167  0.1335 -0.4949 -0.0658
12505TIP3    H159006   0.835   2.193   4.224  0.1026 -1.2440  0.1470
12505TIP3    H259007   0.889   2.219   4.085  0.9372  2.0286  0.9805
12506TIP3   OH259008   1.243   2.441  11.989 -0.4408 -0.1817  0.6034
12506TIP3    H159009   1.194   2.374  11.941 -0.9374 -0.0027  0.8581
12506TIP3    H259010   1.188   2.464  12.063  0.4253 -0.6177  1.4058
12507TIP3   OH259011   0.069   5.182  15.008 -0.7367  0.8512  0.5675
12507TIP3    H159012   0.028   5.150  14.928 -0.8362  1.2731  0.4536
12507TIP3    H259013   0.117   5.106  15.041 -1.7249  0.3057  0.7825
12508TIP3   OH259014   3.323   4.288   4.126 -0.2820  0.1032  0.0739
12508TIP3    H159015   3.258   4.218   4.136  0.1394 -0.1900  0.8488
12508TIP3    H259016   3.357   4.276   4.038 -1.8237  0.7478 -0.6470
12509TIP3   OH259017   3.728   3.917   3.880  0.4132  0.1012 -0.0298
12509TIP3    H159018   3.699   3.844   3.934 -1.0180  1.3099  0.9197
12509TIP3    H259019   3.786   3.878   3.815  0.2831 -1.7439  0.9153
12510TIP3   OH259020   6.744   4.290  16.411  0.5424 -0.1065 -0.0302
12510TIP3    H159021   6.654   4.293  16.445  0.7782 -2.8530  1.0819
12510TIP3    H259022   6.776   4.379  16.423 -1.3108  0.4328  1.6572
12511TIP3   OH259023   0.541   6.345  13.167  0.0442  0.2504 -0.7703
12511TIP3    H159024   0.485   6.422  13.155 -0.6361 -0.4154 -2.0050
12511TIP3    H259025   0.603   6.349  13.094  0.2990 -0.1331 -0.5799
12512TIP3   OH259026   5.281   2.437   1.144 -0.5477  0.1738 -0.8053
12512TIP3    H159027   5.228   2.358   1.137  0.0854 -0.2899 -0.3831
12512TIP3    H259028   5.315   2.451   1.055 -1.5004  0.5833 -1.1302
12513TIP3   OH259029   4.446   4.219  15.910  0.0832  0.0386  1.0642
12513TIP3    H159030   4.505   4.185  15.842 -1.5437 -2.4838  0.7498
12513TIP3    H259031   4.496   4.212  15.991  0.3897 -1.7851  0.7725
12514TIP3   OH259032   4.331   4.428   3.767  1.1810 -0.3954 -0.2387
12514TIP3    H159033   4.325   4.342   3.810  0.1576  0.6599  1.9229
12514TIP3    H259034   4.416   4.428   3.725  1.3403 -2.3536 -0.0160
12515TIP3   OH259035   5.652   5.668   0.851 -0.7254 -0.6207  0.0133
12515TIP3    H159036   5.703   5.704   0.924 -1.1630  0.5990 -0.2662
12515TIP3    H259037   5.600   5.742   0.819 -2.1235 -1.6431 -0.1873
12516TIP3   OH259038   6.277   3.093   4.355  0.1436 -0.1299  0.4770
12516TIP3    H159039   6.267   3.024   4.289  1.6842 -0.5881  0.6830
12516TIP3    H259040   6.370   3.116   4.351  0.1132  0.3422  2.0066
12517TIP3   OH259041   0.499   4.624  15.956  0.0506 -0.0574  0.2118
12517TIP3    H159042   0.441   4.554  15.926  0.3674  0.0938 -0.7984
12517TIP3    H259043   0.459   4.655  16.038 -0.2213 -1.2520  0.5592
12518TIP3   OH259044   6.532   0.687   4.643 -0.1879 -0.3010  0.0215
12518TIP3    H159045   6.537   0.747   4.718  1.1379 -0.1965 -0.1259
12518TIP3    H259046   6.544   0.600   4.682 -2.8966 -0.6313  0.3448
12519TIP3   OH259047   5.169   0.390   3.661 -0.5339  0.2173  0.3212
12519TIP3    H159048   5.222   0.455   3.706 -1.1546 -0.0948  1.5349
12519TIP3    H259049   5.154   0.427   3.574  1.1068  0.6028  0.1820
12520TIP3   OH259050   0.841   2.489  13.688  0.4041 -0.0209  0.4949
12520TIP3    H159051   0.840   2.437  13.608  1.1967  0.5443  0.0933
12520TIP3    H259052   0.772   2.452  13.743  0.9342 -1.4624  0.2227
12521TIP3   OH259053   1.892   2.019  11.901  0.3543 -0.1086 -0.3360
12521TIP3    H159054   1.967   2.015  11.841  1.2389  0.6533  0.6884
12521TIP3    H259055   1.841   2.094  11.870  1.3264  0.8937  0.4128
12522TIP3   OH259056   1.318   1.275   3.549  0.5576 -0.1295 -0.1155
12522TIP3    H159057   1.319   1.259   3.455  2.2110 -1.0262  0.0047
12522TIP3    H259058   1.370   1.354   3.561 -0.3099  0.4293 -0.0115
12523TIP3   OH259059   2.001   4.323   2.446  0.1431  0.2948  0.1062
12523TIP3    H159060   2.044   4.292   2.366 -0.7046  1.5720 -0.8913
12523TIP3    H259061   1.912   4.288   2.440 -0.1647  1.0708  0.0700
12524TIP3   OH259062   4.642   2.026   5.856 -0.1918 -0.0449  0.0244
12524TIP3    H159063   4.606   2.085   5.789  1.0721  1.2582  0.4332
12524TIP3    H259064   4.575   2.023   5.924  0.1373  1.8589  0.5025
12525TIP3   OH259065   5.413   6.633  16.102 -0.0326  0.2967 -0.6228
12525TIP3    H159066   5.320   6.654  16.098  0.3267  1.8932 -1.5811
12525TIP3    H259067   5.437   6.644  16.194 -0.5334  1.1015 -0.5858
12526TIP3   OH259068   3.915   1.295   4.316  0.4217 -0.0995  0.2791
12526TIP3    H159069   3.984   1.285   4.250  0.1046  5.0657 -1.2563
12526TIP3    H259070   3.957   1.345   4.387 -1.1404  1.3441  0.2367
12527TIP3   OH259071   3.863   2.360  13.070 -0.3782 -0.8813 -0.0176
12527TIP3    H159072   3.855   2.363  13.165  1.2909 -0.3242  0.1388
12527TIP3    H259073   3.786   2.310  13.041 -1.3835 -0.3118  1.5332
12528TIP3   OH259074   6.492   5.738  14.100 -0.5190  0.1030  0.3622
12528TIP3    H159075   6.408   5.757  14.057 -0.1600  0.9820  0.0317
12528TIP3    H259076   6.555   5.796  14.057  0.3234 -0.7481  0.4141
12529TIP3   OH259077   2.724   4.793   2.094 -0.1020  0.2167 -0.1746
12529TIP3    H159078   2.680   4.792   2.009  1.3942  0.6315 -0.9889
12529TIP3    H259079   2.656   4.769   2.157 -1.2160 -0.1791 -1.4946
12530TIP3   OH259080   0.005   2.571  14.315  0.8523  0.5161 -0.7631
12530TIP3    H159081   0.017   2.659  14.352  0.8565 -0.0093  0.5646
12530TIP3    H259082   0.093   2.534  14.310  0.8451  0.5620 -1.2654
12531TIP3   OH259083   1.941   3.453   5.548  0.4890  0.6600  0.4109
12531TIP3    H159084   2.012   3.516   5.557  1.4615 -0.4164  0.4847
12531TIP3    H259085   1.882   3.474   5.621  0.3527  1.9998 -0.0515
12532TIP3   OH259086   6.369   0.396   2.654 -0.1838 -0.2475  0.0545
12532TIP3    H159087   6.361   0.423   2.563  1.5493  0.1249 -0.0165
12532TIP3    H259088   6.280   0.404   2.689 -0.9588 -0.8265 -1.6984
12533TIP3   OH259089   0.191   5.950   5.394 -0.4187 -0.4470 -0.2186
12533TIP3    H159090   0.138   6.010   5.446  0.8271  0.3236  0.1979
12533TIP3    H259091   0.150   5.864   5.407 -0.6926 -0.1086  1.2700
12534TIP3   OH259092   3.432   1.346  12.195 -0.0331 -0.7677 -0.4011
12534TIP3    H159093   3.470   1.290  12.128  1.9855  1.6161 -1.4164
12534TIP3    H259094   3.499   1.350  12.263  1.0963  2.3259 -1.5290
12535TIP3   OH259095   0.215   6.699  13.547  0.0847 -0.4405 -0.0645
12535TIP3    H159096   0.203   6.639  13.473  1.6151 -0.5282 -0.2893
12535TIP3    H259097   0.252   6.643  13.616  2.2695  0.3395 -0.5338
12536TIP3   OH259098   3.644   2.352   0.650 -0.2361  0.1372  0.3544
12536TIP3    H159099   3.699   2.410   0.703 -0.9282  0.4629  0.7209
12536TIP3    H259100   3.705   2.286   0.617  0.8789  1.7858 -1.1553
12537TIP3   OH259101   6.028   2.339   3.824  1.0981  0.4729 -0.4925
12537TIP3    H159102   6.059   2.303   3.741  2.0868 -1.9945  0.8551
12537TIP3    H259103   5.966   2.275   3.857 -1.0541  2.5053 -0.3010
12538TIP3   OH259104   6.178   4.062  13.210 -0.0142  0.4621 -0.2131
12538TIP3    H159105   6.104   4.104  13.254  0.4181  1.5425 -0.4921
12538TIP3    H259106   6.253   4.076  13.268 -0.1072 -1.1360  0.3539
12539TIP3   OH259107   5.432   5.300  15.808  0.0786 -0.7021  0.8513
12539TIP3    H159108   5.418   5.213  15.844 -1.5394 -0.2949  1.2842
12539TIP3    H259109   5.385   5.359  15.867  0.6386  0.3980  0.2354
12540TIP3   OH259110   0.950   5.679   4.036  0.1321  0.6646 -0.8896
12540TIP3    H159111   0.928   5.729   4.114  1.1246 -0.4870  0.1656
12540TIP3    H259112   0.904   5.724   3.965 -0.7959  1.7315  0.3416
12541TIP3   OH259113   0.342   4.836   6.486  0.1002  0.0354 -1.1315
12541TIP3    H159114   0.251   4.834   6.458 -0.1999  0.1815 -0.1937
12541TIP3    H259115   0.365   4.744   6.500 -0.3748  0.0810  0.0720
12542TIP3   OH259116   5.851   5.888   0.909 -0.6464 -0.4103 -0.2164
12542TIP3    H159117   5.885   5.974   0.884 -2.0908  0.1221 -0.4391
12542TIP3    H259118   5.905   5.826   0.859  0.6168  0.3342  0.1840
12543TIP3   OH259119   2.058   2.032  12.570  0.7124  0.0668 -0.6553
12543TIP3    H159120   2.001   2.099  12.532 -0.7407 -0.4880  0.4512
12543TIP3    H259121   2.116   2.007  12.498  0.9726  2.1154 -1.2497
12544TIP3   OH259122   4.880   0.538   5.570 -0.3598 -0.4333 -0.0902
12544TIP3    H159123   4.926   0.454   5.570  0.9278  0.2428 -0.1381
12544TIP3    H259124   4.801   0.522   5.621 -0.1555 -1.6853 -0.1338
12545TIP3   OH259125   3.140   4.353   4.912 -0.4145  0.5716  0.1528
12545TIP3    H159126   3.142   4.350   5.008 -1.6045 -2.2935  0.2163
12545TIP3    H259127   3.078   4.423   4.891 -3.3767 -1.3670  1.7092
12546TIP3   OH259128   5.385   3.526   2.120  0.4890  0.1051  0.6636
12546TIP3    H159129   5.357   3.565   2.203  0.3044  1.6517 -0.0963
12546TIP3    H259130   5.305   3.521   2.068  0.6263 -0.7414  0.5239
12547TIP3   OH259131   5.264   2.544  15.135  0.2729 -0.0541  0.1828
12547TIP3    H159132   5.328   2.590  15.190  0.8257 -0.4874 -0.0866
12547TIP3    H259133   5.293   2.453  15.136 -0.0889 -0.1797 -0.3043
12548TIP3   OH259134   1.911   6.508  13.359 -0.1761  0.2883  0.4275
12548TIP3    H159135   1.989   6.482  13.408 -0.3939 -0.4088  0.4054
12548TIP3    H259136   1.838   6.470  13.408 -0.3812 -0.7233 -0.6316
12549TIP3   OH259137   2.562   5.088   4.952 -0.4041  0.1848  0.3655
12549TIP3    H159138   2.621   5.016   4.929  0.3666  0.4699  1.4074
12549TIP3    H259139   2.512   5.104   4.872 -0.6986 -1.6018  0.1599
12550TIP3   OH259140   4.625   6.289   6.195 -0.0968 -0.6446  0.5451
12550TIP3    H159141   4.721   6.298   6.199 -0.0719 -0.1324 -0.7063
12550TIP3    H259142   4.596   6.298   6.285  0.7567  2.6103  0.6116
12551TIP3   OH259143   2.432   6.037   1.416  0.1766 -0.2933  0.6867
12551TIP3    H159144   2.500   5.983   1.456  1.1033 -1.2803 -2.0056
12551TIP3    H259145   2.475   6.077   1.339 -1.5774  1.1650  0.3983
12552TIP3   OH259146   2.972   3.348   3.033 -0.1100 -0.5654 -0.3213
12552TIP3    H159147   2.989   3.297   3.112  1.5564  0.8863  0.3210
12552TIP3    H259148   2.942   3.433   3.066 -1.0319 -0.4791 -1.3177
12553TIP3   OH259149   6.106   3.701   2.816  0.8064 -0.3076 -0.3867
12553TIP3    H159150   6.151   3.627   2.857  1.0356 -0.0260 -0.1316
12553TIP3    H259151   6.019   3.667   2.795  0.1299  0.0010  1.7475
12554TIP3   OH259152   6.415   4.162   5.379 -0.2412 -0.2670  0.4903
12554TIP3    H159153   6.420   4.074   5.340 -0.8938 -0.3648  0.6094
12554TIP3    H259154   6.488   4.165   5.440 -0.6148 -0.9947  0.9975
12555TIP3   OH259155   0.174   1.791  13.167  0.3510  0.2997  0.1148
12555TIP3    H159156   0.117   1.725  13.208 -2.6236  0.9681 -2.5049
12555TIP3    H259157   0.261   1.753  13.171 -0.7176 -2.2551  1.6878
12556TIP3   OH259158   6.183   0.014  12.703 -0.0328  0.3587 -0.0142
12556TIP3    H159159   6.209   0.093  12.655  0.6337  0.7584  0.9830
12556TIP3    H259160   6.265  -0.029  12.726 -0.3322  0.1994  0.8012
12557TIP3   OH259161   3.971   1.340  13.077  0.1891  1.0044 -0.7268
12557TIP3    H159162   4.001   1.413  13.132  0.9649  0.4456 -0.3865
12557TIP3    H259163   3.903   1.378  13.022 -1.4590  1.3154  1.4123
12558TIP3   OH259164   6.708   5.383   5.700  0.1893 -0.1449  0.3092
12558TIP3    H159165   6.660   5.466   5.695  1.3771  0.5011 -1.9065
12558TIP3    H259166   6.791   5.406   5.741  0.6618 -0.1343 -0.6269
12559TIP3   OH259167   3.721   3.251  12.091 -0.1328  0.3633  0.1701
12559TIP3    H159168   3.796   3.219  12.142 -0.6050 -1.5541 -0.2423
12559TIP3    H259169   3.656   3.181  12.098 -1.4071  1.4283 -0.5264
12560TIP3   OH259170   3.793   1.464   2.623  0.3357 -0.4818  0.0311
12560TIP3    H159171   3.750   1.379   2.636 -0.8767  0.2516  1.1132
12560TIP3    H259172   3.739   1.508   2.557  0.7117 -0.3823 -0.2125
12561TIP3   OH259173   1.444   1.099   0.912 -0.3009  0.0446  0.0916
12561TIP3    H159174   1.373   1.061   0.860 -0.7124 -1.3190  1.5754
12561TIP3    H259175   1.523   1.054   0.881  0.1228  2.0854 -2.0805
12562TIP3   OH259176   3.643   0.834   2.502 -0.6069  0.3016 -0.4187
12562TIP3    H159177   3.595   0.895   2.558 -0.7010  0.7352 -0.9596
12562TIP3    H259178   3.735   0.845   2.527 -0.7124 -0.0340  0.1443
12563TIP3   OH259179   0.225   0.234  11.210  0.4534  0.9593  0.4997
12563TIP3    H159180   0.213   0.328  11.195 -4.8688  0.6414  0.8872
12563TIP3    H259181   0.249   0.228  11.302  1.2792  1.8998  0.3711
12564TIP3   OH259182   6.351   1.038   3.983  0.2249  0.4385 -0.2702
12564TIP3    H159183   6.260   1.064   4.000  0.3391  0.5590  0.1858
12564TIP3    H259184   6.362   0.957   4.034  0.2261  0.1545 -0.7231
12565TIP3   OH259185   5.876   1.611  15.822 -0.1869  0.2054  0.2302
12565TIP3    H159186   5.943   1.670  15.856 -0.5215  0.8657 -0.2136
12565TIP3    H259187   5.808   1.670  15.788 -0.2582 -0.4257 -0.7682
12566TIP3   OH259188   2.462   2.377  14.132 -0.1485  0.3115 -0.1140
12566TIP3    H159189   2.446   2.369  14.226 -0.1278  0.4447 -0.0984
12566TIP3    H259190   2.482   2.470  14.120  0.7127  0.1376 -0.1157
12567TIP3   OH259191   2.979   2.240  12.453  1.3265  0.2431 -0.6925
12567TIP3    H159192   2.913   2.309  12.448  1.3803  0.2576 -1.2672
12567TIP3    H259193   3.023   2.243  12.368  0.4389 -1.3932 -1.2398
12568TIP3   OH259194   3.847   2.619   0.237 -0.0412 -0.0779  0.1643
12568TIP3    H159195   3.785   2.613   0.310 -0.2987  1.7720  0.1369
12568TIP3    H259196   3.866   2.712   0.229  0.8131 -0.3537 -1.4584
12569TIP3   OH259197   0.755   1.349  14.748 -0.5923  0.2137 -0.0527
12569TIP3    H159198   0.820   1.290  14.785 -1.2705 -0.8736 -0.5429
12569TIP3    H259199   0.690   1.291  14.708 -1.0616  1.2995 -0.9226
12570TIP3   OH259200   4.096   5.259   0.628 -0.2665  0.1065  0.2172
12570TIP3    H159201   4.055   5.173   0.617  0.8424 -0.4083  0.0583
12570TIP3    H259202   4.102   5.270   0.723 -0.2333 -0.0794  0.2377
12571TIP3   OH259203   1.043   5.400  15.037 -0.2439 -0.2114 -0.5535
12571TIP3    H159204   0.988   5.322  15.042  0.0388 -0.3991 -0.3344
12571TIP3    H259205   1.017   5.442  14.955 -0.2316 -0.6586 -0.7911
12572TIP3   OH259206   5.120   1.242   5.957 -0.2516  0.1648 -0.1611
12572TIP3    H159207   5.165   1.159   5.970  0.6907  0.6552 -0.1879
12572TIP3    H259208   5.068   1.229   5.878  1.5829  0.2687 -1.4447
12573TIP3   OH259209   1.597   6.442   4.782  0.1870 -0.0922  0.7254
12573TIP3    H159210   1.524   6.437   4.844 -0.8968  0.4367 -0.4601
12573TIP3    H259211   1.595   6.533   4.751 -0.9508 -0.9291 -1.9584
12574TIP3   OH259212   6.418   5.446  17.048  0.2515  0.2340  0.6550
12574TIP3    H159213   6.374   5.392  16.982  0.3960 -1.4980  1.9366
12574TIP3    H259214   6.349   5.504  17.080  0.1569  1.0672 -0.9237
12575TIP3   OH259215   1.509   3.914   5.489  0.6023 -0.1008  0.4951
12575TIP3    H159216   1.453   3.940   5.563 -0.6921 -0.1180 -0.4369
12575TIP3    H259217   1.485   3.823   5.472  2.1121 -0.6270  1.1069
12576TIP3   OH259218   0.991   2.961   1.466 -0.0756  0.5601 -0.7044
12576TIP3    H159219   1.078   2.997   1.450 -0.8410  2.0690 -1.7206
12576TIP3    H259220   0.949   2.961   1.380 -1.0367 -0.2793 -0.2541
12577TIP3   OH259221   2.744   4.718   2.529  0.4476  0.5127 -0.4307
12577TIP3    H159222   2.652   4.694   2.530  1.0437 -2.2279  1.6785
12577TIP3    H259223   2.758   4.765   2.611  0.9116  1.0566 -0.8142
12578TIP3   OH259224   1.113   5.360  14.123 -0.1707 -0.5717  0.0684
12578TIP3    H159225   1.091   5.434  14.180  0.7564 -0.0921 -0.1739
12578TIP3    H259226   1.069   5.285  14.163 -0.4448 -0.0465  0.7834
12579TIP3   OH259227   1.154   5.213   6.659 -0.0289 -0.0729  0.2586
12579TIP3    H159228   1.228   5.180   6.608 -0.9663 -0.3272 -0.9977
12579TIP3    H259229   1.124   5.138   6.710 -0.1490 -0.2923 -0.1308
12580TIP3   OH259230   1.847   3.597  14.490  0.5986  0.1463  0.3905
12580TIP3    H159231   1.893   3.544  14.555  3.2812  2.8938  1.0197
12580TIP3    H259232   1.755   3.588  14.511  1.2010 -1.3489  2.6961
12581TIP3   OH259233   0.894   4.253  11.639 -0.1267  0.0000  0.8594
12581TIP3    H159234   0.815   4.208  11.608  1.0581 -0.6409 -1.4134
12581TIP3    H259235   0.961   4.185  11.641  1.9371  1.5848 -3.4897
12582TIP3   OH259236   6.330   4.995  12.770 -0.2106 -0.0528  0.0089
12582TIP3    H159237   6.285   4.955  12.695 -0.7835 -0.7297  0.6944
12582TIP3    H259238   6.423   4.992  12.747 -0.2797 -1.3617 -0.1663
12583TIP3   OH259239   4.587   5.224  16.931  0.1771 -0.2662  0.4740
12583TIP3    H159240   4.630   5.162  16.989 -0.1484 -0.1065  0.9015
12583TIP3    H259241   4.652   5.293  16.916  0.6221 -0.8306 -0.2050
12584TIP3   OH259242   2.231   2.446   5.592  0.4735  0.3386 -0.1398
12584TIP3    H159243   2.311   2.498   5.586  1.5414 -1.2702 -0.5163
12584TIP3    H259244   2.227   2.420   5.685  0.1289  0.8138 -0.0225
12585TIP3   OH259245   5.381   0.373  16.916 -0.3749 -0.4405 -0.4371
12585TIP3    H159246   5.349   0.349  16.829  0.0773 -1.4193 -0.3490
12585TIP3    H259247   5.370   0.294  16.969  1.1562 -0.4818 -0.1261
12586TIP3   OH259248   3.891   0.393  17.265  0.1560 -0.4731 -0.2972
12586TIP3    H159249   3.806   0.436  17.262 -0.0011 -0.8050 -0.7820
12586TIP3    H259250   3.900   0.362  17.355 -1.1243 -2.2061 -0.7275
12587TIP3   OH259251   5.633   1.742   0.915 -0.1489 -0.5557  0.1455
12587TIP3    H159252   5.711   1.757   0.969  0.0955 -2.5132  0.4261
12587TIP3    H259253   5.560   1.762   0.974  0.1311  0.1117  0.2728
12588TIP3   OH259254   3.911   3.553  12.867 -0.6278 -0.2020 -0.3521
12588TIP3    H159255   3.934   3.563  12.960 -0.9393  0.6043 -0.3571
12588TIP3    H259256   3.973   3.488  12.834  0.5011  0.6408  0.0560
12589TIP3   OH259257   5.234   4.584   2.528  0.3991  0.3041 -0.3182
12589TIP3    H159258   5.233   4.677   2.551 -1.1254 -0.2459  2.3441
12589TIP3    H259259   5.143   4.556   2.541  0.8945 -1.6293 -0.7261
12590TIP3   OH259260   3.888   6.483   4.196  0.5697  0.1855  0.7132
12590TIP3    H159261   3.897   6.404   4.249 -0.1178 -0.4951 -0.1517
12590TIP3    H259262   3.976   6.520   4.192  1.3750 -1.7607 -0.7175
12591TIP3   OH259263   3.871   2.101   5.998  0.7248 -0.3431 -0.4070
12591TIP3    H159264   3.934   2.140   6.058  1.4389 -1.6954 -0.2367
12591TIP3    H259265   3.871   2.158   5.922  2.9629 -0.8447 -0.8546
12592TIP3   OH259266   5.821   4.506   5.479 -0.2120 -0.0404 -0.0389
12592TIP3    H159267   5.889   4.559   5.521 -0.3611 -0.8474  1.2947
12592TIP3    H259268   5.799   4.554   5.400  2.8240 -0.3579 -1.2375
12593TIP3   OH259269   4.343   1.791   3.774 -0.4282  0.0403  0.4889
12593TIP3    H159270   4.431   1.816   3.743  0.3116 -1.2510  1.4474
12593TIP3    H259271   4.317   1.721   3.715 -0.3414 -0.3231  0.8808
12594TIP3   OH259272   3.056   6.143   1.746 -0.4487 -0.0435 -0.3126
12594TIP3    H159273   3.139   6.144   1.794 -0.9230  0.4074  0.5380
12594TIP3    H259274   2.992   6.175   1.810 -1.2302 -0.1342 -1.0372
12595TIP3   OH259275   5.729   0.421   3.328  0.0850 -0.0262  0.2010
12595TIP3    H159276   5.759   0.330   3.339 -1.7139 -0.6850  0.0501
12595TIP3    H259277   5.677   0.439   3.406  0.5909  0.9502  0.3204
12596TIP3   OH259278   3.665   6.223  11.804 -0.3006 -0.7262  0.0518
12596TIP3    H159279   3.696   6.167  11.733  2.0101 -0.4473  0.7671
12596TIP3    H259280   3.674   6.169  11.882  3.6373  0.9876  1.0215
12597TIP3   OH259281   1.046   6.593  16.515  0.5769 -0.3174  0.0920
12597TIP3    H159282   1.124   6.598  16.459 -0.6704 -1.0253 -1.7918
12597TIP3    H259283   0.988   6.662  16.482 -1.0797 -2.1591 -1.0114
12598TIP3   OH259284   0.041   6.087  16.069 -0.0395  0.8082 -0.5421
12598TIP3    H159285   0.035   5.994  16.050  0.4565  0.5526  0.4667
12598TIP3    H259286  -0.029   6.127  16.018 -0.1776 -0.0980 -1.0793
12599TIP3   OH259287   0.342   4.895   5.236  0.0536  0.2332  0.4048
12599TIP3    H159288   0.316   4.955   5.166 -0.7260  0.5297  0.9336
12599TIP3    H259289   0.314   4.808   5.206 -2.2289  0.6207  1.2358
12600TIP3   OH259290   3.414   2.774   5.363  0.3521 -0.5444  0.2758
12600TIP3    H159291   3.398   2.790   5.456  4.0453 -0.3920  1.0421
12600TIP3    H259292   3.437   2.681   5.358 -1.8993 -1.1168 -0.9409
12601TIP3   OH259293   2.443   6.022   2.503 -0.7297  0.4020  0.2464
12601TIP3    H159294   2.391   5.943   2.519 -0.1850 -0.3527 -1.4533
12601TIP3    H259295   2.528   6.004   2.542 -1.2564  1.0588  1.7648
12602TIP3   OH259296   0.404   5.848   6.558  0.2088  0.0167  0.2840
12602TIP3    H159297   0.418   5.941   6.543 -0.1935  0.3588  1.8459
12602TIP3    H259298   0.378   5.813   6.473  0.1530  1.3676 -0.2707
12603TIP3   OH259299   4.648   4.016   4.323 -0.3244 -0.3510 -0.6390
12603TIP3    H159300   4.649   3.921   4.314 -1.5850 -0.6607  1.7333
12603TIP3    H259301   4.718   4.035   4.385 -0.1426  0.2719 -1.0287
12604TIP3   OH259302   1.974   1.946   0.282 -0.2682 -0.4701 -0.1420
12604TIP3    H159303   1.912   2.008   0.322  0.8438  0.1940  0.5951
12604TIP3    H259304   2.055   1.959   0.330  0.4299 -1.4011 -1.0359
12605TIP3   OH259305   5.214   3.665  17.194 -0.5254  0.1914 -0.7633
12605TIP3    H159306   5.300   3.659  17.152  0.2851 -1.7158  0.9834
12605TIP3    H259307   5.171   3.738  17.150  1.8944  1.0774 -1.8425
12606TIP3   OH259308   2.488   5.553   1.173  0.3896  0.3021  0.2319
12606TIP3    H159309   2.553   5.493   1.209  0.6836  0.8268  0.6072
12606TIP3    H259310   2.539   5.616   1.122 -0.0439 -0.5606 -1.3392
12607TIP3   OH259311   5.641   1.073   3.230 -0.2657  0.2254  0.1788
12607TIP3    H159312   5.646   1.001   3.293 -3.3312 -0.4293 -0.1570
12607TIP3    H259313   5.637   1.152   3.284  1.4090  0.0536  0.6074
12608TIP3   OH259314   1.921   0.245   5.067 -0.4278  0.3791  0.6690
12608TIP3    H159315   1.846   0.199   5.107 -0.7071  0.4231  0.2025
12608TIP3    H259316   1.922   0.330   5.109 -1.5849  0.9538 -0.3966
12609TIP3   OH259317   0.414   4.093   5.276 -0.0075 -0.0990  0.1945
12609TIP3    H159318   0.330   4.080   5.231 -1.0893 -1.3823  2.4122
12609TIP3    H259319   0.397   4.162   5.340  1.6847  2.1625 -1.6278
12610TIP3   OH259320   1.900   6.167   2.692  0.0515 -0.2223 -0.3754
12610TIP3    H159321   1.815   6.144   2.654 -0.5074 -0.6384  1.0527
12610TIP3    H259322   1.899   6.262   2.699 -0.5089 -0.2563  0.0676
12611TIP3   OH259323   4.729   5.781   5.352  0.7358  0.7287  0.2072
12611TIP3    H159324   4.712   5.689   5.374 -0.0328  0.1524 -2.5151
12611TIP3    H259325   4.731   5.825   5.437  1.8028 -1.8809  1.6537
12612TIP3   OH259326   2.209   5.741  11.702  0.0532 -0.3766  0.2435
12612TIP3    H159327   2.122   5.701  11.707  0.3095 -1.3185 -2.0081
12612TIP3    H259328   2.220   5.765  11.610  2.0068  0.1396  0.5613
12613TIP3   OH259329   2.369   6.104  16.272 -0.1242 -0.7781 -0.5200
12613TIP3    H159330   2.372   6.195  16.244 -0.0383 -0.5292  0.2550
12613TIP3    H259331   2.372   6.109  16.368 -2.1931 -1.4728 -0.3583
12614TIP3   OH259332   3.198   2.773  17.092 -0.0932  0.6112  0.2373
12614TIP3    H159333   3.240   2.719  17.158  0.5387  0.4661 -0.2804
12614TIP3    H259334   3.204   2.862  17.127  1.3251  0.6964 -0.1711
12615TIP3   OH259335   0.515   5.179   1.355 -0.1435 -0.7740  0.3407
12615TIP3    H159336   0.531   5.270   1.379 -0.6034 -0.3682 -0.8213
12615TIP3    H259337   0.513   5.132   1.438  0.2969  0.2447  0.9366
12616TIP3   OH259338   6.336   3.337  15.240 -0.5050  0.4282 -0.3920
12616TIP3    H159339   6.385   3.293  15.170 -1.0685 -4.2609  1.7141
12616TIP3    H259340   6.247   3.305  15.231 -0.9853  1.1185  1.3833
12617TIP3   OH259341   5.440   6.585  12.828  0.3551 -0.4752 -0.1094
12617TIP3    H159342   5.509   6.579  12.762  0.6351 -1.1442  0.2384
12617TIP3    H259343   5.426   6.680  12.838  1.0562 -0.3344 -0.3514
12618TIP3   OH259344   6.425   2.955  11.836 -0.1332  0.3186 -0.2785
12618TIP3    H159345   6.470   2.995  11.910 -0.6324  0.0446  0.1858
12618TIP3    H259346   6.336   2.992  11.839 -0.5183 -0.6015 -0.0042
12619TIP3   OH259347   3.765   3.636  15.271  0.6605 -0.8297  0.3130
12619TIP3    H159348   3.781   3.618  15.363  0.5904  0.2122  0.5431
12619TIP3    H259349   3.847   3.674  15.239  1.5306 -3.3455 -0.6841
12620TIP3   OH259350   5.699   5.712  10.392  0.5946  0.2067 -0.5410
12620TIP3    H159351   5.668   5.751  10.310 -0.1519  1.9738  0.5154
12620TIP3    H259352   5.794   5.713  10.385  0.5386  0.5409 -1.3184
12621TIP3   OH259353   2.849   2.855   1.118  0.1612  0.2167  0.4341
12621TIP3    H159354   2.934   2.868   1.077  0.5204  0.8868  1.3722
12621TIP3    H259355   2.868   2.808   1.199 -0.4864 -0.6215  0.1173
12622TIP3   OH259356   6.257   5.720   3.131  0.4422  0.5339 -0.5908
12622TIP3    H159357   6.176   5.759   3.100 -0.2790  1.2550  1.9919
12622TIP3    H259358   6.306   5.793   3.169  1.1951 -0.2857  0.0475
12623TIP3   OH259359   2.128   0.876   5.321 -0.2550 -0.2466 -0.8964
12623TIP3    H159360   2.091   0.886   5.409 -1.0826  0.9431 -1.3679
12623TIP3    H259361   2.142   0.782   5.312  0.6417 -0.3173  0.8284
12624TIP3   OH259362   1.650   0.375  14.835  0.5428  0.7173  0.8447
12624TIP3    H159363   1.568   0.356  14.789  0.9122 -0.0677  0.4834
12624TIP3    H259364   1.637   0.461  14.874  0.4649  1.7686 -1.3591
12625TIP3   OH259365   5.557   5.082   4.941 -0.8797  0.3528  0.1062
12625TIP3    H159366   5.535   5.172   4.919 -0.5353  0.7438  1.2559
12625TIP3    H259367   5.565   5.082   5.037 -1.7764 -1.1027  0.2164
12626TIP3   OH259368   2.070   6.333   6.022  0.3405  0.2232 -0.2188
12626TIP3    H159369   2.032   6.274   6.087 -0.2186  0.3310 -0.4343
12626TIP3    H259370   2.068   6.284   5.940  1.0164  0.0984 -0.1646
12627TIP3   OH259371   1.023   3.390   3.333 -0.3217 -0.7757  0.3250
12627TIP3    H159372   0.932   3.363   3.345 -1.0616  0.9932 -0.8016
12627TIP3    H259373   1.063   3.382   3.420 -0.8801 -3.7338  0.3931
12628TIP3   OH259374   0.924   3.767   2.833 -0.3624  0.0330 -0.1343
12628TIP3    H159375   0.900   3.726   2.916 -0.0696 -0.2917 -0.2078
12628TIP3    H259376   0.852   3.826   2.813 -0.8571 -0.5599 -0.1033
12629TIP3   OH259377   2.178   4.913  13.239  0.1996 -0.3352 -0.3999
12629TIP3    H159378   2.156   4.853  13.168  0.6687 -0.8446 -0.1223
12629TIP3    H259379   2.273   4.911  13.242  0.1623 -0.9459  0.7687
12630TIP3   OH259380   4.449   2.770  16.502  0.0594 -0.2678 -0.0134
12630TIP3    H159381   4.543   2.751  16.504  0.0839 -0.1349  0.0615
12630TIP3    H259382   4.413   2.720  16.576  0.3427  1.1785  1.1381
12631TIP3   OH259383   1.081   4.493   5.040  0.0369 -0.7531 -0.2174
12631TIP3    H159384   1.011   4.504   5.104  0.1226  2.7674 -0.5266
12631TIP3    H259385   1.034   4.478   4.957 -0.2627 -0.6537 -0.0696
12632TIP3   OH259386   2.838   4.741   0.114  0.0918  0.1743  0.4265
12632TIP3    H159387   2.930   4.720   0.097 -0.2225  0.0980 -1.4367
12632TIP3    H259388   2.829   4.833   0.088 -0.5280 -0.0647 -0.2552
12633TIP3   OH259389   2.798   0.730   5.941 -0.5364 -0.5938 -0.5388
12633TIP3    H159390   2.824   0.660   5.881 -1.8240 -0.3225 -1.4513
12633TIP3    H259391   2.709   0.751   5.915 -1.3732 -0.8831  1.8661
12634TIP3   OH259392   0.820   0.839  12.689 -0.2422  0.2203 -0.2406
12634TIP3    H159393   0.820   0.745  12.708 -0.5316  0.3512  0.3911
12634TIP3    H259394   0.813   0.843  12.593 -0.7374 -0.3889 -0.2377
12635TIP3   OH259395   0.391   2.608   0.105 -0.6011 -0.0203 -0.3510
12635TIP3    H159396   0.486   2.618   0.102 -0.7773  1.9102 -0.6466
12635TIP3    H259397   0.367   2.631   0.195 -0.7457 -1.0122 -0.1305
12636TIP3   OH259398   3.828   6.656   2.580 -0.4769  0.4423  0.5222
12636TIP3    H159399   3.882   6.595   2.629 -0.0630  2.0883  2.2314
12636TIP3    H259400   3.738   6.627   2.596 -0.2368 -1.6659 -1.4708
12637TIP3   OH259401   4.245   3.950   0.226 -0.1216 -0.3905 -0.3766
12637TIP3    H159402   4.199   4.017   0.277 -0.2730 -1.2305  0.6290
12637TIP3    H259403   4.294   3.900   0.291 -0.5629 -1.6877 -1.0124
12638TIP3   OH259404   5.245   1.664   2.175  0.2421  0.3531 -0.1384
12638TIP3    H159405   5.222   1.745   2.220  0.7914  1.1022 -1.1774
12638TIP3    H259406   5.231   1.682   2.082  0.4525 -0.7146 -0.3967
12639TIP3   OH259407   6.471   1.065  15.042 -0.2461  0.2718 -0.4946
12639TIP3    H159408   6.452   1.063  15.136  0.0518  0.6218 -0.4253
12639TIP3    H259409   6.385   1.077  15.001 -0.3155  0.7183 -0.2354
12640TIP3   OH259410   6.194   5.062  13.855 -0.1118 -0.4030  0.6267
12640TIP3    H159411   6.213   5.114  13.777 -1.5308 -0.8348 -0.0358
12640TIP3    H259412   6.155   5.124  13.916  0.3346 -0.2130  0.7191
12641TIP3   OH259413   5.668   3.188   4.052 -0.4377 -0.3289 -0.3248
12641TIP3    H159414   5.646   3.227   3.968 -0.4893  1.4146  0.4483
12641TIP3    H259415   5.603   3.119   4.065 -1.1172  0.1373 -1.1885
12642TIP3   OH259416   3.634   6.717   4.018 -0.3308  1.5259  0.2569
12642TIP3    H159417   3.589   6.658   3.957 -0.4946  1.5712  0.3326
12642TIP3    H259418   3.609   6.685   4.104  0.2098  1.2208  0.3053
12643TIP3   OH259419   1.703   4.621   4.078  0.0799  0.0943  0.3427
12643TIP3    H159420   1.651   4.546   4.048 -0.4408  0.6324 -0.1075
12643TIP3    H259421   1.653   4.698   4.051  1.1861  0.6281 -0.2541
12644TIP3   OH259422   2.472   5.076  14.009 -0.2619  0.1119  0.2057
12644TIP3    H159423   2.431   5.115  13.932 -1.8056 -0.5848  0.6336
12644TIP3    H259424   2.398   5.049  14.064  0.7996 -0.2402  1.5023
12645TIP3   OH259425   0.923   5.099  13.947  0.1347  0.5054  0.0065
12645TIP3    H159426   0.981   5.032  13.911 -0.4560 -0.4349  0.7387
12645TIP3    H259427   0.915   5.164  13.878  1.0873  0.0438 -0.5525
12646TIP3   OH259428   4.956   4.555   4.856  0.0767  0.4343 -0.0604
12646TIP3    H159429   4.922   4.561   4.945 -1.9411  1.3644 -0.8355
12646TIP3    H259430   5.051   4.555   4.867 -0.0974 -1.2708  2.1693
12647TIP3   OH259431   1.988   2.877   2.372  0.4176  0.1745 -0.1826
12647TIP3    H159432   2.044   2.815   2.418 -0.9918 -1.4606 -0.5717
12647TIP3    H259433   2.016   2.873   2.281 -1.3103 -1.8901 -0.6888
12648TIP3   OH259434   2.076   0.886  11.712  0.6727 -0.0567 -0.1576
12648TIP3    H159435   2.032   0.899  11.628 -0.7155 -0.7068  0.4334
12648TIP3    H259436   2.105   0.795  11.710  0.4620 -0.1324  0.1343
12649TIP3   OH259437   2.103   6.078   0.163 -0.2189  0.1956 -0.5842
12649TIP3    H159438   2.149   6.000   0.194 -0.0533  0.9160  1.0781
12649TIP3    H259439   2.010   6.054   0.170 -0.2646  0.7492  1.8801
12650TIP3   OH259440   4.520   1.670  15.079 -0.2642  0.2601  0.0662
12650TIP3    H159441   4.560   1.596  15.034 -2.2344 -3.3290  3.5598
12650TIP3    H259442   4.440   1.688  15.031 -0.5909 -1.0784  0.0977
12651TIP3   OH259443   4.836   2.847   0.037 -0.1018 -0.3991 -0.4770
12651TIP3    H159444   4.840   2.754   0.059 -0.7848 -0.7051 -1.5609
12651TIP3    H259445   4.751   2.858  -0.006  0.5075  0.4552 -1.5119
12652TIP3   OH259446   3.757   0.304  11.176 -0.0814  0.0476  0.5328
12652TIP3    H159447   3.691   0.355  11.223 -0.6467 -2.4027  2.6542
12652TIP3    H259448   3.754   0.338  11.086 -3.5220  0.7203  0.7508
12653TIP3   OH259449   2.824   5.260   5.814 -0.3792  0.3650  0.1213
12653TIP3    H159450   2.786   5.231   5.731 -0.7018  1.6999 -0.2321
12653TIP3    H259451   2.765   5.329   5.844 -0.1173  0.0770  1.3436
12654TIP3   OH259452   1.417   0.142  11.148  0.0377  0.3844  0.1115
12654TIP3    H159453   1.506   0.108  11.144 -0.1693 -0.0828 -1.1096
12654TIP3    H259454   1.384   0.132  11.058 -0.9958  1.2130  0.3831
12655TIP3   OH259455   5.173   5.242  17.277 -0.4009 -0.3713 -0.2546
12655TIP3    H159456   5.148   5.331  17.299 -1.3221 -0.5425 -0.5730
12655TIP3    H259457   5.263   5.249  17.246 -0.9585  0.6734 -1.7183
12656TIP3   OH259458   3.142   3.867   2.753 -0.2844  0.0980  0.0263
12656TIP3    H159459   3.201   3.823   2.814 -1.0917  0.9363  1.4786
12656TIP3    H259460   3.194   3.939   2.717  0.1255 -0.2616 -0.1112
12657TIP3   OH259461   5.995   5.603   2.093  0.8179  0.1120  0.1937
12657TIP3    H159462   6.077   5.575   2.133  1.7095  0.1436 -1.5154
12657TIP3    H259463   5.935   5.529   2.104  1.5589 -0.4958  0.1388
12658TIP3   OH259464   3.228   4.783   4.842 -0.2060 -0.3893 -0.6476
12658TIP3    H159465   3.156   4.734   4.802 -0.2214 -0.7147 -0.2383
12658TIP3    H259466   3.240   4.741   4.928  1.1807 -1.0379 -1.1292
12659TIP3   OH259467   1.178   0.174   2.247  0.1054  0.2847 -0.6296
12659TIP3    H159468   1.134   0.171   2.162  1.0968 -0.8220 -1.1282
12659TIP3    H259469   1.123   0.120   2.304 -0.8462  1.4511 -0.3901
12660TIP3   OH259470   6.047   5.563   2.780  0.2194  0.3145 -0.2791
12660TIP3    H159471   5.973   5.559   2.719  0.4705  1.0121 -0.6377
12660TIP3    H259472   6.094   5.481   2.766  0.9634  0.9783 -1.9278
12661TIP3   OH259473   3.572   2.124  15.445  0.6409 -0.0775  0.1144
12661TIP3    H159474   3.508   2.184  15.483  1.6482  0.5077  0.9378
12661TIP3    H259475   3.647   2.129  15.504  0.9364 -1.7946 -0.0584
12662TIP3   OH259476   0.750   4.082  11.502  0.0151 -0.7365  0.0612
12662TIP3    H159477   0.722   4.092  11.411  0.3378 -2.3892 -0.2412
12662TIP3    H259478   0.738   3.989  11.521 -0.2781 -0.3867  1.7976
12663TIP3   OH259479   4.832   0.113  12.169 -0.3860 -0.3054 -0.0680
12663TIP3    H159480   4.808   0.139  12.081 -0.7444 -1.6681 -0.3945
12663TIP3    H259481   4.817   0.191  12.223  1.2705  1.0325 -1.4227
12664TIP3   OH259482   3.332   1.225  11.021 -0.1331 -0.5245  0.2331
12664TIP3    H159483   3.299   1.259  11.104  1.3591 -0.7835  0.9593
12664TIP3    H259484   3.284   1.144  11.007  0.3499 -1.0250  1.3878
12665TIP3   OH259485   0.022   4.099   4.366 -0.0416 -0.0987 -0.7572
12665TIP3    H159486   0.100   4.087   4.311  0.2686 -0.8475 -0.1757
12665TIP3    H259487  -0.044   4.136   4.307  0.9469  1.1980 -1.1044
12666TIP3   OH259488   1.292   2.229  13.009  0.0542 -0.2698  0.1475
12666TIP3    H159489   1.348   2.300  12.978 -0.5054 -0.2507 -0.8813
12666TIP3    H259490   1.287   2.169  12.935 -0.9648 -0.4547  0.3505
12667TIP3   OH259491   0.238   2.430  16.684 -0.1038 -0.0076  0.0583
12667TIP3    H159492   0.161   2.377  16.661  0.7418 -1.2623  0.0196
12667TIP3    H259493   0.225   2.454  16.775 -0.6842  0.0372 -0.0351
12668TIP3   OH259494   3.556   1.900   1.706  0.2952  0.1837 -0.4516
12668TIP3    H159495   3.469   1.936   1.689 -0.1865 -1.6630 -2.2188
12668TIP3    H259496   3.550   1.809   1.678  2.5774 -0.2161  0.1830
12669TIP3   OH259497   5.296   3.110   4.114 -0.0707 -0.0620  0.4575
12669TIP3    H159498   5.356   3.037   4.099 -1.2609 -0.7441 -1.3248
12669TIP3    H259499   5.262   3.096   4.203  0.5405 -1.0326  0.5487
12670TIP3   OH259500   5.721   5.984   5.981 -0.6270  0.3060 -0.0095
12670TIP3    H159501   5.670   5.945   5.910  0.3750  1.2258 -1.2811
12670TIP3    H259502   5.667   6.057   6.012 -0.9945  0.0071  0.0497
12671TIP3   OH259503   5.804   1.369  11.453 -0.1872 -0.1460  0.2192
12671TIP3    H159504   5.804   1.273  11.459  2.5379 -0.3414 -1.3040
12671TIP3    H259505   5.723   1.390  11.407 -1.2479 -1.6171  1.3105
12672TIP3   OH259506   0.679   4.781   2.431 -0.1873  0.0892 -0.1039
12672TIP3    H159507   0.752   4.823   2.477 -0.2135  1.0459 -0.9033
12672TIP3    H259508   0.602   4.834   2.454 -0.6669 -0.9651  0.8054
12673TIP3   OH259509   0.788   2.811   4.475 -0.1971 -0.0599  0.1985
12673TIP3    H159510   0.828   2.773   4.553  0.6736  0.5651  0.0771
12673TIP3    H259511   0.838   2.891   4.459  0.3756 -0.7213 -1.6316
12674TIP3   OH259512   2.375   3.923   4.413 -0.4228  0.0410 -0.2318
12674TIP3    H159513   2.394   3.851   4.472  1.1251 -0.5877 -1.4245
12674TIP3    H259514   2.295   3.897   4.367 -1.4086  0.3579  1.2386
12675TIP3   OH259515   1.354   0.335   5.934  0.4452  0.3882 -0.1518
12675TIP3    H159516   1.343   0.243   5.959  0.3217  0.9755  2.1265
12675TIP3    H259517   1.449   0.349   5.933  0.4318  0.6775  1.3330
12676TIP3   OH259518   0.385   2.093   1.586 -0.4545 -0.2309 -0.0476
12676TIP3    H159519   0.357   2.045   1.508  0.7756  0.0150 -0.6531
12676TIP3    H259520   0.315   2.157   1.600 -0.4637  0.0619 -1.2603
12677TIP3   OH259521   6.131   2.785  16.049  0.0563  0.0450 -0.2763
12677TIP3    H159522   6.100   2.715  15.992 -1.1216 -0.0081  0.3899
12677TIP3    H259523   6.056   2.805  16.105  0.7375  1.0552  0.3094
12678TIP3   OH259524   2.402   0.136  12.039  0.1281  0.4511 -0.3299
12678TIP3    H159525   2.376   0.114  12.129  0.6510  1.0406 -0.0255
12678TIP3    H259526   2.446   0.221  12.047  0.1756  0.5069 -1.1452
12679TIP3   OH259527   5.641   5.895  15.275 -0.4440  0.2697  0.0553
12679TIP3    H159528   5.600   5.808  15.280  0.6545 -0.2249  0.7293
12679TIP3    H259529   5.569   5.956  15.293 -0.9109 -0.5758  1.1779
12680TIP3   OH259530   5.728   0.854   5.422 -0.3464 -0.2605 -0.3113
12680TIP3    H159531   5.792   0.854   5.493  0.1755  1.1202 -0.7656
12680TIP3    H259532   5.715   0.946   5.400 -0.5637 -0.6474 -1.9464
12681TIP3   OH259533   1.513   0.821  12.822  0.6350 -0.6650 -0.5353
12681TIP3    H159534   1.546   0.885  12.885  0.6259 -0.1627 -1.0309
12681TIP3    H259535   1.558   0.740  12.844  1.7910 -0.1253 -0.8381
12682TIP3   OH259536   2.478   6.667   4.149  0.1867 -0.0438  0.5798
12682TIP3    H159537   2.518   6.614   4.079  1.3668  1.7468 -0.1677
12682TIP3    H259538   2.506   6.624   4.229  0.9989 -0.6554 -0.0113
12683TIP3   OH259539   4.429   6.470   0.889  0.0330  0.0504 -0.2120
12683TIP3    H159540   4.437   6.462   0.984  0.4371  0.0119 -0.2444
12683TIP3    H259541   4.377   6.549   0.875  0.0369  0.0977  0.0440
12684TIP3   OH259542   1.632   2.049  16.017 -0.5993  0.1044 -0.4462
12684TIP3    H159543   1.712   2.088  16.053 -1.0517  0.8316 -0.2130
12684TIP3    H259544   1.643   1.955  16.032 -1.6035  0.4121  3.4646
12685TIP3   OH259545   2.381   3.821  12.045 -0.2999 -0.0219  0.1474
12685TIP3    H159546   2.333   3.886  12.096  0.4777 -1.1287  2.4126
12685TIP3    H259547   2.313   3.759  12.017 -0.7044  0.4904 -0.0358
12686TIP3   OH259548   0.480   2.136  16.474  0.3513  0.3486  0.1560
12686TIP3    H159549   0.433   2.089  16.544 -0.5908 -0.5933 -1.0678
12686TIP3    H259550   0.549   2.183  16.520  0.5692 -1.2633  1.6106
12687TIP3   OH259551   4.690   3.000  13.803 -0.3385 -0.4808 -0.1607
12687TIP3    H159552   4.696   2.980  13.897 -0.7573 -3.4403 -0.6497
12687TIP3    H259553   4.778   3.030  13.779  0.0697 -0.6983  1.0058
12688TIP3   OH259554   1.969   3.527  15.336  0.1233  0.2171  0.4848
12688TIP3    H159555   1.929   3.575  15.409  0.9336  1.1767  0.3262
12688TIP3    H259556   2.063   3.540  15.348  0.3391 -1.0354  0.2091
12689TIP3   OH259557   5.224   6.312   3.362  0.1408 -0.4944  0.2837
12689TIP3    H159558   5.215   6.265   3.445  1.3688 -1.6407 -0.2072
12689TIP3    H259559   5.143   6.363   3.355 -0.5863 -1.4267  1.5316
12690TIP3   OH259560   4.756   6.566  15.649 -0.2148 -0.3965  0.5014
12690TIP3    H159561   4.818   6.635  15.671  0.6418 -0.8183 -0.5222
12690TIP3    H259562   4.684   6.577  15.712 -0.1528  1.4687  0.2928
12691TIP3   OH259563   4.061   6.071   1.530 -0.4383 -0.1378 -0.0993
12691TIP3    H159564   4.065   6.081   1.435 -1.3801 -0.4000 -0.1806
12691TIP3    H259565   4.034   6.157   1.562 -0.9395 -0.2732 -0.1467
12692TIP3   OH259566   6.497   4.911  13.403  0.2423  0.3122 -0.4205
12692TIP3    H159567   6.505   4.825  13.363  0.2628  1.0799 -2.1836
12692TIP3    H259568   6.513   4.896  13.496 -0.4595 -1.6773 -0.5733
12693TIP3   OH259569   1.667   3.170  13.209  0.4733 -0.4310 -0.1393
12693TIP3    H159570   1.738   3.217  13.252  0.6668 -1.6494  0.9209
12693TIP3    H259571   1.591   3.229  13.216  0.8716  0.0092  0.5574
12694TIP3   OH259572   5.217   2.937  15.654 -0.0891  0.0726  0.5866
12694TIP3    H159573   5.167   3.012  15.623  0.8427  0.3816 -0.2120
12694TIP3    H259574   5.309   2.960  15.636  0.2448 -1.0554  0.7623
12695TIP3   OH259575   1.612   5.864  13.152  0.0969 -0.1685 -0.2147
12695TIP3    H159576   1.703   5.892  13.153  0.3715 -0.8804  2.1563
12695TIP3    H259577   1.594   5.839  13.061  1.6958  1.6469 -1.0838
12696TIP3   OH259578   0.742   5.917   4.616 -0.0497  0.0155 -0.4809
12696TIP3    H159579   0.702   6.003   4.599  0.6900  0.2388 -1.1624
12696TIP3    H259580   0.739   5.908   4.711 -1.2505  0.2477 -0.4817
12697TIP3   OH259581   6.623   2.023   4.084  0.1294 -0.2511  0.2162
12697TIP3    H159582   6.692   1.956   4.077 -0.5761 -0.9951  0.2676
12697TIP3    H259583   6.542   1.975   4.072 -0.5585  0.1906  2.6538
12698TIP3   OH259584   3.243   4.830  15.277  0.0145 -0.2182  0.2170
12698TIP3    H159585   3.314   4.772  15.303  0.5055  0.4667  0.4206
12698TIP3    H259586   3.187   4.775  15.222  1.0487 -0.5929 -0.5031
12699TIP3   OH259587   0.464   3.107  13.251 -0.1875  0.0250 -0.3389
12699TIP3    H159588   0.394   3.060  13.297  0.3153 -1.0390 -0.6331
12699TIP3    H259589   0.510   3.039  13.202  1.1299  0.6831 -0.0481
12700TIP3   OH259590   1.715   5.822   4.476 -0.1381  0.0004 -0.3620
12700TIP3    H159591   1.764   5.745   4.505 -0.1558 -0.1029 -0.6040
12700TIP3    H259592   1.757   5.895   4.521  0.7254  0.0018 -1.1306
12701TIP3   OH259593   3.414   1.102   1.253 -0.2002 -0.1060 -0.3946
12701TIP3    H159594   3.372   1.188   1.266 -1.7019 -0.9686  0.7856
12701TIP3    H259595   3.342   1.039   1.263  1.0023 -1.5437 -0.5442
12702TIP3   OH259596   4.270   3.363  14.903  0.0536 -0.5981 -0.0195
12702TIP3    H159597   4.287   3.290  14.843  1.4286  0.2555 -0.7322
12702TIP3    H259598   4.345   3.421  14.891 -1.9136  1.9408 -0.9454
12703TIP3   OH259599   5.635   4.812  13.035  0.3107 -0.0224  0.3105
12703TIP3    H159600   5.701   4.745  13.052 -0.1909 -0.6259 -0.0971
12703TIP3    H259601   5.623   4.809  12.940 -2.4339 -1.9858  0.6172
12704TIP3   OH259602   0.834   3.611  16.276  0.0303  0.3670  0.4831
12704TIP3    H159603   0.806   3.671  16.345  0.5626 -0.3317  1.3373
12704TIP3    H259604   0.834   3.525  16.318  0.0720 -0.1191 -0.4828
12705TIP3   OH259605   2.611   0.432  11.898 -0.0887 -0.1223 -0.2006
12705TIP3    H159606   2.597   0.352  11.848 -0.0928 -0.3207  0.1161
12705TIP3    H259607   2.705   0.446  11.896 -0.1290  0.1034 -0.6210
12706TIP3   OH259608   1.001   5.491   2.325 -0.1949  0.0721  0.1730
12706TIP3    H159609   1.028   5.409   2.366 -0.7928  0.4836  1.4683
12706TIP3    H259610   0.919   5.514   2.370 -0.4395  0.9847 -0.6969
12707TIP3   OH259611   6.079   1.205  15.543  0.1699  0.0149 -0.1317
12707TIP3    H159612   6.074   1.113  15.568 -0.2506  0.5070  1.7992
12707TIP3    H259613   6.013   1.248  15.597 -1.5745  1.1185 -2.9314
12708TIP3   OH259614   2.926   4.817   6.580 -0.6506 -0.4886 -0.0207
12708TIP3    H159615   2.894   4.727   6.579  0.7052 -0.9855 -0.3220
12708TIP3    H259616   2.847   4.871   6.587 -1.7401 -1.5599 -2.9364
12709TIP3   OH259617   0.431   1.231  13.815 -0.7016  0.0025  0.0022
12709TIP3    H159618   0.446   1.313  13.862 -0.4668 -0.1911  0.2730
12709TIP3    H259619   0.432   1.164  13.884  1.3165 -0.4987 -0.4279
12710TIP3   OH259620   1.145   4.131  16.909 -0.0798 -0.2096  0.3569
12710TIP3    H159621   1.065   4.086  16.882 -0.8574  0.4542  1.4222
12710TIP3    H259622   1.203   4.126  16.834 -0.7549 -1.5540 -0.0993
12711TIP3   OH259623   0.676   6.626  11.252 -0.0738 -0.0228  0.4018
12711TIP3    H159624   0.720   6.676  11.183 -1.6378 -0.0195 -0.6379
12711TIP3    H259625   0.657   6.690  11.320 -0.4192  0.4230 -0.1080
12712TIP3   OH259626   4.717   6.358  15.485  0.2718 -0.6060  0.3837
12712TIP3    H159627   4.784   6.384  15.422 -2.6894  2.4318 -1.9184
12712TIP3    H259628   4.729   6.418  15.559  0.3946 -0.3813  0.1835
12713TIP3   OH259629   3.585   6.530   1.345 -0.1318  0.2014  0.4803
12713TIP3    H159630   3.584   6.488   1.259 -0.3053  0.5417  0.3122
12713TIP3    H259631   3.493   6.550   1.363  0.0409  1.3526  0.1343
12714TIP3   OH259632   5.284   2.320  15.457 -0.1100  0.0513  0.2326
12714TIP3    H159633   5.329   2.246  15.497  1.0791 -1.6603 -3.7094
12714TIP3    H259634   5.344   2.394  15.468  0.8450 -0.7217  0.3314
12715TIP3   OH259635   5.685   3.686   1.887 -0.3850 -0.2134  0.3841
12715TIP3    H159636   5.777   3.691   1.861 -0.5507  0.6277 -0.0687
12715TIP3    H259637   5.663   3.593   1.878  0.3237 -0.3684  0.1701
12716TIP3   OH259638   6.799   6.557  15.023 -0.4726 -0.1885  0.4898
12716TIP3    H159639   6.804   6.482  14.964 -0.2344 -0.2411  0.5734
12716TIP3    H259640   6.866   6.617  14.990  1.4235 -1.2705  2.1475
12717TIP3   OH259641   2.125   1.857  11.057 -0.0280 -0.0239 -0.1004
12717TIP3    H159642   2.035   1.862  11.024 -0.1561  0.0351  0.2568
12717TIP3    H259643   2.115   1.836  11.150  0.3571 -2.4668 -0.5366
12718TIP3   OH259644   3.747   6.804   0.451 -0.4791  0.4910 -0.3363
12718TIP3    H159645   3.833   6.823   0.414 -0.9015  1.8906 -0.6472
12718TIP3    H259646   3.740   6.859   0.529  0.0005 -1.7108  1.3547
12719TIP3   OH259647   1.932   6.606   3.841 -0.7372  0.0592 -0.0547
12719TIP3    H159648   1.927   6.700   3.857  0.7193  0.0615  0.5229
12719TIP3    H259649   1.930   6.567   3.928  2.2128 -0.2099 -0.0221
12720TIP3   OH259650   3.450   5.927  11.475  0.3781 -0.7017  0.3807
12720TIP3    H159651   3.453   6.005  11.531 -1.2399 -0.1872 -0.1893
12720TIP3    H259652   3.443   5.854  11.536  2.3405 -0.4829  0.9455
12721TIP3   OH259653   3.372   1.399   2.748  0.6470  1.1286  0.3899
12721TIP3    H159654   3.448   1.386   2.804  0.6475 -2.3793 -0.2417
12721TIP3    H259655   3.407   1.435   2.667  1.6055 -0.1420  0.2243
12722TIP3   OH259656   3.079   1.299  12.368 -0.3829 -0.3740 -0.4198
12722TIP3    H159657   3.105   1.207  12.370 -2.9880 -1.2044 -0.1818
12722TIP3    H259658   3.037   1.310  12.282  0.5089  0.8044 -0.7321
12723TIP3   OH259659   6.822   4.417   1.043 -0.0310  0.2325  0.1905
12723TIP3    H159660   6.737   4.429   1.085  0.3245 -0.1377  1.0541
12723TIP3    H259661   6.811   4.340   0.987 -0.3805  0.4489 -0.0407
12724TIP3   OH259662   6.578   0.195   4.106 -0.5700  0.0091 -0.0884
12724TIP3    H159663   6.493   0.152   4.097 -1.4966  1.5355  0.9101
12724TIP3    H259664   6.556   0.288   4.114  1.2933  0.5922 -1.2592
12725TIP3   OH259665   0.929   0.931   5.090 -0.2853  0.4231  0.5179
12725TIP3    H159666   0.887   0.987   5.025 -0.0659 -1.6653 -1.5618
12725TIP3    H259667   0.857   0.891   5.139 -0.8697 -1.8874 -1.9497
12726TIP3   OH259668   2.321   1.756   4.912 -0.1326 -0.2254 -0.7562
12726TIP3    H159669   2.350   1.695   4.979 -0.1180  0.3625 -0.2255
12726TIP3    H259670   2.230   1.730   4.894  0.2528 -1.1576 -1.3985
12727TIP3   OH259671   5.848   6.045  16.060  0.3929 -0.3162 -0.1859
12727TIP3    H159672   5.772   6.022  16.006  1.5379  0.5808 -2.2814
12727TIP3    H259673   5.844   5.983  16.133 -2.8179  0.2663  0.2771
12728TIP3   OH259674   2.589   1.437  15.457 -0.4369 -0.7596  0.2611
12728TIP3    H159675   2.633   1.386  15.389 -0.5035 -0.8843  0.3111
12728TIP3    H259676   2.654   1.446  15.526  0.4972  1.4451 -0.8073
12729TIP3   OH259677   1.621   6.734  15.677  0.0591 -0.3744 -0.1152
12729TIP3    H159678   1.702   6.735  15.626  0.3304 -0.7133  0.2948
12729TIP3    H259679   1.616   6.644  15.711 -0.8527 -0.5657 -0.7049
12730TIP3   OH259680   2.073   1.993   6.093 -0.0588  0.3497  0.1907
12730TIP3    H159681   2.056   2.050   6.018 -2.0568 -1.5719 -0.9196
12730TIP3    H259682   2.020   2.029   6.163 -2.2312 -0.6959 -0.8357
12731TIP3   OH259683   6.588   2.739  13.981  0.3070  0.2589  0.0331
12731TIP3    H159684   6.567   2.740  14.074 -0.2452  2.5729 -0.0480
12731TIP3    H259685   6.592   2.647  13.958 -1.7116 -0.3751  1.8757
12732TIP3   OH259686   0.958   0.437  14.091 -0.0411 -0.3453  0.2492
12732TIP3    H159687   0.873   0.463  14.125 -0.7211 -2.3396  0.1806
12732TIP3    H259688   0.950   0.343  14.076  1.6415 -0.2839 -1.3211
12733TIP3   OH259689   3.859   4.229   1.691  0.0398 -0.1918  0.1264
12733TIP3    H159690   3.816   4.211   1.607 -0.1403  1.7439 -0.2478
12733TIP3    H259691   3.846   4.323   1.705  0.8769 -0.2919  1.8828
12734TIP3   OH259692   4.218   0.468   4.471 -0.2059 -0.4633 -0.8810
12734TIP3    H159693   4.126   0.444   4.471 -0.2891 -0.1781  0.1314
12734TIP3    H259694   4.256   0.421   4.545  0.4718 -0.5860 -1.2880
12735TIP3   OH259695   1.192   6.691  12.893 -0.0207 -0.1122  1.0152
12735TIP3    H159696   1.118   6.668  12.836 -0.3796  0.5650  1.1835
12735TIP3    H259697   1.201   6.617  12.952 -0.8591 -0.0277  1.2722
12736TIP3   OH259698   1.120   2.666  11.326 -0.2688 -0.6022 -0.1230
12736TIP3    H159699   1.118   2.640  11.234  2.7287  1.2314 -0.8366
12736TIP3    H259700   1.173   2.599  11.369 -2.1028 -1.7521  0.4807
12737TIP3   OH259701   0.931   4.971  16.812  0.3102 -0.2295  0.3326
12737TIP3    H159702   0.986   5.049  16.804  0.4648 -0.2949  0.7220
12737TIP3    H259703   0.914   4.944  16.722  0.9143 -0.2087  0.2076
12738TIP3   OH259704   1.229   5.694   4.379 -0.1830  0.1077  0.3833
12738TIP3    H159705   1.164   5.743   4.430 -0.3082 -0.3174  0.6369
12738TIP3    H259706   1.234   5.740   4.296 -2.0279 -0.8002 -0.2787
12739TIP3   OH259707   5.293   2.321  12.342 -0.5870  0.2204  0.1091
12739TIP3    H159708   5.315   2.369  12.422  1.0674 -2.4756  1.4338
12739TIP3    H259709   5.324   2.376  12.271 -0.0004  1.6961  1.4513
12740TIP3   OH259710   5.665   0.259   4.151  0.1179 -0.4744  0.0139
12740TIP3    H159711   5.599   0.290   4.213 -0.9668 -0.1003 -1.2675
12740TIP3    H259712   5.711   0.338   4.123  0.8042 -0.6760  0.5266
12741TIP3   OH259713   2.546   4.532   2.909 -0.1197  0.3631 -0.3069
12741TIP3    H159714   2.464   4.581   2.921  0.9011  1.9032  0.7910
12741TIP3    H259715   2.607   4.597   2.875  0.8780 -0.5537 -0.3096
12742TIP3   OH259716   1.176   1.106  12.490 -0.3548 -0.3405 -0.4447
12742TIP3    H159717   1.219   1.164  12.427  0.0470 -0.9452 -0.7421
12742TIP3    H259718   1.211   1.019  12.469  0.9330 -0.3711  1.5906
12743TIP3   OH259719   4.603   6.374  11.335 -0.7620  0.5753  0.3440
12743TIP3    H159720   4.593   6.289  11.291 -1.4157  1.0365 -0.4258
12743TIP3    H259721   4.676   6.416  11.290 -1.3787  1.0137 -0.2733
12744TIP3   OH259722   2.892   0.877   5.329 -0.5757 -0.1384 -0.0454
12744TIP3    H159723   2.944   0.807   5.370 -0.2646  0.7839  1.1894
12744TIP3    H259724   2.811   0.879   5.380 -0.2734  0.8819  0.4295
12745TIP3   OH259725   0.549   2.273  13.591  0.3531 -0.0391  0.5301
12745TIP3    H159726   0.503   2.332  13.651 -1.3815 -2.3358  1.6003
12745TIP3    H259727   0.535   2.311  13.505  1.8269  2.6614  1.3648
12746TIP3   OH259728   4.605   1.393   1.433  0.1377  0.3160  0.5102
12746TIP3    H159729   4.564   1.466   1.388  0.6976  0.0949 -0.3895
12746TIP3    H259730   4.665   1.355   1.368 -0.3099 -1.0813  0.8804
12747TIP3   OH259731   1.194   6.257  16.683  0.0435 -0.0860  0.1927
12747TIP3    H159732   1.284   6.251  16.712  1.4220  1.0580 -3.2415
12747TIP3    H259733   1.173   6.350  16.690 -0.5146 -0.2043  0.1399
12748TIP3   OH259734   1.681   5.025  15.227  0.0494 -0.3123  0.1483
12748TIP3    H159735   1.640   5.110  15.220 -0.4439 -0.5047  0.7169
12748TIP3    H259736   1.682   5.005  15.320  0.7340 -0.6502  0.0775
12749TIP3   OH259737   4.648   2.365  11.417  0.2397  0.0771 -0.5351
12749TIP3    H159738   4.596   2.438  11.385 -1.4123 -0.2785  1.1677
12749TIP3    H259739   4.601   2.334  11.495  0.9115 -2.7267 -1.1376
12750TIP3   OH259740   5.881   3.901  13.967 -0.2140  0.0820 -0.1206
12750TIP3    H159741   5.851   3.911  14.057 -0.2983  1.2070 -0.2618
12750TIP3    H259742   5.896   3.807  13.957 -2.3407 -0.3651  0.3911
12751TIP3   OH259743   6.646   4.036  12.725 -0.0362  0.3562 -0.0746
12751TIP3    H159744   6.726   4.047  12.674 -0.0115 -2.7971 -0.9154
12751TIP3    H259745   6.577   4.071  12.669  0.5403  1.8608  0.0933
12752TIP3   OH259746   0.698   3.912  14.204  0.3213 -0.3198  0.0262
12752TIP3    H159747   0.714   4.001  14.234 -0.3380  0.1085 -0.8365
12752TIP3    H259748   0.783   3.881  14.171  0.9204 -0.6006  1.7406
12753TIP3   OH259749   4.399   5.074  15.272  0.2867 -0.0300 -0.1390
12753TIP3    H159750   4.396   4.984  15.304 -1.1871 -0.1249 -0.4692
12753TIP3    H259751   4.308   5.105  15.280  0.7308  1.3615 -0.2099
12754TIP3   OH259752   6.164   4.555  16.942 -1.1958  0.0169  0.0769
12754TIP3    H159753   6.191   4.472  16.901 -1.8403 -0.9743  1.5661
12754TIP3    H259754   6.136   4.530  17.030 -4.5446  1.3196 -0.4894
12755TIP3   OH259755   0.209   6.544  10.739  0.5158  0.2967 -0.7936
12755TIP3    H159756   0.191   6.454  10.768 -0.4348  0.8706  0.4662
12755TIP3    H259757   0.270   6.578  10.804 -2.0518  1.7799  0.9996
12756TIP3   OH259758   0.348   4.473  16.578  0.3443  0.0286  0.7285
12756TIP3    H159759   0.255   4.488  16.559  0.0841 -3.5854 -1.8087
12756TIP3    H259760   0.394   4.535  16.521 -0.5686 -0.6268 -0.7899
12757TIP3   OH259761   0.993   5.604  14.273 -0.0959  0.1084 -0.3424
12757TIP3    H159762   1.006   5.611  14.368  0.3498  0.5672 -0.4319
12757TIP3    H259763   0.920   5.662  14.254 -0.2148 -0.0185 -0.2728
12758TIP3   OH259764   3.181   5.578  14.591 -0.1612 -0.4339 -0.1206
12758TIP3    H159765   3.247   5.548  14.653  1.2717 -1.3362 -1.9735
12758TIP3    H259766   3.172   5.506  14.529 -3.3737 -0.5960  0.3579
12759TIP3   OH259767   3.816   6.752   0.028 -0.2326  0.2955 -0.0528
12759TIP3    H159768   3.884   6.783  -0.031 -0.0740  1.7648  0.8408
12759TIP3    H259769   3.838   6.660   0.045 -0.1694 -0.0982 -2.0669
12760TIP3   OH259770   5.765   6.233   4.874 -0.1289 -0.1319  0.1793
12760TIP3    H159771   5.835   6.298   4.874 -1.0025  0.8543 -0.8570
12760TIP3    H259772   5.774   6.187   4.957 -0.8397  2.8284  2.0142
12761TIP3   OH259773   2.840   4.130   4.024 -0.1393  0.4132 -0.0929
12761TIP3    H159774   2.747   4.135   4.002 -0.0418  0.6920 -0.4516
12761TIP3    H259775   2.842   4.136   4.119 -0.5457 -0.4985 -0.0165
12762TIP3   OH259776   4.131   6.291  10.871  0.0796  0.1166 -0.3178
12762TIP3    H159777   4.072   6.366  10.868  0.0723  0.1285  0.0142
12762TIP3    H259778   4.189   6.303  10.796  0.5708  0.8711  0.1584
12763TIP3   OH259779   2.235   3.427   6.428 -0.2482  0.2454 -0.8621
12763TIP3    H159780   2.149   3.454   6.462 -0.5027 -1.3469 -0.1575
12763TIP3    H259781   2.255   3.346   6.475 -0.6125 -2.1380 -4.4583
12764TIP3   OH259782   5.282   5.580   5.033  0.4308  0.2241 -0.3645
12764TIP3    H159783   5.206   5.614   5.081 -0.1212 -1.3034 -0.0853
12764TIP3    H259784   5.322   5.518   5.094  0.5026 -0.7431 -1.3765
12765TIP3   OH259785   3.155   5.414  16.683 -0.7132 -0.4853 -0.2463
12765TIP3    H159786   3.189   5.502  16.698  1.1986 -0.8886 -1.7723
12765TIP3    H259787   3.108   5.392  16.763  0.8387  0.9797  1.1494
12766TIP3   OH259788   2.172   5.779   6.512 -0.4574 -0.0026 -0.3363
12766TIP3    H159789   2.161   5.685   6.507 -0.9142  0.0413 -0.2192
12766TIP3    H259790   2.096   5.815   6.466  1.4588  0.2879 -3.5822
12767TIP3   OH259791   5.893   2.326  13.735 -0.0988  0.5427 -0.0708
12767TIP3    H159792   5.945   2.247  13.749 -1.1995  0.1159  2.2509
12767TIP3    H259793   5.938   2.394  13.785 -1.0724  0.4310  1.0284
12768TIP3   OH259794   0.461   4.680  16.432 -0.1727 -0.3024 -0.1456
12768TIP3    H159795   0.511   4.738  16.374  1.2147 -0.1994  1.0997
12768TIP3    H259796   0.411   4.739  16.488 -0.1139 -0.3582 -0.0342
12769TIP3   OH259797   0.575   4.244   3.056  0.6220  0.4019  0.2126
12769TIP3    H159798   0.616   4.248   3.143  1.1832 -0.4971  0.0053
12769TIP3    H259799   0.619   4.313   3.006 -0.8121  2.0143  1.0619
12770TIP3   OH259800   4.843   4.394  16.500  0.0083  0.0480  0.5193
12770TIP3    H159801   4.789   4.463  16.462  2.3295  1.7019 -0.0295
12770TIP3    H259802   4.915   4.384  16.438  2.1023  0.3975  2.7470
12771TIP3   OH259803   5.201   4.114   2.197 -0.9421 -0.1997 -0.2503
12771TIP3    H159804   5.112   4.115   2.162 -0.6644 -0.1353 -0.9889
12771TIP3    H259805   5.218   4.206   2.219 -1.6042 -0.4451  1.3667
12772TIP3   OH259806   5.592   0.611   4.003 -0.3582 -0.2547 -0.0967
12772TIP3    H159807   5.506   0.598   4.042 -1.0258  1.8759 -0.7194
12772TIP3    H259808   5.648   0.638   4.076  0.2249 -3.0574  0.5848
12773TIP3   OH259809   4.580   6.760   3.804  0.0874 -0.3146  0.1871
12773TIP3    H159810   4.659   6.775   3.752 -0.7967  0.1361 -1.0823
12773TIP3    H259811   4.542   6.680   3.767 -1.2924  0.7726 -0.8700
12774TIP3   OH259812   3.985   3.507   1.517  0.5878  0.1386 -0.6098
12774TIP3    H159813   4.005   3.534   1.606  0.4978 -1.7923  0.0386
12774TIP3    H259814   3.983   3.589   1.467 -1.2676  1.4920  1.4815
12775TIP3   OH259815   3.866   4.559   0.666  0.2648 -0.4814  0.5693
12775TIP3    H159816   3.877   4.535   0.574 -0.7090 -0.5296  0.4554
12775TIP3    H259817   3.778   4.529   0.688  0.0847  0.5011  1.2154
12776TIP3   OH259818   1.130   0.995   5.260 -0.6582 -0.3475  0.1206
12776TIP3    H159819   1.073   1.007   5.185 -1.0481 -0.5412  0.3825
12776TIP3    H259820   1.168   0.908   5.248  1.0396  0.4925 -1.0201
12777TIP3   OH259821   2.495   4.429   0.116  0.1420  0.5028 -0.1852
12777TIP3    H159822   2.500   4.358   0.180  1.5986  0.1366 -0.6601
12777TIP3    H259823   2.567   4.488   0.139 -0.6267  1.4804 -0.2142
12778TIP3   OH259824   6.533   2.551   5.535  0.1466 -0.1271  0.0444
12778TIP3    H159825   6.610   2.520   5.583  1.1954  2.5184  0.2032
12778TIP3    H259826   6.460   2.535   5.596  0.9691 -0.0347  1.0877
12779TIP3   OH259827   3.058   2.222   5.580  0.4079  0.4800 -0.9065
12779TIP3    H159828   3.131   2.162   5.565 -0.9424 -1.1489 -1.2556
12779TIP3    H259829   3.024   2.243   5.493 -1.0077 -0.7187 -0.6853
12780TIP3   OH259830   3.952   5.752  16.705  0.2473  0.0934  0.1675
12780TIP3    H159831   3.917   5.840  16.717  0.4559  0.1538  0.3324
12780TIP3    H259832   3.977   5.723  16.793 -0.9560 -0.6100  0.2976
12781TIP3   OH259833   4.910   6.051   2.223  0.2396  0.4176  0.1364
12781TIP3    H159834   4.839   6.114   2.233  0.4760  1.0003 -1.5243
12781TIP3    H259835   4.872   5.981   2.170 -0.1786 -1.1713  2.3874
12782TIP3   OH259836   0.777   4.136  13.264  1.1606  0.9656  0.1694
12782TIP3    H159837   0.858   4.188  13.269  1.2998  0.9778 -1.5346
12782TIP3    H259838   0.772   4.091  13.348  2.1860  2.0595  0.8512
12783TIP3   OH259839   0.554   2.734  14.651  0.2035 -0.3390 -0.1648
12783TIP3    H159840   0.490   2.664  14.637  1.1495 -1.1156 -0.6964
12783TIP3    H259841   0.540   2.761  14.742 -0.7563 -0.6126 -0.2218
12784TIP3   OH259842   3.411   1.531   2.492  0.5296  0.4982 -0.8318
12784TIP3    H159843   3.324   1.564   2.514  1.0536  0.6076  1.2561
12784TIP3    H259844   3.466   1.610   2.490  1.3465  0.0876  1.9661
12785TIP3   OH259845   2.102   2.408  13.324  0.0884 -0.5969 -0.2738
12785TIP3    H159846   2.010   2.404  13.352 -0.0144  0.0924 -0.4974
12785TIP3    H259847   2.108   2.488  13.273  0.5084 -1.3285 -1.3941
12786TIP3   OH259848   4.673   4.672  12.739  0.2639 -0.9907  0.2584
12786TIP3    H159849   4.730   4.712  12.806  0.4252  0.3886 -0.6597
12786TIP3    H259850   4.589   4.661  12.784  0.2767  0.2235  0.6294
12787TIP3   OH259851   3.117   6.578   4.194 -0.4551  0.0282  0.4927
12787TIP3    H159852   3.048   6.644   4.187  0.0705  0.5220 -0.1529
12787TIP3    H259853   3.187   6.621   4.244  0.8041  0.7717 -1.7900
12788TIP3   OH259854   6.212   4.382  12.899  0.4723 -0.5207  0.2182
12788TIP3    H159855   6.202   4.391  12.994  2.2862  0.5967  0.3704
12788TIP3    H259856   6.238   4.290  12.886  2.9600 -0.0283  1.1711
12789TIP3   OH259857   0.842   5.026   3.300 -0.0913 -0.4340 -0.2669
12789TIP3    H159858   0.831   5.121   3.293  1.0447  0.2253  4.1412
12789TIP3    H259859   0.781   5.000   3.369 -0.2921 -3.0024 -1.2885
12790TIP3   OH259860   6.014   6.240  15.954 -0.4918 -0.6111 -0.1815
12790TIP3    H159861   5.963   6.285  15.887  0.8470 -2.5415 -2.6474
12790TIP3    H259862   5.957   6.168  15.982  0.0393 -1.5656 -1.4672
12791TIP3   OH259863   0.755   0.792  11.300  0.0701 -1.0341 -0.2302
12791TIP3    H159864   0.729   0.883  11.286 -0.6257 -1.1172  0.4086
12791TIP3    H259865   0.803   0.793  11.383 -0.8809 -1.3900  0.3496
12792TIP3   OH259866   6.050   3.372  12.943 -0.6976  0.0382 -0.7989
12792TIP3    H159867   6.072   3.293  12.893  0.3548 -0.9138  1.0933
12792TIP3    H259868   5.973   3.347  12.995 -0.1147  0.1044  0.1133
12793TIP3   OH259869   0.384   0.270  16.282  0.5786 -0.0705 -0.1221
12793TIP3    H159870   0.349   0.278  16.370  0.3425  0.5264 -0.2642
12793TIP3    H259871   0.418   0.358  16.262 -2.7059  0.9114 -2.0304
12794TIP3   OH259872   2.710   3.723  12.093  0.6754  0.0715 -0.3160
12794TIP3    H159873   2.782   3.786  12.096  0.5069  0.3070 -1.0192
12794TIP3    H259874   2.660   3.748  12.016  0.1932 -0.4796 -0.1862
12795TIP3   OH259875   3.445   0.547  16.260  0.1979 -0.0447 -0.3252
12795TIP3    H159876   3.432   0.458  16.293  2.8172  0.2803  2.0056
12795TIP3    H259877   3.535   0.547  16.227 -0.3424  1.3227 -1.9267
12796TIP3   OH259878   4.336   3.625   3.792 -0.1470 -0.5571 -0.1744
12796TIP3    H159879   4.324   3.538   3.754  0.3828 -0.5966 -0.2674
12796TIP3    H259880   4.366   3.678   3.718  0.0209 -0.4187 -0.0066
12797TIP3   OH259881   5.896   3.235  13.364  0.0894 -0.2911  0.0896
12797TIP3    H159882   5.933   3.251  13.451 -0.8897  0.8590  0.3108
12797TIP3    H259883   5.854   3.149  13.371 -0.9508  0.2795  1.1001
12798TIP3   OH259884   0.932   0.298  13.283 -0.0449 -0.3084 -0.2596
12798TIP3    H159885   0.956   0.332  13.369 -0.0551 -1.2237  0.1090
12798TIP3    H259886   0.894   0.212  13.300 -0.0031 -0.5218 -1.1809
12799TIP3   OH259887   4.912   3.332  15.878  0.4005  0.5201 -0.5451
12799TIP3    H159888   4.883   3.376  15.798 -0.5280  0.0095 -0.5164
12799TIP3    H259889   5.004   3.312  15.863  0.5747  1.6037 -0.9410
12800TIP3   OH259890   1.179   0.169  12.508  0.1768  0.4529 -0.3945
12800TIP3    H159891   1.189   0.245  12.450  0.4042  1.6860  1.1843
12800TIP3    H259892   1.211   0.200  12.592 -1.0700 -0.9776  0.6460
12801TIP3   OH259893   1.309   4.601   5.196 -0.4231  0.5940  0.2282
12801TIP3    H159894   1.289   4.638   5.282 -1.9553  1.3390 -0.4195
12801TIP3    H259895   1.224   4.577   5.160  0.1059  1.2513 -1.5149
12802TIP3   OH259896   0.813   5.386   1.379  0.6846 -0.6131  0.4784
12802TIP3    H159897   0.764   5.464   1.404  1.1845  0.4130 -1.4712
12802TIP3    H259898   0.822   5.335   1.459  1.3221  1.8892  2.1003
12803TIP3   OH259899   5.323   3.018   3.795 -0.1941  0.1463  0.2087
12803TIP3    H159900   5.415   3.033   3.818  0.6261 -0.8728 -2.1036
12803TIP3    H259901   5.297   3.098   3.750 -0.6549  0.6690  1.3702
12804TIP3   OH259902   4.396   5.398   4.792 -0.7228  0.4809  0.0179
12804TIP3    H159903   4.432   5.486   4.791  0.3171  0.0998  1.0624
12804TIP3    H259904   4.313   5.407   4.840 -1.1246  1.0482 -0.7649
12805TIP3   OH259905   2.864   3.491   4.706 -0.6794  0.2817 -0.1140
12805TIP3    H159906   2.849   3.532   4.791 -0.1861  0.2760 -0.0186
12805TIP3    H259907   2.777   3.468   4.674 -0.7909 -1.3178  1.1709
12806TIP3   OH259908   4.771   6.075   4.921 -0.3443  0.6470  0.4335
12806TIP3    H159909   4.676   6.062   4.927 -0.7372  2.4188 -1.1393
12806TIP3    H259910   4.787   6.095   4.829  1.7178 -0.5244  0.4814
12807TIP3   OH259911   0.802   4.995  11.954  0.0941  0.7772 -0.2548
12807TIP3    H159912   0.843   5.002  12.040 -0.3730 -1.5040  0.2331
12807TIP3    H259913   0.796   5.085  11.923 -0.8969  1.8404  2.6551
12808TIP3   OH259914   5.751   0.217  16.924 -0.1169 -0.2845 -0.2989
12808TIP3    H159915   5.757   0.138  16.869  2.3933 -0.1047 -0.4098
12808TIP3    H259916   5.719   0.285  16.866 -2.1215 -1.1370 -0.2569
12809TIP3   OH259917   4.915   2.413   0.349 -0.7917  0.3974 -0.6145
12809TIP3    H159918   4.838   2.444   0.301  0.7586  0.9596 -2.8871
12809TIP3    H259919   4.934   2.484   0.410 -2.3685 -0.0132  0.4410
12810TIP3   OH259920   3.564   0.260  15.827  0.0122  0.3892  0.9820
12810TIP3    H159921   3.642   0.212  15.854 -0.1941  0.3475  1.5157
12810TIP3    H259922   3.514   0.198  15.774 -0.9078 -0.4682  2.7559
12811TIP3   OH259923   0.521   6.605  11.972  0.2521 -0.3775  0.3231
12811TIP3    H159924   0.592   6.544  11.989  0.7006  0.1723  0.4333
12811TIP3    H259925   0.442   6.560  12.003  0.1327 -2.1161 -2.1679
12812TIP3   OH259926   2.297   6.387   1.379  0.1289 -0.4052 -0.3147
12812TIP3    H159927   2.381   6.425   1.404  0.0908 -0.4223 -0.1583
12812TIP3    H259928   2.243   6.393   1.459 -0.5714  1.1256 -0.8450
12813TIP3   OH259929   5.521   1.456  11.460  0.0035  0.1788  0.0143
12813TIP3    H159930   5.518   1.461  11.364  2.7153 -1.4365 -0.2707
12813TIP3    H259931   5.496   1.543  11.489 -3.2863  0.0732 -1.9967
12814TIP3   OH259932   3.139   5.799   4.815  0.0461  0.6726 -0.1325
12814TIP3    H159933   3.172   5.884   4.842  0.7046  0.3597  0.0584
12814TIP3    H259934   3.196   5.736   4.858  0.6157  0.1534 -1.6072
12815TIP3   OH259935   1.520   1.619   0.804  0.0877 -0.5223  0.2036
12815TIP3    H159936   1.430   1.626   0.772  0.3267  0.0026 -0.3755
12815TIP3    H259937   1.551   1.535   0.768 -0.1860 -0.7341  0.4556
12816TIP3   OH259938   2.510   2.899   4.389 -0.8740  0.0003 -0.3385
12816TIP3    H159939   2.531   2.852   4.309 -1.0162 -0.6794  0.0195
12816TIP3    H259940   2.536   2.840   4.460  1.6263  1.5690  0.1890
12817TIP3   OH259941   3.738   5.632   4.727  0.1728 -0.0393  0.2288
12817TIP3    H159942   3.701   5.634   4.638 -0.2741 -1.5174  0.3582
12817TIP3    H259943   3.757   5.540   4.743  2.2209  0.4578  0.9020
12818TIP3   OH259944   1.011   2.957   3.622  0.2347 -0.0839  0.2740
12818TIP3    H159945   0.936   2.898   3.615  1.2917 -1.4688  0.2782
12818TIP3    H259946   1.086   2.900   3.640  1.4320  1.1824 -0.4824
12819TIP3   OH259947   0.589   3.954  11.746 -0.5642 -0.5623 -0.5722
12819TIP3    H159948   0.494   3.962  11.735 -0.3821 -1.1949 -3.4260
12819TIP3    H259949   0.608   4.003  11.826 -3.2183 -0.0163 -0.1793
12820TIP3   OH259950   1.477   5.645   5.206 -0.6077 -0.0152 -0.0045
12820TIP3    H159951   1.539   5.635   5.134 -2.2996  1.8547 -1.8608
12820TIP3    H259952   1.477   5.560   5.250  1.3531 -0.8456 -1.4881
12821TIP3   OH259953   4.553   2.995   0.364  0.0152  0.5277 -0.0616
12821TIP3    H159954   4.532   3.084   0.335  0.1638  0.2450 -1.0831
12821TIP3    H259955   4.513   2.988   0.450 -1.7373  0.9396 -0.7945
12822TIP3   OH259956   6.600   2.471   3.282 -0.2395 -0.1972  0.7300
12822TIP3    H159957   6.676   2.415   3.269  0.1684  0.6565 -0.8446
12822TIP3    H259958   6.637   2.559   3.293 -0.9275  0.9349 -3.8623
12823TIP3   OH259959   5.155   3.459   5.614  0.2821 -0.6738  0.5398
12823TIP3    H159960   5.145   3.437   5.522  0.0921  0.8655  0.1707
12823TIP3    H259961   5.152   3.555   5.617  0.4321 -0.6858  2.1244
12824TIP3   OH259962   5.670   2.871   1.408  0.9303  0.2185  0.0956
12824TIP3    H159963   5.624   2.817   1.472  0.3228 -0.1823 -0.6612
12824TIP3    H259964   5.762   2.848   1.419  0.9563  0.9233  1.5294
12825TIP3   OH259965   4.268   5.404  13.606  0.0068 -0.5513  0.8939
12825TIP3    H159966   4.211   5.348  13.658 -1.1106  0.0890  0.4046
12825TIP3    H259967   4.274   5.485  13.657  1.7811 -1.1403  1.6997
12826TIP3   OH259968   4.070   3.014  13.868 -0.3696  0.5395  0.5233
12826TIP3    H159969   4.062   3.028  13.962 -0.1753 -0.0499  0.6352
12826TIP3    H259970   4.151   3.059  13.843 -0.8057  1.3272  0.4959
12827TIP3   OH259971   0.971   1.420  11.872 -0.0189  0.1212  0.2238
12827TIP3    H159972   0.881   1.443  11.850  0.4568  1.5952 -0.3369
12827TIP3    H259973   0.987   1.461  11.957  0.8373  2.0452 -0.7849
12828TIP3   OH259974   3.406   0.485   4.499 -0.3017  0.2323 -0.0198
12828TIP3    H159975   3.335   0.547   4.483  0.1715  0.4670 -1.3167
12828TIP3    H259976   3.373   0.428   4.569 -1.7787  0.3332 -0.6044
12829TIP3   OH259977   2.453   5.715  14.719  0.6551 -1.0565 -0.3749
12829TIP3    H159978   2.547   5.697  14.716  0.4909 -2.3639  0.9394
12829TIP3    H259979   2.444   5.783  14.786  0.8037  0.4015 -1.7884
12830TIP3   OH259980   2.213   2.268  12.803  0.1942  0.6897 -0.3343
12830TIP3    H159981   2.149   2.204  12.834  0.5985 -0.0208 -0.9380
12830TIP3    H259982   2.169   2.352  12.811 -0.9420  0.1783 -1.0594
12831TIP3   OH259983   6.040   5.181   4.142  0.3515  0.6838  0.1944
12831TIP3    H159984   5.987   5.184   4.221  0.3285  0.8085  0.1737
12831TIP3    H259985   6.010   5.255   4.089 -0.2076  0.1188 -0.2984
12832TIP3   OH259986   4.436   5.232   4.371 -0.0465  0.1903 -0.0437
12832TIP3    H159987   4.458   5.139   4.374 -2.0352 -0.2991  2.5194
12832TIP3    H259988   4.423   5.250   4.277  0.0109 -2.2017 -0.5749
12833TIP3   OH259989   3.333   5.717  11.115 -0.5025 -0.5580 -0.1235
12833TIP3    H159990   3.288   5.798  11.091  1.3746  0.5576 -0.1205
12833TIP3    H259991   3.380   5.691  11.035  1.2864  0.0593  0.6731
12834TIP3   OH259992   5.025   2.258  17.208  0.5123 -0.1716  0.2448
12834TIP3    H159993   5.037   2.309  17.288  1.2037  0.2628 -0.1175
12834TIP3    H259994   4.930   2.251  17.196  0.3919 -0.8632  1.4803
12835TIP3   OH259995   0.815   4.248   5.910  0.0218  0.0623 -0.1356
12835TIP3    H159996   0.824   4.195   5.831  2.2379  0.2861 -0.1067
12835TIP3    H259997   0.837   4.189   5.982  2.6290  0.9156 -0.1121
12836TIP3   OH259998   2.050   0.059  10.758  0.4175 -0.2426 -0.0322
12836TIP3    H159999   2.130   0.079  10.709 -0.3156 -0.0783 -1.1911
12836TIP3    H260000   1.993   0.015  10.695 -0.5288 -0.0875  0.6862
12837TIP3   OH260001   2.339   2.371  11.628  0.4702 -1.0050  0.0020
12837TIP3    H160002   2.383   2.413  11.553  1.2514 -0.3484  0.8028
12837TIP3    H260003   2.381   2.286  11.635  1.5700 -0.4330  0.6820
12838TIP3   OH260004   3.403   2.032  11.040 -0.0164  0.3081 -0.0963
12838TIP3    H160005   3.481   2.003  10.992  0.4596  0.7758  0.3807
12838TIP3    H260006   3.329   1.994  10.991  0.5540 -1.5894  0.4313
12839TIP3   OH260007   3.254   2.174   2.595 -0.3652 -0.0580  0.6063
12839TIP3    H160008   3.221   2.113   2.662  0.6098 -0.4969  0.7137
12839TIP3    H260009   3.341   2.199   2.627 -0.6809  1.2603  0.4653
12840TIP3   OH260010   1.786   2.579  16.527  0.9678 -0.5920  0.0660
12840TIP3    H160011   1.842   2.647  16.488 -0.0551  0.3124  0.1370
12840TIP3    H260012   1.838   2.544  16.599  1.3307  0.4349  0.3195
12841TIP3   OH260013   3.683   0.483   4.520  0.2269  0.0758 -0.5860
12841TIP3    H160014   3.595   0.488   4.481  0.8345  1.0343 -1.9017
12841TIP3    H260015   3.686   0.555   4.582 -0.0429 -0.2165 -0.2244
12842TIP3   OH260016   1.124   3.397  12.356 -0.3841  0.3442  0.4966
12842TIP3    H160017   1.210   3.400  12.313 -0.5033  0.6751  0.2811
12842TIP3    H260018   1.076   3.330  12.308 -0.1225 -0.1032  0.8505
12843TIP3   OH260019   4.702   2.833   5.709 -0.1782  0.2328  0.4496
12843TIP3    H160020   4.665   2.910   5.665  0.5903  0.0274 -0.6030
12843TIP3    H260021   4.626   2.779   5.732 -0.7194  1.2336  1.0920
12844TIP3   OH260022   3.679   4.921  14.635 -0.2478 -0.4434 -0.2099
12844TIP3    H160023   3.668   4.829  14.660  0.2026 -0.3749  0.2507
12844TIP3    H260024   3.724   4.917  14.550  0.9046 -0.6381  0.3936
12845TIP3   OH260025   5.497   6.535   2.240 -0.2427 -0.2498 -0.3137
12845TIP3    H160026   5.563   6.545   2.309 -0.3836  0.2496 -0.2497
12845TIP3    H260027   5.495   6.441   2.223 -0.7010 -0.4666  0.8570
12846TIP3   OH260028   0.108   3.665   4.320  0.1864 -0.2267  0.1356
12846TIP3    H160029   0.196   3.699   4.338  0.3575 -0.7322  0.2975
12846TIP3    H260030   0.124   3.579   4.280 -0.2337 -0.3253  0.1746
12847TIP3   OH260031   1.466   3.455  14.753  0.2748  0.8272 -0.2365
12847TIP3    H160032   1.498   3.375  14.795 -0.2173 -0.0434 -1.4644
12847TIP3    H260033   1.541   3.515  14.757  0.5793  0.4001  0.9085
12848TIP3   OH260034   5.570   0.641  11.646 -0.2265  0.3650  0.4799
12848TIP3    H160035   5.589   0.618  11.737  1.8125 -0.6824 -0.1602
12848TIP3    H260036   5.614   0.726  11.633  1.2888 -0.4624 -0.0581
12849TIP3   OH260037   2.141   0.355   3.685  0.5380 -0.3530  0.0604
12849TIP3    H160038   2.191   0.276   3.703 -2.4917 -2.9493 -1.8292
12849TIP3    H260039   2.060   0.344   3.735  0.2419  1.9415  0.2230
12850TIP3   OH260040   6.186   3.269  13.219 -0.2641 -0.6603  0.1972
12850TIP3    H160041   6.262   3.325  13.203  2.0529 -3.2002  1.4414
12850TIP3    H260042   6.158   3.293  13.308 -0.4254 -0.2879  0.0502
12851TIP3   OH260043   0.102   0.016   5.346 -0.0262 -0.0477 -0.6565
12851TIP3    H160044   0.167   0.082   5.319  0.3098  0.3922  1.1148
12851TIP3    H260045   0.065   0.051   5.426 -0.7061 -1.4748 -0.3227
12852TIP3   OH260046   0.516   2.442  11.315  0.1038  0.2732 -0.1324
12852TIP3    H160047   0.585   2.449  11.249  0.0950 -0.3253 -0.2103
12852TIP3    H260048   0.497   2.533  11.340 -0.6810  0.6025 -1.7715
12853TIP3   OH260049   4.735   5.457  16.175  0.0842 -0.1805 -0.0748
12853TIP3    H160050   4.743   5.552  16.169  0.8135 -0.2471 -0.2810
12853TIP3    H260051   4.682   5.441  16.253  2.9562  0.2916  2.0836
12854TIP3   OH260052   1.756   4.985   4.312 -0.7376 -0.4243 -0.0371
12854TIP3    H160053   1.689   4.935   4.265 -0.6074 -0.7156  0.0859
12854TIP3    H260054   1.708   5.057   4.353 -0.8753 -0.2473 -0.4950
12855TIP3   OH260055   5.380   3.873   1.640 -0.3501 -0.1321  0.3442
12855TIP3    H160056   5.419   3.795   1.602 -0.1946  0.5846 -1.0261
12855TIP3    H260057   5.364   3.850   1.732  3.8900 -0.2959  1.2585
12856TIP3   OH260058   6.031   4.943   0.459 -0.2997  0.1424  0.1594
12856TIP3    H160059   6.047   4.919   0.550 -1.2451 -1.6773 -0.0945
12856TIP3    H260060   5.967   5.014   0.463 -0.0091  0.3721  0.9007
12857TIP3   OH260061   2.407   4.453  13.994  0.1929 -0.2268 -0.0186
12857TIP3    H160062   2.322   4.418  14.022 -0.4910  0.7800 -0.7720
12857TIP3    H260063   2.387   4.540  13.960  1.2246 -0.6844 -1.9636
12858TIP3   OH260064   3.773   4.967   1.786  0.1976  0.0504  0.0663
12858TIP3    H160065   3.751   4.925   1.703 -1.0235 -2.6372  1.5948
12858TIP3    H260066   3.721   5.048   1.787 -0.7185 -0.4888 -1.2671
12859TIP3   OH260067   6.549   5.444  12.299  0.1488  0.2203 -0.0473
12859TIP3    H160068   6.635   5.410  12.321 -0.0021  0.8007  1.5897
12859TIP3    H260069   6.489   5.371  12.314  0.2041  0.2283  0.2208
12860TIP3   OH260070   0.637   6.006  10.275  0.9916  0.0797  0.4049
12860TIP3    H160071   0.559   6.051  10.308  0.3255 -0.1384 -0.7865
12860TIP3    H260072   0.672   6.066  10.208  0.7430 -0.6369 -0.3904
12861TIP3   OH260073   4.907   4.801  11.806  0.7251  0.7695  0.0198
12861TIP3    H160074   4.960   4.868  11.762 -0.4048  1.7269  0.0566
12861TIP3    H260075   4.953   4.783  11.887  2.4625 -0.4839 -1.1793
12862TIP3   OH260076   4.061   2.198   2.370 -0.0048  0.0468 -0.7569
12862TIP3    H160077   4.072   2.265   2.437 -0.9140  0.9767 -1.5137
12862TIP3    H260078   4.071   2.115   2.417  0.8822  0.6886  0.2382
12863TIP3   OH260079   4.141   0.144  15.515 -0.2411 -0.2263  0.2492
12863TIP3    H160080   4.205   0.073  15.522  1.0811  0.9914  0.9793
12863TIP3    H260081   4.191   0.223  15.534 -2.0171  0.7507  1.0663
12864TIP3   OH260082   3.113   0.299   0.999 -0.4496  0.4005  0.1857
12864TIP3    H160083   3.109   0.204   0.991 -0.7558  0.3810  0.5395
12864TIP3    H260084   3.118   0.331   0.909  1.3460 -0.0167  0.1076
12865TIP3   OH260085   0.740   6.218   2.234  0.0321  0.0824  0.0156
12865TIP3    H160086   0.678   6.269   2.286  0.4805  1.1768 -0.4977
12865TIP3    H260087   0.812   6.200   2.294  0.7061  1.6385 -0.2936
12866TIP3   OH260088   6.348   1.863  12.062  0.4930  0.0357 -0.6374
12866TIP3    H160089   6.426   1.810  12.043  0.3816 -1.4379  2.3187
12866TIP3    H260090   6.277   1.820  12.014  0.7600 -1.4377  0.2188
12867TIP3   OH260091   1.553   5.014  14.897  0.1195 -0.6237 -0.2002
12867TIP3    H160092   1.492   5.024  14.969 -1.2675  1.1504 -1.5307
12867TIP3    H260093   1.602   5.096  14.895  2.8440 -2.0815  0.9848
12868TIP3   OH260094   5.023   2.100   1.134 -0.2010  0.1074  0.3306
12868TIP3    H160095   5.083   2.034   1.099  0.1950  0.4114  0.4213
12868TIP3    H260096   4.998   2.153   1.058 -1.7759 -1.0949 -0.0381
12869TIP3   OH260097   3.991   0.918   5.452 -0.5125 -0.6536  0.2556
12869TIP3    H160098   3.949   0.996   5.416  1.3539 -0.4713 -1.7025
12869TIP3    H260099   3.972   0.849   5.389  0.6735 -0.9567  0.2030
12870TIP3   OH260100   6.499   6.113  11.470  0.0232 -0.3314  0.2601
12870TIP3    H160101   6.457   6.194  11.440  0.2954 -0.2009  0.2254
12870TIP3    H260102   6.470   6.103  11.560  0.3320  0.0422  0.4042
12871TIP3   OH260103   0.709   5.316  15.985 -0.7706 -0.1502  0.1017
12871TIP3    H160104   0.737   5.244  15.929 -0.8042 -0.4414  0.4549
12871TIP3    H260105   0.766   5.389  15.961  0.8387 -0.9411  1.3499
12872TIP3   OH260106   1.870   1.468   0.750  0.0298  0.1173  0.0723
12872TIP3    H160107   1.905   1.543   0.798  0.0609  0.0304  0.1869
12872TIP3    H260108   1.825   1.416   0.816  0.4612 -0.2362  0.0990
12873TIP3   OH260109   6.734   4.151   2.253  0.5328  0.0266  0.2124
12873TIP3    H160110   6.783   4.076   2.218 -1.6030 -1.5812  0.4537
12873TIP3    H260111   6.642   4.128   2.239 -0.2239  2.0839  1.3931
12874TIP3   OH260112   2.740   3.812  11.286  0.2382  0.1835 -0.3354
12874TIP3    H160113   2.693   3.894  11.274 -1.1007 -0.1654  2.0111
12874TIP3    H260114   2.724   3.764  11.204 -0.0142  1.7211 -1.2271
12875TIP3   OH260115   3.270   2.495   2.460 -0.3590 -0.4340 -0.4485
12875TIP3    H160116   3.233   2.525   2.377  0.7719 -1.1217 -1.2241
12875TIP3    H260117   3.330   2.425   2.436  0.4796 -0.2123  0.8910
12876TIP3   OH260118   2.174   4.211  13.394 -0.1093  0.4170 -0.7273
12876TIP3    H160119   2.183   4.222  13.488 -1.9290 -0.4949 -0.4041
12876TIP3    H260120   2.236   4.141  13.372 -0.6966 -0.3575  0.0425
12877TIP3   OH260121   2.205   4.545  16.740  0.5639 -0.2232 -0.4348
12877TIP3    H160122   2.246   4.605  16.801 -1.1162  0.2265  0.3202
12877TIP3    H260123   2.182   4.469  16.793 -0.3672 -0.0804 -0.6146
12878TIP3   OH260124   4.488   4.695   3.509 -0.4387 -0.3313 -0.3787
12878TIP3    H160125   4.410   4.669   3.558  0.3456 -1.9437  0.0805
12878TIP3    H260126   4.475   4.659   3.422  0.1353 -1.3160 -0.0698
12879TIP3   OH260127   5.285   4.133  14.888 -0.8431 -0.1062  0.3480
12879TIP3    H160128   5.376   4.123  14.859 -0.9288 -2.0180  0.6525
12879TIP3    H260129   5.240   4.171  14.813 -0.2244 -1.1983 -0.6091
12880TIP3   OH260130   3.209   3.794  16.512  0.3671  0.1326  0.3280
12880TIP3    H160131   3.225   3.810  16.605 -1.2514 -0.6757  0.7918
12880TIP3    H260132   3.123   3.834  16.496  1.3752  1.7664 -1.2687
12881TIP3   OH260133   4.649   2.380   0.227 -0.5584 -0.8337 -0.4642
12881TIP3    H160134   4.682   2.304   0.178  0.3699 -0.4635 -0.4166
12881TIP3    H260135   4.667   2.359   0.319  0.9038  0.0072 -0.5390
12882TIP3   OH260136   5.796   1.760  11.184  0.3891 -0.3925  0.0707
12882TIP3    H160137   5.765   1.832  11.129  0.0708 -1.1392 -0.7559
12882TIP3    H260138   5.757   1.776  11.270 -0.8650 -0.3563 -0.4868
12883TIP3   OH260139   2.765   5.829  16.804 -0.0509  0.7348 -0.3495
12883TIP3    H160140   2.840   5.810  16.747  0.4004 -1.0898  0.7382
12883TIP3    H260141   2.733   5.742  16.830 -0.3169  1.4757  2.0189
12884TIP3   OH260142   5.643   1.783  15.243 -0.0157  0.2569  0.4798
12884TIP3    H160143   5.643   1.834  15.324  1.8219  1.5844 -0.2980
12884TIP3    H260144   5.634   1.692  15.272 -3.5312  0.8880  1.9139
12885TIP3   OH260145   2.547   2.423   0.264  0.0421  0.5214  0.2105
12885TIP3    H160146   2.613   2.427   0.195 -1.3483  0.4870 -1.1890
12885TIP3    H260147   2.502   2.508   0.258 -0.9159  0.0275  0.1943
12886TIP3   OH260148   2.600   1.123  12.590 -0.2481  0.6458  0.7263
12886TIP3    H160149   2.648   1.206  12.595 -0.9778  1.0586  1.0598
12886TIP3    H260150   2.653   1.061  12.640 -0.0707  1.1018  1.1084
12887TIP3   OH260151   6.343   4.685  10.853 -0.2972 -0.0798 -0.2374
12887TIP3    H160152   6.347   4.773  10.814 -0.9698 -0.1403 -0.4667
12887TIP3    H260153   6.433   4.652  10.848 -0.5257 -0.5599 -2.8636
12888TIP3   OH260154   0.971   6.274   4.493  0.3031 -0.5013  0.4531
12888TIP3    H160155   0.920   6.354   4.479  1.5872  0.5990  1.7764
12888TIP3    H260156   1.005   6.252   4.407 -1.9168 -0.9874 -0.3796
12889TIP3   OH260157   2.609   0.607  14.780 -0.4718 -0.3875 -0.0071
12889TIP3    H160158   2.692   0.648  14.755 -0.4335 -1.4030 -1.6462
12889TIP3    H260159   2.592   0.640  14.869  2.1113 -0.8251  0.7253
12890TIP3   OH260160   1.727   4.500  15.822 -0.0641 -0.2453  0.2380
12890TIP3    H160161   1.663   4.569  15.802  0.4752  0.1208 -0.2744
12890TIP3    H260162   1.807   4.528  15.778 -0.0923 -1.6659 -0.8019
12891TIP3   OH260163   0.785   4.841   4.237 -0.6176  0.2169  0.2988
12891TIP3    H160164   0.739   4.906   4.290  0.2495  0.1364  1.1742
12891TIP3    H260165   0.873   4.837   4.274 -0.1864 -0.3247 -0.7406
12892TIP3   OH260166   3.089   3.120   2.660 -0.1690 -0.1589  0.2576
12892TIP3    H160167   3.050   3.126   2.747 -0.0149 -1.3282  0.4281
12892TIP3    H260168   3.137   3.037   2.661  1.8990  0.9741 -0.1185
12893TIP3   OH260169   2.345   1.040  12.637  0.1366  0.1501  0.0051
12893TIP3    H160170   2.431   1.058  12.601  0.7077 -0.6832  0.9170
12893TIP3    H260171   2.309   0.971  12.581  0.5787 -0.3861  0.3791
12894TIP3   OH260172   2.785   4.008  11.693 -0.0100 -0.0397  0.2324
12894TIP3    H160173   2.748   4.064  11.624 -0.7564  0.5586  1.0919
12894TIP3    H260174   2.800   3.924  11.650 -0.6402  0.2661 -0.6138
12895TIP3   OH260175   6.356   0.302   5.710 -0.3177 -0.7952  0.1262
12895TIP3    H160176   6.382   0.300   5.802  0.9620  1.0621 -0.1501
12895TIP3    H260177   6.269   0.342   5.710  0.9173  2.1136  0.3687
12896TIP3   OH260178   1.206   6.499  14.792  0.1243 -0.3954 -0.4944
12896TIP3    H160179   1.171   6.588  14.781  0.6544 -0.0768  0.2947
12896TIP3    H260180   1.131   6.447  14.822 -0.2776 -0.3032 -1.3243
12897TIP3   OH260181   2.604   3.956   1.187  0.4887 -0.3436 -0.4206
12897TIP3    H160182   2.676   3.918   1.238  0.0129 -1.0884 -0.2801
12897TIP3    H260183   2.547   3.882   1.167  0.6803 -0.0701 -2.0941
12898TIP3   OH260184   4.804   0.422   2.498 -0.6310  0.1571  0.2409
12898TIP3    H160185   4.880   0.419   2.556 -0.8622  0.2153  0.5493
12898TIP3    H260186   4.799   0.513   2.470  0.9453 -0.3350 -1.8397
12899TIP3   OH260187   4.448   0.786  13.372  0.1595  0.0238  0.1480
12899TIP3    H160188   4.432   0.856  13.435 -1.8569 -0.9260  0.7963
12899TIP3    H260189   4.376   0.794  13.308 -0.2388 -1.5338  0.3495
12900TIP3   OH260190   4.587   3.496   3.798  0.2112 -0.1819 -0.6267
12900TIP3    H160191   4.506   3.456   3.769 -0.3527  0.4607  0.0143
12900TIP3    H260192   4.569   3.590   3.798 -0.1623 -0.1331  2.5827
12901TIP3   OH260193   2.995   6.782   1.307 -0.8297 -0.1063 -0.2205
12901TIP3    H160194   2.936   6.858   1.306  1.2543  1.5869 -1.4412
12901TIP3    H260195   3.048   6.791   1.228  1.5523 -1.1423  1.1521
12902TIP3   OH260196   1.868   6.780   1.594  0.4712 -0.2581 -0.6657
12902TIP3    H160197   1.806   6.712   1.572 -1.3074  0.0614  2.6658
12902TIP3    H260198   1.814   6.852   1.626  2.4738  0.9251  0.2539
12903TIP3   OH260199   3.818   0.370  15.430 -0.0685 -0.1985  0.0303
12903TIP3    H160200   3.751   0.434  15.408 -0.8133 -1.1729 -0.6009
12903TIP3    H260201   3.899   0.407  15.396 -0.4118  0.6072  0.0755
12904TIP3   OH260202   2.019   1.800   1.486  0.4579  0.7035  0.5663
12904TIP3    H160203   2.105   1.769   1.513 -0.0500 -0.2183  1.2037
12904TIP3    H260204   2.016   1.891   1.516  1.4274  0.9303 -0.0047
12905TIP3   OH260205   4.318   1.046   4.167 -0.4039 -0.1192 -0.7012
12905TIP3    H160206   4.394   1.081   4.215 -0.9971  1.0263 -0.5627
12905TIP3    H260207   4.281   0.980   4.225 -0.2417  0.2074 -0.2188
12906TIP3   OH260208   2.715   1.120   4.068 -0.0586  0.0729  1.2234
12906TIP3    H160209   2.726   1.213   4.085 -3.1562  0.4853  1.5459
12906TIP3    H260210   2.653   1.116   3.995  0.1307 -1.7537  1.1141
12907TIP3   OH260211   6.030   0.661  16.833 -0.1895  0.6877  0.1590
12907TIP3    H160212   6.051   0.623  16.748  0.2159 -0.4265  0.7466
12907TIP3    H260213   6.114   0.694  16.866  0.2765 -1.5364  1.4045
12908TIP3   OH260214   3.733   6.155   2.237 -0.2997  0.0008 -0.1667
12908TIP3    H160215   3.816   6.107   2.240 -0.4271 -0.2113 -0.0466
12908TIP3    H260216   3.739   6.208   2.158 -0.6051 -1.0297 -0.9079
12909TIP3   OH260217   1.596   1.742  11.743 -0.1221 -0.0828 -0.0546
12909TIP3    H160218   1.544   1.675  11.786 -1.3314  0.5524 -0.4701
12909TIP3    H260219   1.553   1.755  11.658  1.7200 -0.7303 -1.1387
12910TIP3   OH260220   3.250   2.938   3.761 -0.1387 -0.6164 -0.0782
12910TIP3    H160221   3.341   2.943   3.790 -0.3363 -1.1501  0.6800
12910TIP3    H260222   3.203   2.905   3.838 -1.1643  0.8424 -0.0589
12911TIP3   OH260223   2.408   4.964   5.468  0.6907 -0.0843  0.1483
12911TIP3    H160224   2.479   4.973   5.404 -0.1559  0.0650 -0.7974
12911TIP3    H260225   2.428   4.884   5.515  0.8773 -0.6766 -0.9107
12912TIP3   OH260226   4.866   3.171  16.314  0.0930  0.2434 -0.2933
12912TIP3    H160227   4.823   3.094  16.278  0.5489  0.1237 -0.5873
12912TIP3    H260228   4.797   3.237  16.320 -0.3406 -0.2413  0.1340
12913TIP3   OH260229   1.232   3.849   5.605 -0.1300  0.4063  0.2156
12913TIP3    H160230   1.188   3.787   5.546  0.1157  0.8848 -0.4799
12913TIP3    H260231   1.229   3.932   5.559 -0.1147  0.8338  0.9798
12914TIP3   OH260232   1.206   3.783  12.445 -0.6896  0.5151  0.6701
12914TIP3    H160233   1.180   3.861  12.494 -0.8594  0.0478  1.3284
12914TIP3    H260234   1.156   3.712  12.485 -0.1825 -0.0065  0.3794
12915TIP3   OH260235   2.793   0.178  16.754 -0.2166  0.0285  0.0641
12915TIP3    H160236   2.849   0.102  16.738  0.0138  0.3195 -0.5342
12915TIP3    H260237   2.709   0.155  16.717 -0.2873 -0.1218  0.3141
12916TIP3   OH260238   1.423   4.213  14.349  0.3733 -0.8431 -0.1507
12916TIP3    H160239   1.383   4.131  14.320  0.9290 -1.3752  0.5578
12916TIP3    H260240   1.512   4.211  14.314  0.0478 -0.0019 -1.0937
12917TIP3   OH260241   6.089   4.279  14.670  0.0060  0.8159  0.4778
12917TIP3    H160242   6.165   4.290  14.727 -0.9398 -1.3487  2.2990
12917TIP3    H260243   6.076   4.365  14.630  3.7119  1.1362 -0.3902
12918TIP3   OH260244   3.606   0.219  12.452  0.4213 -0.3127 -0.0628
12918TIP3    H160245   3.610   0.187  12.542 -0.1029  2.4425  1.0469
12918TIP3    H260246   3.696   0.243  12.432  0.2763  0.6756  0.4069
12919TIP3   OH260247   1.665   2.269   0.027  0.9352 -0.0653  0.7645
12919TIP3    H160248   1.632   2.238   0.111  0.7467 -1.3517  0.2397
12919TIP3    H260249   1.598   2.244  -0.037  0.6255  1.7200  0.3153
12920TIP3   OH260250   5.163   1.010  10.535  0.4000  0.0489 -0.7036
12920TIP3    H160251   5.138   0.936  10.480 -0.8455  0.0368 -0.1648
12920TIP3    H260252   5.112   1.083  10.501 -0.8965 -0.1068  0.7995
12921TIP3   OH260253   1.969   2.453   3.709  0.2996 -0.5667 -0.1615
12921TIP3    H160254   1.915   2.468   3.632 -0.7762 -0.2584  0.6395
12921TIP3    H260255   2.030   2.527   3.711 -1.7289  1.1697  1.0120
12922TIP3   OH260256   1.867   2.415   1.408 -0.3415 -0.2201  0.2690
12922TIP3    H160257   1.928   2.459   1.467 -1.6267 -0.5242  1.9082
12922TIP3    H260258   1.899   2.325   1.402  0.4124  0.0808 -0.4123
12923TIP3   OH260259   4.751   4.609  13.066 -0.1854 -0.1544 -0.5542
12923TIP3    H160260   4.694   4.553  13.013 -1.6993  0.6239  0.1879
12923TIP3    H260261   4.793   4.550  13.128 -1.5877 -0.5094  0.0784
12924TIP3   OH260262   3.101   2.233  17.228 -0.3802 -0.1624 -0.2320
12924TIP3    H160263   3.132   2.245  17.318 -1.1372 -1.9596  0.3052
12924TIP3    H260264   3.176   2.195  17.183 -0.2509 -0.0048 -0.1503
12925TIP3   OH260265   3.588   5.513  16.390  0.5730 -0.0485  0.0393
12925TIP3    H160266   3.580   5.420  16.409  0.1169  0.1475  0.8377
12925TIP3    H260267   3.636   5.549  16.465 -0.4826  0.5863  0.4352
12926TIP3   OH260268   5.667   5.482  16.369  0.1343  0.2946 -0.1292
12926TIP3    H160269   5.636   5.569  16.395  0.0035  0.3597 -0.4950
12926TIP3    H260270   5.653   5.480  16.274  2.6483  0.9091 -0.5778
12927TIP3   OH260271   0.528   2.905   4.916  0.4513  0.7316 -0.3797
12927TIP3    H160272   0.498   2.993   4.894 -0.6129  0.4980  0.0751
12927TIP3    H260273   0.464   2.872   4.979  0.8054 -0.3876 -0.5692
12928TIP3   OH260274   4.844   5.140   2.534 -0.2335  0.2320 -0.2343
12928TIP3    H160275   4.866   5.233   2.524 -0.8023  0.4404  0.3854
12928TIP3    H260276   4.749   5.137   2.523 -0.1151 -0.4138 -1.1684
12929TIP3   OH260277   0.512   6.190  11.118  0.6828  0.4861 -0.0780
12929TIP3    H160278   0.604   6.214  11.105  1.1009 -1.2667 -0.5996
12929TIP3    H260279   0.467   6.232  11.045  1.2197  0.5523 -0.3837
12930TIP3   OH260280   3.495   3.361  14.823 -0.8351 -0.3329  0.2412
12930TIP3    H160281   3.586   3.389  14.809 -0.8553  0.2320  1.1249
12930TIP3    H260282   3.477   3.300  14.752 -0.3268  0.8634 -0.9485
12931TIP3   OH260283   0.063   2.788   2.862  0.3105 -0.0762 -0.0659
12931TIP3    H160284   0.059   2.852   2.933 -0.9489  0.9083 -0.9660
12931TIP3    H260285   0.135   2.818   2.807  2.6732 -2.0173  1.7994
12932TIP3   OH260286   6.434   5.522  12.029 -0.2541 -0.3796  0.0324
12932TIP3    H160287   6.344   5.508  12.060 -0.6164 -0.8230 -1.1577
12932TIP3    H260288   6.489   5.486  12.099 -1.0226 -0.7668  0.4548
12933TIP3   OH260289   3.202   1.476  14.762  0.1754  0.0469 -0.8418
12933TIP3    H160290   3.224   1.400  14.709  1.1813 -1.1456  1.1472
12933TIP3    H260291   3.170   1.439  14.845  2.2764  1.6794  0.8341
12934TIP3   OH260292   0.012   6.218   3.162 -0.2004 -0.6127  0.2914
12934TIP3    H160293   0.088   6.206   3.104 -0.8228 -1.5318 -0.3684
12934TIP3    H260294   0.010   6.138   3.214  1.9908  1.3070  3.6530
12935TIP3   OH260295   6.030   0.408   2.462 -0.4008  0.1944  0.3241
12935TIP3    H160296   6.085   0.404   2.540 -1.1887  0.4953  0.9100
12935TIP3    H260297   6.002   0.317   2.448  0.1070  0.0646  0.1114
12936TIP3   OH260298   2.148   3.134  12.529 -0.1309  0.2245  0.1595
12936TIP3    H160299   2.172   3.226  12.520 -0.1857  0.2078 -0.1987
12936TIP3    H260300   2.052   3.134  12.535 -0.4695  0.0019 -3.2145
12937TIP3   OH260301   6.131   0.940   0.713 -0.1551 -0.3696 -0.6296
12937TIP3    H160302   6.167   0.958   0.625  1.6912 -0.1746  0.1047
12937TIP3    H260303   6.036   0.940   0.701  0.0562 -0.7478 -2.7005
12938TIP3   OH260304   0.484   1.380   1.464 -0.0090 -0.3005 -0.0494
12938TIP3    H160305   0.545   1.313   1.495 -0.3847 -1.0399 -0.8564
12938TIP3    H260306   0.529   1.421   1.390  0.4431  0.7277  0.7730
12939TIP3   OH260307   4.952   5.177   0.440 -0.3663 -0.2320  1.1228
12939TIP3    H160308   4.909   5.238   0.499 -0.8470 -0.5031  1.0629
12939TIP3    H260309   5.042   5.208   0.434 -0.2448 -0.3539  2.1915
12940TIP3   OH260310   1.097   6.816  17.091  0.6781  0.0394 -0.2833
12940TIP3    H160311   1.161   6.879  17.058  0.8502 -0.4186 -0.8381
12940TIP3    H260312   1.046   6.791  17.014 -1.5713  1.9545  0.4834
12941TIP3   OH260313   3.564   2.077  16.962 -0.3353  0.1273 -0.1654
12941TIP3    H160314   3.654   2.108  16.969 -0.2199 -0.3447  0.5688
12941TIP3    H260315   3.566   2.013  16.891 -0.0307 -0.0672  0.0162
12942TIP3   OH260316   3.027   4.194   2.980  0.2493 -0.2393  0.3828
12942TIP3    H160317   2.972   4.270   2.999  1.1729  0.8458 -1.0425
12942TIP3    H260318   3.098   4.200   3.044  0.7655  0.6146 -0.2422
12943TIP3   OH260319   6.809   0.791   4.549 -0.5497  0.1484 -0.3259
12943TIP3    H160320   6.734   0.739   4.578  2.1622 -2.7376  2.3785
12943TIP3    H260321   6.847   0.826   4.630  2.4119 -0.6775 -1.2186
12944TIP3   OH260322   6.448   0.119   2.581  0.0314  0.1905  0.2370
12944TIP3    H160323   6.398   0.163   2.513 -0.0545 -1.3563 -0.7405
12944TIP3    H260324   6.494   0.190   2.626  0.0443  1.2604 -1.3749
12945TIP3   OH260325   6.730   1.654   2.225 -0.2944 -0.2989  0.5283
12945TIP3    H160326   6.758   1.648   2.316  1.7915 -1.7881 -0.1618
12945TIP3    H260327   6.675   1.577   2.212 -0.4114 -0.2022  0.4467
12946TIP3   OH260328   0.663   0.596   3.614  0.3981  0.1585 -0.5920
12946TIP3    H160329   0.638   0.650   3.539 -1.4536 -0.5444 -0.5391
12946TIP3    H260330   0.690   0.512   3.576 -0.5361 -0.1963 -0.4990
12947TIP3   OH260331   6.711   5.377   1.358 -0.0473 -0.0683  0.1409
12947TIP3    H160332   6.751   5.397   1.443 -0.1252  1.8204 -0.2048
12947TIP3    H260333   6.621   5.352   1.379  0.0509 -0.0067  0.6444
12948TIP3   OH260334   2.907   2.005  12.275 -0.0305  0.1820 -0.3433
12948TIP3    H160335   2.890   2.066  12.204 -0.7625 -0.2248 -0.5275
12948TIP3    H260336   2.975   2.047  12.328 -0.4284  1.0887 -0.5448
12949TIP3   OH260337   5.038   0.492   0.676 -0.2973  0.1338 -0.0788
12949TIP3    H160338   4.965   0.533   0.722  0.5601  0.8314  0.7097
12949TIP3    H260339   5.054   0.411   0.724 -0.9689 -0.3633 -0.6676
12950TIP3   OH260340   4.438   3.273   1.464  0.3262  0.1946 -0.4514
12950TIP3    H160341   4.352   3.290   1.426  0.5329  1.6190 -0.3426
12950TIP3    H260342   4.500   3.303   1.398  0.6941  2.1042  0.6589
12951TIP3   OH260343   2.659   1.902  11.308  0.6549 -0.1929  0.0204
12951TIP3    H160344   2.689   1.864  11.226 -0.7740  0.0863 -0.6575
12951TIP3    H260345   2.693   1.991  11.307  2.0725 -0.7011  0.5474
12952TIP3   OH260346   6.417   0.336   1.906 -0.4334  0.1592  0.3402
12952TIP3    H160347   6.396   0.402   1.840 -1.3678 -0.6063 -0.1562
12952TIP3    H260348   6.347   0.344   1.971 -2.1952 -2.1530 -1.1260
12953TIP3   OH260349   0.698   5.846  12.595  0.3095  0.0247 -0.7342
12953TIP3    H160350   0.679   5.885  12.510 -2.9653  1.6420  0.5968
12953TIP3    H260351   0.776   5.892  12.625 -0.4188  1.8352 -1.4736
12954TIP3   OH260352   5.002   2.767   4.152  0.3401 -0.4442  0.2783
12954TIP3    H160353   5.017   2.682   4.111 -2.0768 -0.9030  0.2343
12954TIP3    H260354   4.913   2.762   4.186  1.3883  0.7544  3.5734
12955TIP3   OH260355   0.159   5.789  12.818 -0.3041  0.3733 -0.1888
12955TIP3    H160356   0.244   5.813  12.781 -0.0079  0.0747  0.2755
12955TIP3    H260357   0.145   5.698  12.790  0.3708 -0.1875  1.1740
12956TIP3   OH260358   3.715   2.399   2.128 -0.3264 -0.5489 -0.2756
12956TIP3    H160359   3.725   2.419   2.035 -1.3367 -2.1189 -0.7535
12956TIP3    H260360   3.802   2.369   2.156 -0.1835 -0.7019 -0.8820
12957TIP3   OH260361   3.607   4.612  16.021  0.0208 -0.1009  0.2756
12957TIP3    H160362   3.659   4.596  16.100 -0.3073 -2.1893  0.1119
12957TIP3    H260363   3.670   4.649  15.959  0.1276  2.2836  1.6664
12958TIP3   OH260364   3.470   1.513   4.211 -0.0604 -0.2367  0.3538
12958TIP3    H160365   3.418   1.435   4.192 -0.2304  0.0206 -0.2758
12958TIP3    H260366   3.541   1.511   4.147  1.5181 -1.2980  2.0490
12959TIP3   OH260367   0.252   2.471  13.559 -0.1324  0.1439 -0.0823
12959TIP3    H160368   0.259   2.558  13.520 -0.2202  0.2929  0.2305
12959TIP3    H260369   0.207   2.418  13.494 -0.4870  0.4498 -0.0871
12960TIP3   OH260370   0.680   4.561   3.907 -0.1019 -0.1421  0.1511
12960TIP3    H160371   0.752   4.584   3.964  0.1705  2.0068 -0.9316
12960TIP3    H260372   0.648   4.477   3.940  1.8981 -0.4078  1.5744
12961TIP3   OH260373   6.016   3.301  16.799 -0.9979 -0.0861 -0.5987
12961TIP3    H160374   6.063   3.384  16.789  0.6030 -0.9293 -0.5638
12961TIP3    H260375   6.086   3.237  16.814 -2.2755 -1.2485  0.6344
12962TIP3   OH260376   1.298   1.715   3.736 -0.7152  1.1625  0.3366
12962TIP3    H160377   1.269   1.638   3.686  0.3426  0.1919  1.1780
12962TIP3    H260378   1.363   1.757   3.680  0.2519  0.2428  0.7505
12963TIP3   OH260379   2.383   4.766   2.506  0.8795 -1.1179 -0.0880
12963TIP3    H160380   2.376   4.674   2.529  0.1644 -0.9712  0.3292
12963TIP3    H260381   2.292   4.794   2.493  1.1891 -1.0069 -2.3887
12964TIP3   OH260382   1.345   1.788   4.745 -0.2032 -0.1144 -0.4524
12964TIP3    H160383   1.398   1.823   4.817 -0.5793  0.0207 -0.2379
12964TIP3    H260384   1.327   1.698   4.771  2.5215 -1.2209 -1.9670
12965TIP3   OH260385   2.540   5.141  11.264 -0.2448 -0.0262  0.1238
12965TIP3    H160386   2.561   5.078  11.333 -1.2644  0.6797  1.1324
12965TIP3    H260387   2.611   5.133  11.201 -0.8832 -2.9632 -0.3749
12966TIP3   OH260388   3.840   4.933   2.798  0.2282 -0.6931  0.2354
12966TIP3    H160389   3.744   4.937   2.802  0.2610  1.1731 -0.0584
12966TIP3    H260390   3.869   5.014   2.841  1.6522 -0.9370 -0.2251
12967TIP3   OH260391   2.698   0.992   2.366  0.1256 -0.2528 -0.2419
12967TIP3    H160392   2.742   1.037   2.293 -1.4000 -1.0701 -1.7352
12967TIP3    H260393   2.713   0.899   2.348 -2.1769 -0.5600 -0.8359
12968TIP3   OH260394   4.765   0.053   3.610  0.0337 -0.0745  0.6597
12968TIP3    H160395   4.826   0.127   3.607 -1.7505  1.6021  2.9461
12968TIP3    H260396   4.684   0.087   3.572  0.3618 -2.3032 -2.4388
12969TIP3   OH260397   0.319   3.747  11.209  0.2662 -0.3551 -0.6362
12969TIP3    H160398   0.231   3.781  11.227  1.1845  1.0484  1.6995
12969TIP3    H260399   0.332   3.677  11.272  0.5109 -1.1895 -1.5902
12970TIP3   OH260400   5.461   6.579   0.737  0.2741  0.3597 -0.1534
12970TIP3    H160401   5.488   6.598   0.647 -1.5323 -0.1056 -0.8365
12970TIP3    H260402   5.445   6.485   0.737  0.0071  0.4035  0.6023
12971TIP3   OH260403   1.043   1.076   1.280  0.5195 -0.6710  0.0485
12971TIP3    H160404   0.959   1.119   1.294  0.8814  0.0504  0.0772
12971TIP3    H260405   1.066   1.040   1.366 -0.0663 -1.4515 -0.1142
12972TIP3   OH260406   5.760   6.401  16.231 -0.8543  0.4377 -0.0980
12972TIP3    H160407   5.836   6.457  16.216 -0.4288 -0.4003 -1.2114
12972TIP3    H260408   5.784   6.347  16.306  0.0745 -0.5023 -1.0391
12973TIP3   OH260409   5.274   2.063   2.243  0.1761 -0.1330 -0.0718
12973TIP3    H160410   5.367   2.064   2.221  0.3814 -2.3898  0.4282
12973TIP3    H260411   5.267   1.998   2.313 -1.8088 -0.1838 -0.2625
12974TIP3   OH260412   3.896   3.732   3.738  0.0086  0.3954 -0.0232
12974TIP3    H160413   3.925   3.690   3.658 -1.5161  1.2858 -1.0881
12974TIP3    H260414   3.830   3.673   3.774 -0.9550  1.0866 -0.6485
12975TIP3   OH260415   4.807   6.377   1.955  0.1859  0.1007  0.4764
12975TIP3    H160416   4.880   6.335   2.000  0.4345  0.4314  0.3826
12975TIP3    H260417   4.840   6.464   1.931 -0.3388  0.3777  0.7271
12976TIP3   OH260418   4.409   4.512   4.820 -0.5954 -0.0601  0.4605
12976TIP3    H160419   4.422   4.548   4.732 -3.3252  0.7062  0.2825
12976TIP3    H260420   4.469   4.561   4.876 -0.5665  1.1749 -0.6131
12977TIP3   OH260421   6.747   4.929  11.852 -0.0973 -0.3608  0.0573
12977TIP3    H160422   6.694   4.953  11.776 -0.7473  0.2620  0.6932
12977TIP3    H260423   6.730   4.835  11.864  1.0872 -0.8123 -1.3774
12978TIP3   OH260424   0.889   1.283  17.152 -0.3721  0.3984  0.4247
12978TIP3    H160425   0.825   1.218  17.181 -0.0749 -0.6429 -1.1731
12978TIP3    H260426   0.963   1.232  17.120 -0.4637  1.4595 -1.6511
12979TIP3   OH260427   0.477   1.088   3.697 -0.7639  0.4762  0.2509
12979TIP3    H160428   0.540   1.054   3.634 -0.7217  0.4287  0.3190
12979TIP3    H260429   0.436   1.011   3.734 -0.3633  0.4836  0.7194
12980TIP3   OH260430   3.306   4.878  16.443  0.1087 -0.0197 -0.1828
12980TIP3    H160431   3.391   4.861  16.404 -0.3769  2.7108 -2.8195
12980TIP3    H260432   3.244   4.836  16.383 -0.4966  0.0119  0.4120
12981TIP3   OH260433   1.989   6.616   4.353  0.4358 -0.1914  0.0227
12981TIP3    H160434   2.007   6.523   4.335  0.1057 -0.0733 -0.9504
12981TIP3    H260435   2.017   6.661   4.274 -0.2345  0.4502  0.1478
12982TIP3   OH260436   5.401   5.850   5.483  0.1276  0.5632 -0.2131
12982TIP3    H160437   5.370   5.816   5.567 -1.4218  1.4085 -0.4032
12982TIP3    H260438   5.387   5.945   5.489  2.0223  0.9218 -0.6313
12983TIP3   OH260439   5.627   3.901   4.182 -0.6782 -0.7988  0.2141
12983TIP3    H160440   5.664   3.900   4.270  0.5181 -1.9339 -0.2780
12983TIP3    H260441   5.697   3.867   4.126 -1.3702  0.0084 -1.2043
12984TIP3   OH260442   1.830   1.532   2.599  0.2466  0.0082 -0.2705
12984TIP3    H160443   1.743   1.493   2.592 -0.3335  1.3983 -1.3232
12984TIP3    H260444   1.817   1.611   2.651  0.2585  1.7403 -2.6947
12985TIP3   OH260445   6.611   0.763   3.601  0.2735 -0.0659 -0.3209
12985TIP3    H160446   6.582   0.709   3.675 -0.6197 -0.9814 -1.2945
12985TIP3    H260447   6.608   0.703   3.526 -2.0734  1.6130 -1.7245
12986TIP3   OH260448   2.955   2.178  14.827 -0.3735 -0.0300 -0.5813
12986TIP3    H160449   2.989   2.105  14.879 -1.6318  0.2882  0.7406
12986TIP3    H260450   2.921   2.240  14.891 -1.0216  0.8788 -1.7506
12987TIP3   OH260451   0.413   5.651   0.517  0.5256  0.0577 -0.4170
12987TIP3    H160452   0.471   5.614   0.451 -1.6879 -0.9792 -1.8914
12987TIP3    H260453   0.379   5.732   0.478  0.1406  0.0878 -0.0378
12988TIP3   OH260454   6.468   4.074   3.252  0.3166 -0.3410 -0.3262
12988TIP3    H160455   6.537   4.032   3.202  1.0670  0.2421  0.1986
12988TIP3    H260456   6.391   4.018   3.240  1.0095 -1.2630 -0.5066
12989TIP3   OH260457   5.429   5.499   6.264 -0.1993  0.1065  0.3765
12989TIP3    H160458   5.478   5.423   6.296 -0.4796  0.9287  2.9942
12989TIP3    H260459   5.339   5.468   6.257 -0.1096 -0.1256  0.2548
12990TIP3   OH260460   3.589   4.097  11.802 -0.5314  0.1313  0.0148
12990TIP3    H160461   3.530   4.027  11.831 -0.7692  0.2073 -0.2807
12990TIP3    H260462   3.587   4.092  11.706  1.6938 -1.3584 -0.0436
12991TIP3   OH260463   0.422   2.924   0.109 -0.0509  0.4324  0.1592
12991TIP3    H160464   0.512   2.958   0.109 -0.7323  2.5313 -2.2151
12991TIP3    H260465   0.369   2.997   0.078 -2.4177 -1.2184  0.0589
12992TIP3   OH260466   0.512   1.405   0.581 -0.7969 -0.2821  0.1286
12992TIP3    H160467   0.569   1.481   0.591  0.8311 -1.4340  0.0125
12992TIP3    H260468   0.513   1.363   0.667  0.8600 -1.8474 -0.6005
12993TIP3   OH260469   3.475   3.342   2.140 -0.4066  0.3296  0.0910
12993TIP3    H160470   3.441   3.412   2.196 -0.4562 -0.4593  1.0921
12993TIP3    H260471   3.555   3.379   2.102 -0.3956  0.9167  0.6518
12994TIP3   OH260472   3.298   0.543  15.174  0.0632  0.4445  0.0786
12994TIP3    H160473   3.375   0.492  15.195 -0.7407 -0.5280  0.7607
12994TIP3    H260474   3.332   0.627  15.142  1.3934 -0.2867 -0.4942
12995TIP3   OH260475   0.915   5.489   0.184 -0.3614 -0.0121 -0.0794
12995TIP3    H160476   1.001   5.486   0.142 -1.4176 -0.5575 -2.3638
12995TIP3    H260477   0.897   5.398   0.206 -0.9591 -0.1367 -1.0121
12996TIP3   OH260478   2.048   5.356  14.912 -0.2248 -0.3435  0.2469
12996TIP3    H160479   1.968   5.341  14.962 -0.5616  1.4119  0.2918
12996TIP3    H260480   2.051   5.284  14.850 -2.2575 -0.0416 -0.2739
12997TIP3   OH260481   0.247   6.601   1.878  0.1256 -0.3423 -0.4270
12997TIP3    H160482   0.226   6.672   1.938  0.6038 -2.1034  1.9745
12997TIP3    H260483   0.324   6.632   1.830 -0.3168  1.1577 -0.2117
12998TIP3   OH260484   3.942   1.226  12.257 -0.2759 -0.0397  0.7721
12998TIP3    H160485   3.919   1.135  12.237 -2.6470  0.8176 -0.8788
12998TIP3    H260486   3.997   1.254  12.184  1.9975 -0.5875  2.1767
12999TIP3   OH260487   1.489   2.367   6.836 -0.0048 -0.7363 -0.3065
12999TIP3    H160488   1.573   2.412   6.849 -0.5796 -0.1098  1.6108
12999TIP3    H260489   1.507   2.277   6.863  0.4091 -0.9821 -1.3532
13000TIP3   OH260490   2.417   3.934  11.590 -0.6448 -0.2863 -0.1180
13000TIP3    H160491   2.414   3.853  11.641 -0.6487  1.1060  2.2178
13000TIP3    H260492   2.328   3.944  11.556 -1.7548  0.6011  2.7686
13001TIP3   OH260493   0.611   4.998   5.652 -0.4110  0.4998  0.3408
13001TIP3    H160494   0.690   5.052   5.641 -0.2884  0.4468  0.9180
13001TIP3    H260495   0.627   4.921   5.598  0.7848 -0.4044  1.8796
13002TIP3   OH260496   6.147   1.078   6.434  0.0340  0.1434 -0.3385
13002TIP3    H160497   6.229   1.068   6.386  0.5458  0.3090  0.4942
13002TIP3    H260498   6.125   1.171   6.425 -1.1079 -0.2558 -2.2137
13003TIP3   OH260499   6.107   6.527   0.084  0.1771  0.3897 -0.6683
13003TIP3    H160500   6.199   6.532   0.112  0.5068  0.7241 -1.7747
13003TIP3    H260501   6.109   6.469   0.008 -1.0981 -2.8680  1.5684
13004TIP3   OH260502   2.865   2.220   5.089 -0.1249  0.0052 -0.1485
13004TIP3    H160503   2.912   2.221   5.006  0.2629 -0.5787  0.0575
13004TIP3    H260504   2.780   2.260   5.070 -0.3257 -0.8065 -0.9871
13005TIP3   OH260505   1.826   0.169   2.640  0.4635 -0.2609 -0.0261
13005TIP3    H160506   1.815   0.153   2.546 -0.8280 -0.7145  0.1870
13005TIP3    H260507   1.774   0.247   2.658 -1.3920 -1.6055  0.7383
13006TIP3   OH260508   3.095   3.323  15.919  0.4249 -0.4466  0.2016
13006TIP3    H160509   3.034   3.396  15.908 -0.0867 -0.8247  0.4664
13006TIP3    H260510   3.070   3.284  16.003  0.4179 -1.1848 -0.1413
13007TIP3   OH260511   5.849   1.014   2.236 -0.4453 -0.5016 -0.2858
13007TIP3    H160512   5.897   1.060   2.167  1.3867  0.1207  1.3081
13007TIP3    H260513   5.860   0.921   2.215  1.4726 -0.3751 -0.0124
13008TIP3   OH260514   0.141   4.564   3.888  0.3592  0.2494  0.3241
13008TIP3    H160515   0.056   4.597   3.858 -0.8200 -2.6053  0.1611
13008TIP3    H260516   0.152   4.601   3.976 -0.6312  1.3342  0.0167
13009TIP3   OH260517   6.037   6.251   1.053  0.4518 -0.0094 -0.8028
13009TIP3    H160518   6.087   6.180   1.093  1.5262  1.7802  1.2266
13009TIP3    H260519   5.989   6.291   1.125 -0.5034  1.0559 -1.9777
13010TIP3   OH260520   6.794   2.443  17.280  0.4426  0.2741 -0.0279
13010TIP3    H160521   6.778   2.360  17.234 -1.0576  1.2345 -1.3342
13010TIP3    H260522   6.707   2.472  17.308  0.8177  1.8303 -0.3711
13011TIP3   OH260523   6.263   6.463  14.254 -0.0978 -0.0952  0.1311
13011TIP3    H160524   6.223   6.462  14.341  0.4669 -1.6050  0.4111
13011TIP3    H260525   6.210   6.402  14.203 -1.7875  2.4027 -1.2932
13012TIP3   OH260526   3.217   4.503   1.902 -0.2669 -0.3847  0.3170
13012TIP3    H160527   3.168   4.581   1.874 -0.7169 -1.1359 -1.0920
13012TIP3    H260528   3.305   4.536   1.921  0.6207  0.0607 -3.6648
13013TIP3   OH260529   1.233   1.267  15.614  0.0840 -0.6228  0.2059
13013TIP3    H160530   1.240   1.336  15.680 -2.8049 -0.5694  0.5518
13013TIP3    H260531   1.149   1.282  15.571  0.7440 -2.1603 -1.8005
13014TIP3   OH260532   0.155   4.555  12.737 -0.4100  0.1000  0.6733
13014TIP3    H160533   0.099   4.616  12.688 -0.2531 -0.2403  0.0631
13014TIP3    H260534   0.187   4.606  12.811 -0.7087  0.6026  0.4609
13015TIP3   OH260535   0.465   2.596   0.359 -0.3363  0.3614  0.4373
13015TIP3    H160536   0.481   2.502   0.351  0.8757  0.5838 -0.0145
13015TIP3    H260537   0.532   2.626   0.421 -2.1631  0.5860  2.4220
13016TIP3   OH260538   3.917   4.050  16.112 -0.5199  0.2302 -0.0645
13016TIP3    H160539   3.912   3.955  16.110 -0.2957  0.2014  0.5681
13016TIP3    H260540   3.876   4.075  16.195  3.4556  0.3855  2.1131
13017TIP3   OH260541   2.704   3.741   5.291  0.6154  0.0437 -0.2494
13017TIP3    H160542   2.738   3.684   5.222  1.6123  0.5756 -0.2101
13017TIP3    H260543   2.665   3.815   5.243  0.9486  0.2146 -0.2619
13018TIP3   OH260544   2.260   2.829   0.719  0.0280  0.2917 -0.3859
13018TIP3    H160545   2.326   2.831   0.650  0.9164  0.2339  0.4458
13018TIP3    H260546   2.305   2.795   0.795 -1.4870 -1.7325 -0.3109
13019TIP3   OH260547   1.661   6.734   0.365  0.2148 -0.6074  0.1879
13019TIP3    H160548   1.638   6.817   0.408 -1.4375 -1.6004  1.3726
13019TIP3    H260549   1.578   6.703   0.329  1.0396 -1.2255 -1.2293
13020TIP3   OH260550   2.817   4.156   5.852 -0.0599  0.3628  0.4126
13020TIP3    H160551   2.875   4.096   5.803 -2.0561 -1.0112 -0.3860
13020TIP3    H260552   2.795   4.225   5.790  1.0026  1.1266  0.8518
13021TIP3   OH260553   6.056   4.405  10.761  0.6621 -0.2378 -0.1443
13021TIP3    H160554   6.050   4.315  10.792 -0.6598 -1.3161 -3.1425
13021TIP3    H260555   6.093   4.397  10.673 -1.9600  1.8439 -1.5585
13022TIP3   OH260556   0.319   6.825  12.298  0.5283 -0.2905  0.2659
13022TIP3    H160557   0.413   6.826  12.282  1.0018 -1.0643  2.6430
13022TIP3    H260558   0.302   6.742  12.342 -1.3477 -0.3402 -0.4295
13023TIP3   OH260559   5.604   6.504   1.414 -0.0411  0.3330  0.2364
13023TIP3    H160560   5.593   6.578   1.355 -0.4181  0.4297  0.4235
13023TIP3    H260561   5.688   6.519   1.457 -0.3970  0.9784  0.7273
13024TIP3   OH260562   2.368   4.487  13.645  0.1826  0.2655  0.1274
13024TIP3    H160563   2.294   4.428  13.628  0.4811 -0.3717  0.9815
13024TIP3    H260564   2.439   4.452  13.591  0.1826  0.2156  0.1604
13025TIP3   OH260565   5.696   3.655   0.474  0.5795 -0.0084 -0.6534
13025TIP3    H160566   5.731   3.640   0.561 -2.3996 -0.9450  0.5218
13025TIP3    H260567   5.651   3.573   0.452 -0.9840  1.1223 -1.8973
13026TIP3   OH260568   1.277   4.170  14.587  0.7987  0.0284 -0.1402
13026TIP3    H160569   1.281   4.169  14.491 -0.7357 -0.0747 -0.2267
13026TIP3    H260570   1.196   4.124  14.608  0.2744  1.4481  1.1515
13027TIP3   OH260571   6.016   4.314   5.333 -0.1337  0.4568  0.1565
13027TIP3    H160572   5.963   4.379   5.380  0.2225 -0.7563  2.4130
13027TIP3    H260573   6.095   4.305   5.386  0.0460 -1.4202 -0.3576
13028TIP3   OH260574   4.185   6.297   2.265  0.3217 -0.0619 -0.0042
13028TIP3    H160575   4.196   6.205   2.239 -1.2852 -0.1270 -0.5227
13028TIP3    H260576   4.196   6.346   2.183 -2.2302 -0.0816 -0.4351
13029TIP3   OH260577   2.459   2.199  13.738 -0.0308 -0.4335  0.3108
13029TIP3    H160578   2.511   2.180  13.660 -1.4410  2.3116 -1.4671
13029TIP3    H260579   2.375   2.156  13.722 -0.6519  0.9078 -0.2143
13030TIP3   OH260580   3.596   3.585  14.168  0.1309 -0.8963  0.2545
13030TIP3    H160581   3.618   3.606  14.077 -1.0252 -1.1521 -0.1014
13030TIP3    H260582   3.679   3.595  14.215  0.4113  0.8158 -0.5264
13031TIP3   OH260583   1.730   4.949  11.013  0.0569  0.6162 -0.4611
13031TIP3    H160584   1.730   4.907  10.927  0.1410 -0.7240  0.1813
13031TIP3    H260585   1.781   5.029  11.001  0.2804  0.3102 -1.5877
13032TIP3   OH260586   3.647   5.971   5.670  0.6389 -0.0737 -0.4487
13032TIP3    H160587   3.723   5.917   5.648  0.8133  0.1516 -0.3982
13032TIP3    H260588   3.614   6.002   5.586  1.9655  1.6990 -0.3533
13033TIP3   OH260589   1.091   1.738   4.326  0.1623  0.1978  0.1184
13033TIP3    H160590   1.180   1.729   4.294  0.5947 -0.0343  1.3512
13033TIP3    H260591   1.074   1.658   4.375 -0.3697  0.6574  0.7108
13034TIP3   OH260592   5.000   5.430  17.032 -0.6054  0.2885 -0.6864
13034TIP3    H160593   4.947   5.506  17.055 -0.0029  0.5254 -0.0362
13034TIP3    H260594   5.002   5.377  17.112 -0.5536 -0.1339 -0.9635
13035TIP3   OH260595   5.234   0.969  12.802  0.5360  0.4413  0.1564
13035TIP3    H160596   5.144   0.986  12.831 -0.2577  3.0296 -3.2032
13035TIP3    H260597   5.225   0.903  12.734  1.0501  1.1740 -0.6440
13036TIP3   OH260598   0.872   4.074   0.228  0.3995 -0.4112 -0.3448
13036TIP3    H160599   0.823   4.019   0.166 -0.9136 -2.6525  2.4619
13036TIP3    H260600   0.951   4.100   0.180 -1.8958  0.6453 -3.9779
13037TIP3   OH260601   2.819   3.231  16.388  0.2215  0.0570  0.2483
13037TIP3    H160602   2.853   3.320  16.396  1.7022 -0.3916 -0.5863
13037TIP3    H260603   2.745   3.238  16.328 -0.6261  0.9328  1.3693
13038TIP3   OH260604   6.587   3.990  15.188 -0.0356 -0.1420  0.5442
13038TIP3    H160605   6.526   3.938  15.134 -0.2996  1.4399 -0.7423
13038TIP3    H260606   6.592   4.075  15.144  2.6299  0.0064  0.9622
13039TIP3   OH260607   2.529   4.454  14.937  0.0939 -0.4307 -0.7099
13039TIP3    H160608   2.584   4.376  14.948 -0.4498 -0.5625  1.5754
13039TIP3    H260609   2.455   4.440  14.996  0.5188  2.2445  0.5941
13040TIP3   OH260610   6.582   1.389   0.953 -0.2201 -0.3159 -0.4248
13040TIP3    H160611   6.494   1.371   0.920  0.3910  0.0188 -2.3346
13040TIP3    H260612   6.638   1.384   0.876  1.3581  0.0622  0.6591
13041TIP3   OH260613   3.254   4.159  12.210  0.4043  0.0367 -0.5106
13041TIP3    H160614   3.287   4.070  12.197  0.9931  0.1364  0.2279
13041TIP3    H260615   3.246   4.195  12.121 -1.9841 -1.4836 -0.9922
13042TIP3   OH260616   1.679   5.544   3.027  0.2362  0.2109  0.3780
13042TIP3    H160617   1.773   5.560   3.040  0.2836 -0.9185  1.7063
13042TIP3    H260618   1.674   5.499   2.943  0.9296 -0.0104  0.4470
13043TIP3   OH260619   5.718   5.800   1.418  0.3083  0.0661  0.2123
13043TIP3    H160620   5.784   5.839   1.361  0.0588  0.0990 -0.0609
13043TIP3    H260621   5.738   5.832   1.506  1.0789 -0.4853  0.2484
13044TIP3   OH260622   0.686   3.384  13.299 -0.1965 -0.0761  0.1280
13044TIP3    H160623   0.702   3.350  13.210 -0.6518  0.0121  0.0091
13044TIP3    H260624   0.666   3.306  13.351  0.7391 -0.2046  0.3126
13045TIP3   OH260625   1.549   3.441   0.911 -0.0315  0.2432 -0.7933
13045TIP3    H160626   1.494   3.519   0.915  0.9860  0.9487  0.1003
13045TIP3    H260627   1.488   3.369   0.898 -1.3452  0.8335  1.6046
13046TIP3   OH260628   0.998   3.089   0.524 -0.0077  0.1608 -0.1330
13046TIP3    H160629   0.931   3.024   0.500 -0.8973  0.7336  0.7339
13046TIP3    H260630   1.063   3.083   0.454 -0.1584 -1.5328 -0.1767
13047TIP3   OH260631   3.435   0.321  16.814  0.6511  0.3738 -0.1235
13047TIP3    H160632   3.341   0.318  16.794  0.2775  0.0371  1.5542
13047TIP3    H260633   3.466   0.233  16.795  1.1030  0.9659 -2.5621
13048TIP3   OH260634   4.513   1.180   4.260  0.1814 -0.4139  0.0023
13048TIP3    H160635   4.578   1.119   4.225  0.3008  0.2714 -1.0302
13048TIP3    H260636   4.532   1.263   4.216 -1.2221 -0.1347 -0.1323
13049TIP3   OH260637   4.351   5.709  16.705 -0.0906 -0.0415 -0.7055
13049TIP3    H160638   4.323   5.727  16.795  3.0753  1.5687  0.1116
13049TIP3    H260639   4.318   5.621  16.686 -2.1295  0.1663  1.4167
13050TIP3   OH260640   3.627   0.439  12.209  0.0025 -0.0597  0.4176
13050TIP3    H160641   3.689   0.403  12.272  0.6444 -1.3084 -0.8735
13050TIP3    H260642   3.665   0.523  12.183  0.4499 -0.1923  0.6390
13051TIP3   OH260643   4.789   4.157   5.508 -0.3838 -0.3770 -0.6552
13051TIP3    H160644   4.756   4.073   5.475 -1.4083 -0.3360  0.1947
13051TIP3    H260645   4.874   4.136   5.547 -1.9307 -1.7111  2.3404
13052TIP3   OH260646   2.158   1.432   0.774 -0.2894 -0.6116 -0.3933
13052TIP3    H160647   2.063   1.424   0.770 -0.3170 -1.1081  0.7529
13052TIP3    H260648   2.176   1.458   0.864  0.5094  2.3679 -1.2933
13053TIP3   OH260649   1.028   1.353  16.457  0.0353 -0.2496 -0.0836
13053TIP3    H160650   1.061   1.336  16.546  0.9177  0.0393 -0.3474
13053TIP3    H260651   0.948   1.301  16.452 -0.0124 -0.3001  0.8707
13054TIP3   OH260652   2.271   0.614   0.672 -0.2421  0.1709  0.1543
13054TIP3    H160653   2.244   0.573   0.590 -0.2799 -3.3920  1.7515
13054TIP3    H260654   2.360   0.583   0.687 -0.7696 -0.5889  2.1420
13055TIP3   OH260655   2.699   6.526  12.013  0.2767  0.1512 -0.4346
13055TIP3    H160656   2.657   6.608  11.986 -1.3921 -0.7805 -0.8451
13055TIP3    H260657   2.786   6.529  11.973  0.0294  1.4576 -0.9292
13056TIP3   OH260658   3.244   6.009  14.747 -0.0039  0.2297 -0.4087
13056TIP3    H160659   3.186   5.935  14.766 -1.9508  0.8249 -3.4501
13056TIP3    H260660   3.314   5.971  14.694 -0.3254  0.3425 -0.9175
13057TIP3   OH260661   6.335   4.255   5.071  0.4893  0.5405  0.1717
13057TIP3    H160662   6.420   4.299   5.075  0.6847  0.0696  2.9057
13057TIP3    H260663   6.346   4.175   5.122 -0.7815 -1.1407 -1.9737
13058TIP3   OH260664   4.803   6.689  14.611  0.0609 -0.3119 -0.4969
13058TIP3    H160665   4.795   6.606  14.658 -1.0101 -1.5780 -2.7495
13058TIP3    H260666   4.859   6.668  14.536  0.7206  1.3154 -0.4894
13059TIP3   OH260667   5.682   1.608   1.561 -0.2429  0.1613 -0.1580
13059TIP3    H160668   5.732   1.531   1.535  0.9717  1.0272 -0.4616
13059TIP3    H260669   5.650   1.645   1.479 -0.7721  0.0150 -0.0199
13060TIP3   OH260670   1.084   2.506   5.813 -0.1333  0.4191  0.0668
13060TIP3    H160671   1.144   2.521   5.887  0.7696 -1.2569 -0.2804
13060TIP3    H260672   1.124   2.553   5.740  2.9815 -3.5764 -1.1643
13061TIP3   OH260673   4.046   0.544   5.898  0.5970  1.1435  0.1218
13061TIP3    H160674   4.066   0.534   5.991 -1.2742 -0.4225  0.4212
13061TIP3    H260675   3.989   0.470   5.878 -2.5720  3.6928 -1.2330
13062TIP3   OH260676   6.458   3.508  13.444 -0.2106 -0.4977  0.1624
13062TIP3    H160677   6.469   3.593  13.488 -0.5589 -1.0943  1.4597
13062TIP3    H260678   6.532   3.456  13.475  1.0713 -0.1185 -2.0860
13063TIP3   OH260679   5.169   2.540   3.733  0.3285  0.0376  1.0060
13063TIP3    H160680   5.214   2.474   3.785  1.3199  1.5937  2.2282
13063TIP3    H260681   5.198   2.624   3.771 -1.7272  1.1574  0.2491
13064TIP3   OH260682   3.740   4.440  13.013 -0.0821 -0.8809  0.1784
13064TIP3    H160683   3.762   4.348  12.996  1.0517 -0.7786  0.9310
13064TIP3    H260684   3.812   4.471  13.068 -0.8705  0.2372  0.6053
13065TIP3   OH260685   0.881   1.296   4.022  0.2082 -0.5645  0.1879
13065TIP3    H160686   0.829   1.248   3.956 -0.8333  0.1933  0.4244
13065TIP3    H260687   0.946   1.233   4.051 -1.4473 -2.0529  0.8815
13066TIP3   OH260688   3.315   3.558  13.570  0.0741  0.3832  0.3531
13066TIP3    H160689   3.244   3.538  13.508  1.0191  1.1952 -1.0307
13066TIP3    H260690   3.278   3.624  13.628 -1.0721 -0.9216  1.1577
13067TIP3   OH260691   0.611   4.042   3.991 -0.3233  0.2194 -0.1249
13067TIP3    H160692   0.522   4.042   3.957 -0.6717 -0.0399  0.7621
13067TIP3    H260693   0.622   3.956   4.031 -0.1442  0.7203  0.9528
13068TIP3   OH260694   4.793   1.475   3.127 -0.1684  0.6653  0.0444
13068TIP3    H160695   4.871   1.529   3.116  0.1876  0.1849  0.1918
13068TIP3    H260696   4.723   1.525   3.085  0.0253  1.5386  0.7280
13069TIP3   OH260697   3.110   3.124   5.451  0.1262 -0.0602  0.1589
13069TIP3    H160698   3.034   3.137   5.508  1.2910  0.5219  1.6607
13069TIP3    H260699   3.174   3.189   5.481  1.4636 -0.9689 -0.5995
13070TIP3   OH260700   5.667   1.288   4.118  0.5268  0.3643 -0.1772
13070TIP3    H160701   5.618   1.221   4.070  1.9734 -3.2339  2.8899
13070TIP3    H260702   5.609   1.314   4.189  0.4527  1.5431 -0.6435
13071TIP3   OH260703   4.550   5.476  16.386 -0.3345 -0.5066 -0.4983
13071TIP3    H160704   4.562   5.406  16.450  0.9369 -0.2226 -0.4059
13071TIP3    H260705   4.584   5.554  16.429 -1.1298  0.0515 -0.8515
13072TIP3   OH260706   2.500   2.454  14.399 -0.2009 -0.3668 -0.1088
13072TIP3    H160707   2.580   2.449  14.346 -0.4635  1.1687 -0.6808
13072TIP3    H260708   2.531   2.441  14.489  0.7946  0.7849 -0.2599
13073TIP3   OH260709   6.171   3.839  15.886 -0.4170 -0.4902 -0.3509
13073TIP3    H160710   6.231   3.820  15.814 -0.2001  0.3401 -0.3998
13073TIP3    H260711   6.216   3.807  15.964  0.0711  0.0553 -0.3956
13074TIP3   OH260712   6.547   1.153   4.258  0.1420  0.1876  0.3152
13074TIP3    H160713   6.501   1.129   4.338  1.9929 -0.7764  1.1362
13074TIP3    H260714   6.532   1.079   4.199 -0.1612  0.3240  0.2178
13075TIP3   OH260715   4.048   4.360  14.690  0.2865 -0.2484  0.1312
13075TIP3    H160716   4.064   4.268  14.714  2.4848 -0.3852 -1.5227
13075TIP3    H260717   3.976   4.356  14.627 -0.3007 -0.7018  0.8123
13076TIP3   OH260718   1.990   3.878   2.103 -0.1694  0.1265  0.1514
13076TIP3    H160719   1.999   3.951   2.042 -2.8149 -1.0373 -1.7879
13076TIP3    H260720   2.004   3.800   2.050 -0.6439 -0.8911  1.4684
13077TIP3   OH260721   4.094   1.132   0.812  0.2937  0.0576 -0.0697
13077TIP3    H160722   4.054   1.133   0.725  0.4958  0.4565 -0.1592
13077TIP3    H260723   4.167   1.192   0.805  2.1174 -2.0755 -0.4703
13078TIP3   OH260724   2.457   5.162  15.542 -0.2635  0.1848 -0.0299
13078TIP3    H160725   2.485   5.124  15.459 -1.4644  0.9310 -0.8239
13078TIP3    H260726   2.538   5.187  15.587  0.4202 -0.7825 -0.7004
13079TIP3   OH260727   1.195   6.256   3.723 -0.3795  0.7437  0.2567
13079TIP3    H160728   1.247   6.186   3.683 -1.0759  1.1505 -1.4548
13079TIP3    H260729   1.236   6.271   3.809  0.6599 -0.7541  0.0530
13080TIP3   OH260730   1.329   3.389   1.764  0.0740 -0.2536 -1.1875
13080TIP3    H160731   1.372   3.452   1.822 -2.0633  0.4517 -0.2720
13080TIP3    H260732   1.373   3.306   1.781 -1.1618 -0.3247  2.3498
13081TIP3   OH260733   0.825   4.987   5.890  0.2709 -0.0258  0.6446
13081TIP3    H160734   0.752   5.049   5.903  0.5516  0.2001  1.1773
13081TIP3    H260735   0.887   5.008   5.960  0.3667 -0.9213  0.8418
13082TIP3   OH260736   6.396   6.763   1.270 -0.4941  0.2339 -0.0947
13082TIP3    H160737   6.411   6.739   1.179 -1.6991 -0.4780 -0.1262
13082TIP3    H260738   6.416   6.683   1.319 -1.1471  0.2003  0.1292
13083TIP3   OH260739   3.711   4.312   2.607  0.3409 -0.5229 -0.7311
13083TIP3    H160740   3.732   4.402   2.583  0.2585 -0.7610 -1.7416
13083TIP3    H260741   3.783   4.284   2.664 -1.2847  1.2795  2.4934
13084TIP3   OH260742   0.713   5.893  12.322 -0.2927 -0.3529 -0.7389
13084TIP3    H160743   0.619   5.897  12.305 -0.1850 -1.4463 -1.6965
13084TIP3    H260744   0.753   5.906  12.236  0.4592  0.7154 -0.2518
13085TIP3   OH260745   5.637   2.282  12.330  0.2789  0.2418  0.5252
13085TIP3    H160746   5.611   2.333  12.407  1.2091  0.5765  0.6348
13085TIP3    H260747   5.683   2.206  12.365  0.8607  0.4849  0.3001
13086TIP3   OH260748   1.738   2.903   0.856 -0.0924 -0.1497  0.0578
13086TIP3    H160749   1.726   2.936   0.945 -0.5979  0.6007 -0.2811
13086TIP3    H260750   1.832   2.914   0.839  0.6979 -3.3433  1.6517
13087TIP3   OH260751   0.737   5.676   3.489 -0.2343 -0.3362  0.1005
13087TIP3    H160752   0.704   5.751   3.440  1.1911  1.3689  1.6346
13087TIP3    H260753   0.819   5.653   3.445  0.2995  0.2646  0.7497
13088TIP3   OH260754   5.113   2.489   5.187  0.0023  0.0020  0.0490
13088TIP3    H160755   5.073   2.402   5.179 -1.3845  0.6373 -0.1691
13088TIP3    H260756   5.118   2.505   5.281 -2.9988  1.0660  0.1471
13089TIP3   OH260757   4.304   1.569   1.376 -0.7048  0.1664  0.3062
13089TIP3    H160758   4.349   1.635   1.325 -0.6858  1.2866  1.7232
13089TIP3    H260759   4.258   1.516   1.311 -0.1171  1.1019 -0.9045
13090TIP3   OH260760   5.457   4.558   4.466  0.2989  0.3185 -0.6413
13090TIP3    H160761   5.465   4.465   4.443  1.1696  0.9346 -3.1896
13090TIP3    H260762   5.397   4.559   4.540  1.4677 -2.3862  0.5212
13091TIP3   OH260763   1.823   5.247   2.829 -0.2135 -0.3222 -0.0184
13091TIP3    H160764   1.889   5.268   2.764 -0.1540 -3.2114 -1.0553
13091TIP3    H260765   1.744   5.291   2.798  0.3086  0.0148 -0.9003
13092TIP3   OH260766   6.210   3.115  11.766  0.6401 -0.5886 -0.4564
13092TIP3    H160767   6.121   3.113  11.729  0.2149  0.9242  0.4231
13092TIP3    H260768   6.267   3.133  11.691 -0.1682  2.0662 -0.5284
13093TIP3   OH260769   2.019   5.669   5.029 -0.3029 -0.1010  0.1860
13093TIP3    H160770   1.966   5.746   5.048 -0.3211  0.4258 -1.7677
13093TIP3    H260771   2.025   5.666   4.933  0.4866 -1.9990  0.2313
13094TIP3   OH260772   6.598   2.303  15.015 -0.1962 -0.0152  0.6753
13094TIP3    H160773   6.531   2.364  15.046 -0.0319  0.2154  0.5771
13094TIP3    H260774   6.563   2.270  14.932 -0.9920 -1.2068  1.4401
13095TIP3   OH260775   3.037   5.066  13.424 -0.6640  0.4100  0.2634
13095TIP3    H160776   3.100   5.137  13.435  0.5427 -0.5217 -0.3715
13095TIP3    H260777   2.962   5.106  13.380 -0.6052  1.5810  1.1863
13096TIP3   OH260778   3.490   6.502   0.077  0.2925 -0.4573  0.7385
13096TIP3    H160779   3.522   6.579   0.124 -1.2432  0.0632  0.9921
13096TIP3    H260780   3.426   6.463   0.137 -0.3497 -0.8345 -0.1662
13097TIP3   OH260781   4.976   1.007   4.218  0.2110 -0.3507  0.0718
13097TIP3    H160782   5.054   1.061   4.230 -0.4181  0.6878 -0.4451
13097TIP3    H260783   5.010   0.917   4.216  1.2872  0.0153  0.7543
13098TIP3   OH260784   1.187   6.217  14.253  0.9543  0.3304 -0.5707
13098TIP3    H160785   1.111   6.270  14.274 -0.4274 -1.1572 -1.5790
13098TIP3    H260786   1.212   6.176  14.337 -0.6431 -0.7492 -0.5891
13099TIP3   OH260787   3.473   3.115   5.557  0.1473  0.5771 -0.0260
13099TIP3    H160788   3.555   3.163   5.565 -0.4719  1.5826  0.4560
13099TIP3    H260789   3.425   3.136   5.637  0.3883 -1.9158  0.8719
13100TIP3   OH260790   4.431   1.201  12.752  0.2576 -0.3221  0.2585
13100TIP3    H160791   4.476   1.220  12.834  0.6608 -0.2616  0.0278
13100TIP3    H260792   4.472   1.259  12.688 -1.3936  1.0763  0.3985
13101TIP3   OH260793   5.199   0.660   2.673  0.0744 -0.0441 -0.4116
13101TIP3    H160794   5.152   0.730   2.628  0.2600 -0.0345 -0.5925
13101TIP3    H260795   5.242   0.704   2.746  0.9067  0.1973 -1.0303
13102TIP3   OH260796   3.108   2.220  12.212 -0.2210 -0.1696  0.0424
13102TIP3    H160797   3.075   2.241  12.125 -1.0908 -0.9975  0.1555
13102TIP3    H260798   3.202   2.234  12.206 -0.4361  1.0569 -0.6468
13103TIP3   OH260799   5.909   6.519  13.365 -0.1198 -0.2720 -0.2732
13103TIP3    H160800   5.832   6.477  13.403  0.4320 -0.5472  0.5833
13103TIP3    H260801   5.875   6.594  13.316 -1.0186 -1.0865 -0.8963
13104TIP3   OH260802   4.684   6.125   1.408 -0.1189 -0.2803 -0.2922
13104TIP3    H160803   4.663   6.195   1.469 -0.3975 -0.1331 -0.5551
13104TIP3    H260804   4.603   6.073   1.402  0.4257 -1.3140  0.7988
13105TIP3   OH260805   1.406   5.005  15.939  0.6700 -0.1377  0.1903
13105TIP3    H160806   1.348   5.045  16.004  0.1584  2.6276 -1.7832
13105TIP3    H260807   1.491   5.046  15.955  0.4256  0.9318 -1.1257
13106TIP3   OH260808   1.570   2.928  12.588 -0.4717 -0.0246 -0.2246
13106TIP3    H160809   1.544   2.913  12.497 -0.3242 -1.1278 -0.0994
13106TIP3    H260810   1.549   2.846  12.632  0.0708  0.2709  0.5969
13107TIP3   OH260811   6.411   2.493   3.930 -0.2894  0.0944  0.7065
13107TIP3    H160812   6.480   2.528   3.987 -0.3966  0.3530  0.6787
13107TIP3    H260813   6.456   2.430   3.873  0.4668  2.2103 -1.1642
13108TIP3   OH260814   3.443   1.266   5.534  0.1392  0.1191  0.1955
13108TIP3    H160815   3.357   1.306   5.546 -0.3640 -1.1428  0.9536
13108TIP3    H260816   3.451   1.255   5.439 -1.2781 -1.2651  0.1952
13109TIP3   OH260817   0.113   6.325  13.732  0.2834 -0.2043 -0.2890
13109TIP3    H160818   0.078   6.389  13.671  1.6528 -0.5595 -1.4952
13109TIP3    H260819   0.059   6.335  13.811  0.2957  2.2514 -0.5105
13110TIP3   OH260820   0.570   0.292   4.948  0.0087  0.1131  0.1709
13110TIP3    H160821   0.579   0.208   4.992 -0.3617 -0.9071 -1.5918
13110TIP3    H260822   0.612   0.355   5.007 -1.8397 -0.8531  2.7116
13111TIP3   OH260823   2.129   5.707  12.335  0.0452  0.4332  0.3450
13111TIP3    H160824   2.208   5.686  12.385 -0.1755  0.8659  0.8817
13111TIP3    H260825   2.157   5.702  12.243  0.6597  0.4511  0.5261
13112TIP3   OH260826   6.199   2.790  12.604  0.3435 -0.0178 -0.4322
13112TIP3    H160827   6.237   2.702  12.603  0.5300  0.0053 -3.3915
13112TIP3    H260828   6.273   2.847  12.623  0.8240 -0.3226 -1.3206
13113TIP3   OH260829   4.097   5.694  14.687  0.4612 -0.0356  0.0325
13113TIP3    H160830   4.086   5.777  14.733  0.4155  1.4113 -2.4113
13113TIP3    H260831   4.191   5.687  14.673  0.3171  0.7733 -1.6380
13114TIP3   OH260832   1.341   1.853  12.588  0.3917 -0.0342  0.6467
13114TIP3    H160833   1.424   1.807  12.580  0.7102  0.8127 -2.3643
13114TIP3    H260834   1.280   1.787  12.622  1.8772 -1.1742  1.1932
13115TIP3   OH260835   4.206   5.611   1.495  0.4189 -0.3628  0.4001
13115TIP3    H160836   4.234   5.698   1.524  1.1480 -0.2846 -0.5153
13115TIP3    H260837   4.285   5.571   1.458 -0.0759 -1.1480  0.1632
13116TIP3   OH260838   5.082   2.661  11.965 -0.1851  0.1937 -0.1275
13116TIP3    H160839   5.108   2.573  11.992  0.4168 -0.0358 -1.4013
13116TIP3    H260840   4.998   2.676  12.009 -1.4682 -1.9252 -1.6872
13117TIP3   OH260841   0.146   5.563  13.342  0.3147 -0.1884 -0.3606
13117TIP3    H160842   0.067   5.547  13.290  0.7226 -3.0055 -0.2617
13117TIP3    H260843   0.120   5.627  13.408 -1.3618  0.2736 -1.4263
13118TIP3   OH260844   6.564   0.868  12.349  0.0544  0.0503  0.2281
13118TIP3    H160845   6.601   0.786  12.380 -1.2170 -0.2586  0.9925
13118TIP3    H260846   6.590   0.873  12.257 -1.4877 -2.2015 -0.3972
13119TIP3   OH260847   0.039   1.002  16.717 -0.0708 -0.2823  0.2412
13119TIP3    H160848  -0.009   0.999  16.799  0.3977 -1.0402  0.4945
13119TIP3    H260849   0.131   1.014  16.743  0.1550 -1.1322 -0.1414
13120TIP3   OH260850   6.401   5.949   2.525  0.5406 -0.0486  0.0133
13120TIP3    H160851   6.465   5.878   2.528  0.9284  0.2819 -0.3191
13120TIP3    H260852   6.451   6.028   2.545  0.0361  0.0941  0.7976
13121TIP3   OH260853   6.600   6.792   0.207  0.6720 -0.4429  0.2151
13121TIP3    H160854   6.683   6.753   0.236  0.7518 -0.4733 -0.0578
13121TIP3    H260855   6.620   6.833   0.124  0.3620 -0.6331  0.0420
13122TIP3   OH260856   2.731   1.685   2.412  0.1183 -0.0390 -0.7202
13122TIP3    H160857   2.737   1.601   2.367  0.6700 -1.0092  1.1022
13122TIP3    H260858   2.638   1.694   2.434 -0.1486  0.4191 -1.9253
13123TIP3   OH260859   3.067   3.896   3.032  0.2597 -0.9060  0.2172
13123TIP3    H160860   3.161   3.893   3.013  0.7038  3.5300  0.7791
13123TIP3    H260861   3.028   3.935   2.954 -0.7553 -0.3727  0.9740
13124TIP3   OH260862   6.608   3.121  13.945  0.2661 -0.2836 -0.3613
13124TIP3    H160863   6.584   3.075  14.026 -0.0085 -1.0369 -0.8543
13124TIP3    H260864   6.652   3.201  13.975  1.2269 -1.1088  0.5259
13125TIP3   OH260865   5.371   1.033  10.949 -0.2256 -0.1686  0.2983
13125TIP3    H160866   5.458   1.059  10.919 -0.9276  1.4258 -0.4647
13125TIP3    H260867   5.339   0.973  10.882  0.1963 -0.5991  0.4775
13126TIP3   OH260868   3.836   0.276  11.711  0.2453  0.0766  0.1327
13126TIP3    H160869   3.855   0.346  11.773  1.5201  0.2017 -0.3685
13126TIP3    H260870   3.794   0.208  11.764  0.3692  0.5941  0.9175
13127TIP3   OH260871   0.605   3.536   5.422  0.1184 -0.1053  0.1115
13127TIP3    H160872   0.693   3.505   5.445  1.0871  3.8488  2.8418
13127TIP3    H260873   0.610   3.556   5.329  1.3897 -1.8230 -0.2443
13128TIP3   OH260874   1.319   6.423  10.753 -0.7828  0.4753  0.4420
13128TIP3    H160875   1.301   6.455  10.665 -0.2295 -0.9366 -0.2195
13128TIP3    H260876   1.253   6.355  10.768 -2.0185  1.9379  1.8605
13129TIP3   OH260877   0.035   2.320   0.623 -0.0523 -0.4627  0.1631
13129TIP3    H160878   0.015   2.332   0.716 -0.4906  0.5468 -0.0458
13129TIP3    H260879   0.111   2.376   0.608  0.4052 -1.1103  0.0466
13130TIP3   OH260880   2.218   0.154   2.976 -0.0076 -0.3808 -0.3121
13130TIP3    H160881   2.146   0.159   2.913 -2.2320  0.1751  2.0419
13130TIP3    H260882   2.295   0.135   2.924 -1.8544 -1.0543 -3.0308
13131TIP3   OH260883   6.315   3.219  12.524 -0.3929 -0.0176  0.2000
13131TIP3    H160884   6.222   3.202  12.539 -1.1255  3.5229  0.6221
13131TIP3    H260885   6.317   3.271  12.444  1.3284 -0.5975 -0.1689
13132TIP3   OH260886   6.751   1.453   5.412  0.5176  0.1620  0.3297
13132TIP3    H160887   6.795   1.408   5.485 -0.1522  0.2072  0.7744
13132TIP3    H260888   6.681   1.502   5.454  1.5699  2.1074 -0.0659
13133TIP3   OH260889   2.508   2.330   6.047 -0.3905  0.3458 -0.1855
13133TIP3    H160890   2.517   2.424   6.031  0.9130  0.1997 -0.4305
13133TIP3    H260891   2.447   2.324   6.121  0.3242  1.4452  0.5259
13134TIP3   OH260892   2.008   0.795   4.049  0.0370  0.1530 -0.3814
13134TIP3    H160893   2.006   0.805   3.954 -1.6358 -2.3800 -0.7125
13134TIP3    H260894   1.931   0.843   4.080 -0.1701 -0.1090 -0.4797
13135TIP3   OH260895   3.043   6.706  10.993 -0.4559 -0.1933 -0.0549
13135TIP3    H160896   2.980   6.739  10.929 -0.8966 -0.4687  0.2237
13135TIP3    H260897   3.128   6.714  10.951 -0.6784  0.2018 -0.4347
13136TIP3   OH260898   2.888   4.336   0.655 -0.7251  0.3413  0.4748
13136TIP3    H160899   2.881   4.330   0.750  0.6480 -1.1699  0.5176
13136TIP3    H260900   2.977   4.367   0.639 -1.2572  1.5567 -0.3267
13137TIP3   OH260901   4.251   4.561  15.411 -0.0157 -0.5516 -0.3538
13137TIP3    H160902   4.302   4.533  15.335  2.5904  0.7984  0.7713
13137TIP3    H260903   4.291   4.515  15.485 -1.3297 -0.4567  0.4540
13138TIP3   OH260904   3.316   5.160   0.765 -0.8136 -0.2570  0.1123
13138TIP3    H160905   3.287   5.128   0.679  2.1691  0.0050 -1.1063
13138TIP3    H260906   3.259   5.235   0.783 -1.6752 -0.4799 -1.5026
13139TIP3   OH260907   0.455   3.504  15.939  0.3832  0.3794 -0.0562
13139TIP3    H160908   0.535   3.520  15.989  1.3724 -0.5764 -1.2806
13139TIP3    H260909   0.392   3.473  16.005  0.9927  1.1813  0.9304
13140TIP3   OH260910   6.783   4.520  15.557  0.0216  0.6805  0.3233
13140TIP3    H160911   6.773   4.481  15.470 -0.5542  3.5481 -1.0282
13140TIP3    H260912   6.698   4.507  15.599 -0.1132  0.3697 -0.0360
13141TIP3   OH260913   0.229   5.368  11.955 -0.3112 -0.5841  0.0711
13141TIP3    H160914   0.249   5.421  12.032  1.7393  2.2165 -2.1802
13141TIP3    H260915   0.292   5.296  11.959  0.3725  0.0301  0.5970
13142TIP3   OH260916   3.956   3.481   5.598  0.5669  0.2742  0.1661
13142TIP3    H160917   3.880   3.487   5.656 -1.1847 -0.7451 -1.8831
13142TIP3    H260918   3.973   3.571   5.572  0.5850  0.6040  1.2506
13143TIP3   OH260919   0.856   0.389   3.102  0.5185  0.0087 -0.2546
13143TIP3    H160920   0.949   0.368   3.092  0.4223  0.0367 -1.4567
13143TIP3    H260921   0.811   0.320   3.053 -0.1390 -0.4021  0.9127
13144TIP3   OH260922   2.192   4.753   5.413 -0.1718 -0.1163 -0.0723
13144TIP3    H160923   2.159   4.820   5.354  0.7676  0.8957  0.5153
13144TIP3    H260924   2.286   4.772   5.420 -0.1397 -0.6811  1.1606
13145TIP3   OH260925   3.771   0.656   1.966  0.7274  0.1656  0.3085
13145TIP3    H160926   3.693   0.683   2.015 -1.4214 -1.0464 -2.1774
13145TIP3    H260927   3.772   0.561   1.973  2.4629  0.2000  0.8961
13146TIP3   OH260928   3.542   1.526   0.645  0.2399  0.3410  0.4624
13146TIP3    H160929   3.531   1.600   0.704  2.0117 -0.0637  1.3550
13146TIP3    H260930   3.478   1.542   0.575 -0.9156  1.5608  1.7338
13147TIP3   OH260931   4.922   3.616   0.958 -0.1166 -0.3581  0.0284
13147TIP3    H160932   4.873   3.694   0.985  2.5917  1.0336  1.2768
13147TIP3    H260933   4.950   3.634   0.869 -1.6391 -1.0914 -0.6323
13148TIP3   OH260934   2.834   4.198  10.887 -0.4152  0.3623  0.1070
13148TIP3    H160935   2.891   4.252  10.831  0.6089 -0.2153  0.5662
13148TIP3    H260936   2.845   4.109  10.853 -0.2611  0.1010  0.8380
13149TIP3   OH260937   1.843   2.674   0.021 -0.2024  1.0892 -0.5601
13149TIP3    H160938   1.824   2.634   0.105 -0.9957  0.8549 -0.8430
13149TIP3    H260939   1.923   2.630  -0.010  1.4855  2.7750  1.1005
13150TIP3   OH260940   0.213   2.594  14.117  0.1188 -0.3465 -0.2016
13150TIP3    H160941   0.271   2.670  14.123 -1.6714  0.9842  2.3042
13150TIP3    H260942   0.131   2.628  14.082 -0.5900 -1.1784  0.5689
13151TIP3   OH260943   1.419   1.352   1.807 -0.4105  0.0498 -0.0274
13151TIP3    H160944   1.374   1.405   1.741 -0.4335 -1.1014 -0.9786
13151TIP3    H260945   1.461   1.415   1.865 -0.8052  1.1010 -0.8629
13152TIP3   OH260946   1.305   3.209  15.155  0.2843 -0.0536 -0.2938
13152TIP3    H160947   1.227   3.209  15.210  0.4641  0.0262 -0.0358
13152TIP3    H260948   1.354   3.286  15.182  0.4115 -0.0575 -0.5115
13153TIP3   OH260949   5.488   0.632   0.655  0.4452  0.2692  0.1322
13153TIP3    H160950   5.498   0.686   0.733 -1.9804  1.2526 -0.1696
13153TIP3    H260951   5.466   0.546   0.688  1.5674  0.1160  0.5430
13154TIP3   OH260952   1.029   2.516  15.353 -0.0119  0.3757 -0.1469
13154TIP3    H160953   0.968   2.554  15.415 -0.2245  0.7366 -0.5671
13154TIP3    H260954   1.006   2.557  15.269 -0.8483 -1.3359 -0.8053
13155TIP3   OH260955   2.387   3.660  11.572 -0.7468 -0.3097 -0.0900
13155TIP3    H160956   2.365   3.674  11.480 -0.3369 -0.4557 -0.2138
13155TIP3    H260957   2.326   3.593  11.602 -0.5586 -0.6154 -0.3901
13156TIP3   OH260958   3.520   4.664   0.793  0.1139  0.0000  0.4858
13156TIP3    H160959   3.498   4.573   0.813 -2.6011  1.0856  3.5232
13156TIP3    H260960   3.533   4.705   0.879 -2.9658  3.2801 -0.3446
13157TIP3   OH260961   2.643   0.125  11.471  0.2795 -0.2014 -0.1918
13157TIP3    H160962   2.686   0.199  11.429 -0.6206  0.0764 -0.6625
13157TIP3    H260963   2.555   0.124  11.433 -0.5911  0.0579  1.6707
13158TIP3   OH260964   5.472   6.413  12.068 -0.0093 -0.1426 -0.0571
13158TIP3    H160965   5.437   6.377  12.149  0.0040 -2.3150 -0.9534
13158TIP3    H260966   5.417   6.489  12.049 -1.1399 -0.6611  1.0481
13159TIP3   OH260967   3.130   6.503  16.703 -0.1285  0.7419 -0.0431
13159TIP3    H160968   3.146   6.581  16.757 -0.2547  0.4741  0.3826
13159TIP3    H260969   3.066   6.453  16.752  1.3460 -0.5655  0.6319
13160TIP3   OH260970   5.906   1.808  15.553  0.1958 -0.2385 -0.1802
13160TIP3    H160971   5.823   1.856  15.549 -0.3110 -1.1973 -2.0837
13160TIP3    H260972   5.894   1.733  15.495  2.1774 -0.7760  0.0170
13161TIP3   OH260973   5.435   0.961  16.697 -0.0996  0.2440 -0.5682
13161TIP3    H160974   5.417   1.041  16.647  2.6888  2.4778  1.6442
13161TIP3    H260975   5.529   0.950  16.691 -0.3246 -2.5222 -0.1508
13162TIP3   OH260976   6.812   2.007  14.302  0.9358 -0.5154  0.3109
13162TIP3    H160977   6.760   1.937  14.261 -1.7326  1.5928 -0.1969
13162TIP3    H260978   6.876   2.031  14.235 -0.7392  0.1532 -1.1292
13163TIP3   OH260979   6.669   1.601  15.667 -0.3228  0.0298 -0.1239
13163TIP3    H160980   6.629   1.654  15.735 -1.0124  0.0550 -0.5408
13163TIP3    H260981   6.636   1.638  15.585 -1.4330 -1.4929 -0.4164
13164TIP3   OH260982   2.659   5.741   5.928 -0.4350 -0.0167 -0.6943
13164TIP3    H160983   2.580   5.768   5.881 -0.1262  0.6659 -0.8409
13164TIP3    H260984   2.689   5.821   5.973 -0.3773 -0.5126  0.1562
13165TIP3   OH260985   6.455   4.561  14.955  0.5492 -0.5232 -0.5382
13165TIP3    H160986   6.375   4.613  14.961  1.9157  1.7849 -1.3045
13165TIP3    H260987   6.433   4.478  14.998 -2.1049  0.1892 -0.3864
13166TIP3   OH260988   5.808   3.645   6.588 -0.1935 -0.4166 -0.0397
13166TIP3    H160989   5.742   3.704   6.550  0.5097 -0.3477 -1.1754
13166TIP3    H260990   5.822   3.680   6.676  0.3656  1.2849 -0.7495
13167TIP3   OH260991   6.723   1.890   1.715  0.3626  0.8899  0.2202
13167TIP3    H160992   6.770   1.854   1.789  1.2827  1.1699 -0.2152
13167TIP3    H260993   6.636   1.911   1.750 -0.0241 -1.1863  0.6145
13168TIP3   OH260994   5.584   2.907   2.175 -0.4927 -0.1031 -0.1029
13168TIP3    H160995   5.491   2.918   2.155 -0.6970 -0.1811  0.7563
13168TIP3    H260996   5.615   2.845   2.109 -0.9978  0.0945 -0.5364
13169TIP3   OH260997   5.492   2.347   2.130 -0.7482 -0.2667  0.3771
13169TIP3    H160998   5.425   2.392   2.079 -0.1868  1.0324  0.7471
13169TIP3    H260999   5.448   2.322   2.212 -0.6594  1.0604  0.8466
13170TIP3   OH261000   2.356   0.186  13.305  0.4266 -0.1944  0.2800
13170TIP3    H161001   2.424   0.175  13.239 -0.0245 -2.9083  0.1554
13170TIP3    H261002   2.370   0.114  13.367 -2.1386 -0.7199  0.3690
13171TIP3   OH261003   4.162   3.393   4.775 -0.1083 -0.2821 -0.5318
13171TIP3    H161004   4.194   3.459   4.714 -0.5404 -0.5197 -1.0231
13171TIP3    H261005   4.178   3.430   4.862 -2.1647  1.4008 -0.7751
13172TIP3   OH261006   6.393   0.911   0.992  0.0412  0.0180 -0.2002
13172TIP3    H161007   6.392   0.872   0.904  0.6826 -0.0440 -0.1784
13172TIP3    H261008   6.485   0.916   1.015 -0.1042  0.4686  0.2828
13173TIP3   OH261009   0.749   4.403  14.792 -0.0985 -0.4328 -0.0069
13173TIP3    H161010   0.667   4.429  14.834  0.3733 -1.1843  1.4456
13173TIP3    H261011   0.731   4.317  14.755  0.4201 -1.2264  1.5446
13174TIP3   OH261012   3.450   3.211   5.272  0.5950  0.5098  0.0666
13174TIP3    H161013   3.487   3.134   5.316 -2.0967 -1.9224 -1.5627
13174TIP3    H261014   3.406   3.259   5.342  1.6448  0.1732  0.9916
13175TIP3   OH261015   0.158   0.909  17.069  0.1068  0.1979  0.0982
13175TIP3    H161016   0.199   0.829  17.102  0.3198  0.8359  1.4901
13175TIP3    H261017   0.207   0.932  16.990  0.4786 -0.6765  0.0701
13176TIP3   OH261018   5.240   6.088  15.127  0.0417 -0.3548  0.2603
13176TIP3    H161019   5.275   6.009  15.086  1.0451  0.8067 -1.2355
13176TIP3    H261020   5.290   6.097  15.208  0.5256 -0.7957  0.0179
13177TIP3   OH261021   2.267   3.563   1.115 -0.7463 -0.4147  0.2032
13177TIP3    H161022   2.240   3.476   1.145 -0.2304 -0.7920 -0.4126
13177TIP3    H261023   2.280   3.553   1.021 -0.7160  0.3415  0.1234
13178TIP3   OH261024   6.578   3.768  12.713 -0.2514  0.3257  0.1450
13178TIP3    H161025   6.617   3.852  12.735 -0.5127  0.5495 -0.2483
13178TIP3    H261026   6.500   3.763  12.769 -0.7883  0.7938 -0.5397
13179TIP3   OH261027   4.854   3.690   5.485 -0.0316  0.0164 -0.0424
13179TIP3    H161028   4.785   3.631   5.454  0.0866  0.3638 -1.0023
13179TIP3    H261029   4.838   3.698   5.579  0.3688 -2.1114  0.2685
13180TIP3   OH261030   4.707   4.031   2.879  0.0566 -0.1271 -0.5226
13180TIP3    H161031   4.664   4.067   2.802  0.8019 -1.0379 -1.3952
13180TIP3    H261032   4.725   3.940   2.856  1.1280 -0.1610  0.3723
13181TIP3   OH261033   2.153   5.971   0.823  0.2021 -0.0621  0.3847
13181TIP3    H161034   2.158   6.064   0.805  1.2410 -0.0894  0.4979
13181TIP3    H261035   2.221   5.955   0.888 -1.5481 -0.4777  2.2543
13182TIP3   OH261036   1.977   2.347   5.534  0.5940  0.1520 -0.0604
13182TIP3    H161037   2.066   2.379   5.520  0.0956  1.6704  0.0577
13182TIP3    H261038   1.926   2.384   5.461 -0.1056  0.0263  0.3522
13183TIP3   OH261039   0.045   4.876   1.913  0.5545  0.1174 -0.1578
13183TIP3    H161040   0.042   4.817   1.988  0.0342  0.8906  0.4475
13183TIP3    H261041   0.083   4.957   1.948  0.1468  0.5462 -0.6906
13184TIP3   OH261042   1.841   6.284  12.344 -0.6276 -0.3489  0.4625
13184TIP3    H161043   1.777   6.325  12.285 -0.8969 -0.8702  0.3919
13184TIP3    H261044   1.901   6.237  12.285 -0.5688 -0.4074  0.5696
13185TIP3   OH261045   0.978   2.540   1.711 -0.3779  0.4422  0.0825
13185TIP3    H161046   0.957   2.449   1.733 -1.0220  0.5395 -0.1232
13185TIP3    H261047   0.896   2.576   1.677  0.4217  0.4821 -1.8938
13186TIP3   OH261048   4.311   0.162   3.654  0.0818  1.2146 -0.4542
13186TIP3    H161049   4.251   0.232   3.629 -0.4488  1.1500  0.5720
13186TIP3    H261050   4.262   0.110   3.717  0.3382 -0.3123 -1.4728
13187TIP3   OH261051   3.747   6.469   0.237  0.1054 -0.4267  0.0406
13187TIP3    H161052   3.673   6.501   0.289  0.2395 -1.5469  0.9673
13187TIP3    H261053   3.824   6.508   0.278  0.0395  0.9376 -1.0763
13188TIP3   OH261054   5.816   1.397  10.941 -0.2629 -0.0788  0.0991
13188TIP3    H161055   5.831   1.439  10.856 -0.5142 -0.4951 -0.1537
13188TIP3    H261056   5.827   1.304  10.924  0.8569 -0.0869  0.7764
13189TIP3   OH261057   3.230   3.489  15.273  0.2411  0.1206 -0.4074
13189TIP3    H161058   3.192   3.536  15.199  1.4715  0.6571 -0.7227
13189TIP3    H261059   3.278   3.417  15.233 -1.7097 -1.5486  0.0776
13190TIP3   OH261060   4.068   5.552  14.384  0.1379  0.0335  0.5506
13190TIP3    H161061   4.052   5.479  14.445  1.3421  0.6553  1.6402
13190TIP3    H261062   4.073   5.510  14.298 -1.0032 -0.9351  0.9132
13191TIP3   OH261063   0.957   4.751   4.806 -0.1592 -0.0818  0.1890
13191TIP3    H161064   0.999   4.670   4.776 -0.0145 -0.0517  0.3123
13191TIP3    H261065   1.015   4.785   4.874  1.2764  1.5985 -1.7601
13192TIP3   OH261066   0.477   6.010   4.092 -0.2080  0.4510  0.7921
13192TIP3    H161067   0.409   6.049   4.148  0.5042 -0.0532  2.0370
13192TIP3    H261068   0.521   6.085   4.052 -0.5664  0.8336  1.1059
13193TIP3   OH261069   4.282   2.671   2.050  0.0037  0.4642  0.0182
13193TIP3    H161070   4.280   2.658   2.145 -0.3299  2.6607  0.3638
13193TIP3    H261071   4.264   2.585   2.014 -3.1304  0.1351  2.0023
13194TIP3   OH261072   5.727   2.431  14.453 -0.1329  0.1851  0.2562
13194TIP3    H161073   5.735   2.459  14.362  2.0078  4.2746  1.4634
13194TIP3    H261074   5.811   2.454  14.493 -0.8352 -1.8462  3.2409
13195TIP3   OH261075   6.687   6.070  16.526 -0.0891 -0.2363  0.1109
13195TIP3    H161076   6.598   6.059  16.491  0.4458 -1.0122 -1.0316
13195TIP3    H261077   6.742   6.016  16.470  1.3082  1.1976  0.0291
13196TIP3   OH261078   0.248   2.888   4.646 -0.6771  0.5056 -0.4316
13196TIP3    H161079   0.337   2.856   4.660 -1.2602 -1.1309 -0.2764
13196TIP3    H261080   0.205   2.819   4.596 -2.5907  0.0155  1.7145
13197TIP3   OH261081   0.386   6.580  16.751 -0.2824 -0.3249  0.3414
13197TIP3    H161082   0.419   6.507  16.699  1.3181  0.1541  0.6233
13197TIP3    H261083   0.407   6.658  16.700  0.2376  0.0803  1.1513
13198TIP3   OH261084   1.534   6.617  16.933 -0.4587  0.1292 -0.3881
13198TIP3    H161085   1.607   6.581  16.983  0.2644  2.8549  0.7243
13198TIP3    H261086   1.529   6.562  16.855  2.7185 -0.2898 -0.4428
13199TIP3   OH261087   5.304   5.152   1.383  0.5786 -0.1269  0.0259
13199TIP3    H161088   5.314   5.082   1.448  0.8459  0.6315  0.8335
13199TIP3    H261089   5.369   5.133   1.316  0.4199 -0.8265  0.0654
13200TIP3   OH261090   2.947   2.687   6.017 -0.6930 -0.0979 -0.6420
13200TIP3    H161091   2.924   2.734   5.937  1.6606  2.6768  0.1315
13200TIP3    H261092   2.884   2.719   6.082  0.2212  1.2954 -0.3824
13201TIP3   OH261093   5.885   6.596   3.899  0.0749 -0.2596 -0.0230
13201TIP3    H161094   5.856   6.527   3.840  0.5462  0.7649 -1.5117
13201TIP3    H261095   5.813   6.659   3.900  0.9538  0.8230 -1.3481
13202TIP3   OH261096   0.675   3.496   3.792  0.0440 -0.0487 -0.3354
13202TIP3    H161097   0.673   3.583   3.754 -0.9138 -0.2672 -0.8205
13202TIP3    H261098   0.768   3.474   3.798  0.2603  0.4021 -1.6340
13203TIP3   OH261099   4.112   5.160   4.434 -0.0542 -0.4099  0.2149
13203TIP3    H161100   4.134   5.071   4.462 -0.2396  0.0576  1.9929
13203TIP3    H261101   4.155   5.216   4.498 -0.2423  0.7783 -0.6704
13204TIP3   OH261102   1.404   3.817   2.426 -0.1121 -0.7626  0.2647
13204TIP3    H161103   1.345   3.888   2.453  0.7156 -0.2578  0.7811
13204TIP3    H261104   1.346   3.747   2.397 -0.9574  0.2437 -0.5775
13205TIP3   OH261105   5.927   4.206   0.822 -0.1581 -0.0195 -0.2004
13205TIP3    H161106   5.953   4.298   0.826 -0.2285 -0.0367  2.0397
13205TIP3    H261107   5.834   4.206   0.846 -0.2395 -0.6378 -0.4971
13206TIP3   OH261108   4.618   0.846   5.566 -0.3695  0.0686  0.1598
13206TIP3    H161109   4.655   0.834   5.478  1.3479  0.1156  0.8399
13206TIP3    H261110   4.649   0.933   5.593 -1.7121  0.4824  0.4526
13207TIP3   OH261111   5.656   6.588   3.396  0.1613  0.2612  0.0384
13207TIP3    H161112   5.697   6.559   3.315 -0.6081  0.1801 -0.3235
13207TIP3    H261113   5.575   6.538   3.402 -0.6173  1.4635 -0.0100
13208TIP3   OH261114   0.423   1.851  16.444 -0.3658  0.7029 -0.2638
13208TIP3    H161115   0.358   1.859  16.513  0.3146 -0.8017  0.5950
13208TIP3    H261116   0.379   1.883  16.365 -1.9384  0.2607  0.4121
13209TIP3   OH261117   4.143   3.904  16.354 -0.0292  0.2524 -0.0254
13209TIP3    H161118   4.098   3.864  16.280  0.1015  0.0475  0.0059
13209TIP3    H261119   4.236   3.898  16.332  0.2049 -2.1463  1.2944
13210TIP3   OH261120   1.665   5.532   2.316 -0.3392 -0.1808  0.2113
13210TIP3    H161121   1.613   5.612   2.313 -2.0177 -1.1361  1.7901
13210TIP3    H261122   1.733   5.551   2.381  0.0962  0.3911 -0.3938
13211TIP3   OH261123   3.622   6.528  12.630  0.1839  0.4652  0.2688
13211TIP3    H161124   3.564   6.536  12.554 -0.7306 -1.0366  0.7652
13211TIP3    H261125   3.709   6.551  12.596 -0.0306 -1.0812 -1.4825
13212TIP3   OH261126   5.699   4.669   0.015  1.1721  0.2641  0.7278
13212TIP3    H161127   5.744   4.679  -0.068  0.4828  0.0276  0.3158
13212TIP3    H261128   5.677   4.575   0.019 -1.3305  0.7345 -0.1917
13213TIP3   OH261129   3.675   1.486   1.833  0.3046 -0.0133  0.3730
13213TIP3    H161130   3.687   1.409   1.776  0.5282  0.2687  0.0356
13213TIP3    H261131   3.753   1.487   1.888  0.3492  0.0308  0.3088
13214TIP3   OH261132   5.832   5.603   3.017  0.2726  0.0375  0.2612
13214TIP3    H161133   5.925   5.580   3.024  1.0579  2.7952  0.1466
13214TIP3    H261134   5.823   5.634   2.927 -0.2362  1.7159  0.8634
13215TIP3   OH261135   2.176   0.178  13.674 -0.6409 -0.0043  1.3833
13215TIP3    H161136   2.194   0.253  13.617 -2.7509  0.3315  1.0806
13215TIP3    H261137   2.240   0.112  13.647 -2.1483 -0.2550 -2.1834
13216TIP3   OH261138   1.533   5.011   2.567 -0.0913  0.3496  0.1376
13216TIP3    H161139   1.618   4.968   2.578  0.2238  1.1644  1.0443
13216TIP3    H261140   1.555   5.097   2.531 -0.5864  0.3628 -0.1442
13217TIP3   OH261141   2.358   1.683   1.050  0.1666  0.4270 -0.4496
13217TIP3    H161142   2.450   1.661   1.035 -0.0738  0.2029 -1.7488
13217TIP3    H261143   2.338   1.747   0.982 -0.7609  0.1164 -0.4777
13218TIP3   OH261144   2.651   3.601  14.174  0.4109 -0.0796 -0.1854
13218TIP3    H161145   2.593   3.591  14.249  0.9677  4.1088  1.0270
13218TIP3    H261146   2.593   3.629  14.103  0.4382  0.2560 -0.0762
13219TIP3   OH261147   6.407   2.858  15.982  0.5311 -0.1997  0.0221
13219TIP3    H161148   6.314   2.835  15.977 -0.3241  3.0501 -1.5083
13219TIP3    H261149   6.447   2.811  15.909  0.1914 -1.7414  0.7794
13220TIP3   OH261150   3.176   0.253  15.686 -0.4039 -0.2694  0.7487
13220TIP3    H161151   3.253   0.196  15.687  0.0647  0.2967 -0.4636
13220TIP3    H261152   3.117   0.213  15.623  0.5624  1.3015 -1.2754
13221TIP3   OH261153   2.082   0.072   1.787 -0.1766 -0.9330 -0.2207
13221TIP3    H161154   2.105   0.156   1.826 -0.4475 -0.3844 -1.2267
13221TIP3    H261155   2.116   0.076   1.698 -1.4388 -1.3252 -0.7415
13222TIP3   OH261156   6.539   4.283   6.255  0.5332 -0.5253  0.3078
13222TIP3    H161157   6.611   4.224   6.235 -0.2969 -0.7189 -2.4224
13222TIP3    H261158   6.582   4.362   6.288  1.9923 -0.8078 -0.8126
13223TIP3   OH261159   6.654   3.364   2.896  0.8752 -0.7485 -0.0755
13223TIP3    H161160   6.731   3.323   2.936  2.5545  1.1361 -1.1883
13223TIP3    H261161   6.687   3.402   2.815 -1.0183  0.9905 -0.0956
13224TIP3   OH261162   3.574   0.728   3.410  0.4228  0.1696  0.8413
13224TIP3    H161163   3.494   0.767   3.376  1.2911 -0.3797 -2.1487
13224TIP3    H261164   3.592   0.656   3.350  3.7200  0.9455  0.7263
13225TIP3   OH261165   0.524   3.107   4.593 -0.3767  0.2924 -0.2843
13225TIP3    H161166   0.494   3.157   4.669  0.8297  0.0912  0.3488
13225TIP3    H261167   0.452   3.113   4.530 -0.3133  2.7636 -0.2156
13226TIP3   OH261168   3.028   4.222  13.980 -0.1318 -0.3376  0.4832
13226TIP3    H161169   3.112   4.208  13.937 -0.0101  0.3105  0.5083
13226TIP3    H261170   2.982   4.285  13.925 -0.1514  0.1621  1.0550
13227TIP3   OH261171   2.850   5.308   3.174 -0.2970 -0.5180  0.6797
13227TIP3    H161172   2.934   5.271   3.203 -0.3483 -0.5062  0.8419
13227TIP3    H261173   2.868   5.401   3.162 -0.7497 -0.1758  2.4816
13228TIP3   OH261174   5.665   5.373  14.660 -0.2502  0.0197  0.1527
13228TIP3    H161175   5.712   5.452  14.687 -1.8523  0.3419  2.2523
13228TIP3    H261176   5.573   5.397  14.664 -0.7129 -1.4569 -0.9529
13229TIP3   OH261177   2.457   1.321  13.917 -0.1457  0.5768 -0.5638
13229TIP3    H161178   2.375   1.337  13.964  0.9491  0.7722  1.3736
13229TIP3    H261179   2.476   1.229  13.932  0.4167  0.7351 -0.2735
13230TIP3   OH261180   0.514   5.307  11.051  0.2373  0.2504 -0.0329
13230TIP3    H161181   0.428   5.313  11.092  0.9658  1.5204  1.4171
13230TIP3    H261182   0.496   5.308  10.957 -1.3682 -0.5511  0.2253
13231TIP3   OH261183   6.461   4.169   1.178  0.4188 -0.2447  0.2077
13231TIP3    H161184   6.424   4.081   1.187  0.9348 -0.5648 -0.6912
13231TIP3    H261185   6.521   4.177   1.252  0.6200 -0.7735  0.1036
13232TIP3   OH261186   0.314   1.378  14.154 -0.4304 -0.3562 -0.0984
13232TIP3    H161187   0.317   1.470  14.181 -0.2960 -0.3219 -0.2212
13232TIP3    H261188   0.346   1.330  14.229 -1.2053 -0.3676  0.2315
13233TIP3   OH261189   1.525   1.066   4.123  0.1604 -0.3377 -0.1057
13233TIP3    H161190   1.540   1.158   4.102  2.2875 -0.5444  0.2328
13233TIP3    H261191   1.436   1.063   4.157  0.6899  1.9567  1.7550
13234TIP3   OH261192   5.975   3.988   3.243  0.2623  0.3359  0.1884
13234TIP3    H161193   5.983   3.905   3.288 -2.7653  0.1442  0.5859
13234TIP3    H261194   5.941   4.049   3.309  0.0825  1.2386 -0.7010
13235TIP3   OH261195   3.055   2.179  13.582 -0.1050  0.4104  0.4895
13235TIP3    H161196   3.055   2.106  13.520  0.1584  1.3564 -0.6813
13235TIP3    H261197   2.978   2.164  13.637 -0.8394 -0.0384 -0.6246
13236TIP3   OH261198   1.827   5.409   3.482 -0.2205  0.1525 -0.1843
13236TIP3    H161199   1.740   5.376   3.505 -0.1455  0.6209  0.7980
13236TIP3    H261200   1.879   5.330   3.468 -0.4523 -0.1424  0.5742
13237TIP3   OH261201   3.192   1.906   1.203 -0.6798 -0.2791  0.7267
13237TIP3    H161202   3.240   1.853   1.140 -2.5503  0.1097 -1.1339
13237TIP3    H261203   3.193   1.994   1.166 -0.6755  0.2511  1.9366
13238TIP3   OH261204   6.103   6.428  14.520 -0.0217 -0.7664  0.5193
13238TIP3    H161205   6.180   6.443  14.575 -0.1839  2.9191 -0.0463
13238TIP3    H261206   6.035   6.400  14.581  0.1070  2.0861  2.1466
13239TIP3   OH261207   2.045   6.364   2.407 -0.0062  0.0215 -0.5780
13239TIP3    H161208   2.019   6.301   2.473  0.2975  0.1630 -0.3190
13239TIP3    H261209   2.137   6.344   2.390  0.0391  0.2760 -0.6310
13240TIP3   OH261210   1.514   2.233   3.354 -0.2128 -0.1556  0.1957
13240TIP3    H161211   1.600   2.246   3.395 -0.2736 -2.5164  1.2023
13240TIP3    H261212   1.519   2.284   3.273  1.5855  0.9541  0.9332
13241TIP3   OH261213   4.189   0.529   6.410  0.5732 -0.4472 -0.2375
13241TIP3    H161214   4.279   0.544   6.436  0.3026 -1.4807  1.4196
13241TIP3    H261215   4.137   0.586   6.467  0.0781 -1.1893  0.0686
13242TIP3   OH261216   5.593   6.571  12.414  0.0317 -0.7011  1.1001
13242TIP3    H161217   5.618   6.579  12.506 -0.6965  0.8201  1.2009
13242TIP3    H261218   5.579   6.662  12.385  0.3197 -1.1548 -0.5285
13243TIP3   OH261219   4.989   0.697   4.297 -0.0007 -0.5717 -0.0798
13243TIP3    H161220   4.910   0.718   4.246  0.2359  2.6032  0.6221
13243TIP3    H261221   4.968   0.725   4.386  0.7524 -2.9644  0.9129
13244TIP3   OH261222   3.777   3.610  11.976  0.1287  0.0790  0.0040
13244TIP3    H161223   3.816   3.680  12.029  0.9367  1.3912 -2.1951
13244TIP3    H261224   3.725   3.656  11.910 -1.9401 -1.5418  0.3838
13245TIP3   OH261225   3.762   4.843   6.292 -0.7816 -0.3973 -0.2063
13245TIP3    H161226   3.820   4.781   6.249 -2.2100 -1.7662 -0.2503
13245TIP3    H261227   3.725   4.794   6.366 -0.3307  1.0906  1.0684
13246TIP3   OH261228   2.931   0.393   2.905  0.1952 -0.5693  0.4627
13246TIP3    H161229   2.851   0.420   2.951  0.6441 -2.0224  2.2307
13246TIP3    H261230   2.927   0.297   2.904 -0.3005 -0.6645 -3.6242
13247TIP3   OH261231   6.254   4.695  14.603 -0.2789  0.5034 -0.6958
13247TIP3    H161232   6.196   4.771  14.610 -1.8358 -0.5671 -1.4395
13247TIP3    H261233   6.329   4.718  14.658 -1.4719  1.8728  0.4694
13248TIP3   OH261234   3.766   3.523   5.365 -0.1812 -0.6524  0.1769
13248TIP3    H161235   3.853   3.544   5.331 -0.6434  0.5851 -0.3039
13248TIP3    H261236   3.780   3.503   5.457  0.7804 -1.7801 -0.1922
13249TIP3   OH261237   5.864   5.521  16.748 -0.1657  0.7057 -0.3505
13249TIP3    H161238   5.895   5.536  16.658  0.7399  1.9118  0.1283
13249TIP3    H261239   5.928   5.461  16.785 -0.7076 -0.0311 -0.5875
13250TIP3   OH261240   6.482   2.702  15.766  0.2132 -0.0727  0.1380
13250TIP3    H161241   6.495   2.749  15.683 -0.9785  1.0236  0.5431
13250TIP3    H261242   6.439   2.620  15.740 -0.4016  0.3829 -0.3102
13251TIP3   OH261243   0.517   5.255  14.300 -0.4275  0.4590  0.6003
13251TIP3    H161244   0.551   5.223  14.216 -0.1837 -0.6040  1.0909
13251TIP3    H261245   0.525   5.351  14.294 -2.3878  0.6007 -1.4405
13252TIP3   OH261246   6.210   5.573   3.705  0.4734 -0.3385 -0.0398
13252TIP3    H161247   6.151   5.648   3.701  0.9850  0.2963  2.5019
13252TIP3    H261248   6.285   5.599   3.652  0.0729  0.3824 -0.2686
13253TIP3   OH261249   4.879   1.288   4.872 -0.0822 -0.0617  0.0613
13253TIP3    H161250   4.940   1.269   4.801  1.6159 -0.0070  1.4428
13253TIP3    H261251   4.861   1.381   4.865  2.2843  0.5678  1.2757
13254TIP3   OH261252   4.096   6.385  16.951 -0.3463 -0.5606  0.3411
13254TIP3    H161253   4.052   6.446  16.892  0.7280 -1.7195 -1.7710
13254TIP3    H261254   4.188   6.410  16.947 -0.0619 -1.5531  0.3744
13255TIP3   OH261255   1.087   5.100   5.329 -0.7222 -0.5202  0.7203
13255TIP3    H161256   1.113   5.023   5.279  0.1689 -0.5869  1.2813
13255TIP3    H261257   1.095   5.074   5.420 -1.1954 -0.0102  0.9156
13256TIP3   OH261258   0.581   2.536   2.458 -0.3275  0.4947 -0.3396
13256TIP3    H161259   0.661   2.484   2.470 -0.2313  0.4877 -0.9720
13256TIP3    H261260   0.563   2.531   2.364 -0.1408  1.8666 -0.4700
13257TIP3   OH261261   2.698   5.994  11.571 -0.0321 -0.2224 -0.4521
13257TIP3    H161262   2.781   6.039  11.587 -0.4458 -0.0269  1.3527
13257TIP3    H261263   2.650   6.053  11.512  0.5422  0.3579 -0.3540
13258TIP3   OH261264   3.748   1.513  12.175  0.2886 -0.2964 -0.2801
13258TIP3    H161265   3.694   1.542  12.249  0.1984  0.6933 -0.7067
13258TIP3    H261266   3.774   1.424  12.198 -0.0071 -0.1316  0.7874
13259TIP3   OH261267   6.653   1.788  17.147  0.1057 -0.2286  0.3563
13259TIP3    H161268   6.559   1.771  17.137  0.2061 -0.0496 -1.1252
13259TIP3    H261269   6.690   1.703  17.172 -0.1983 -0.8129 -1.0581
13260TIP3   OH261270   2.284   2.176   6.558  0.4284 -0.5876 -0.3489
13260TIP3    H161271   2.227   2.148   6.630  1.3910 -1.6040  0.0536
13260TIP3    H261272   2.314   2.094   6.518  0.4115 -0.0415 -1.5174
13261TIP3   OH261273   4.609   1.386  16.537  0.1508  0.0043  0.1734
13261TIP3    H161274   4.555   1.324  16.587  0.2568 -1.1595 -1.0932
13261TIP3    H261275   4.556   1.465  16.531  0.2439  0.2890  2.3387
13262TIP3   OH261276   5.929   3.969  11.597  0.2292  0.1085  0.3063
13262TIP3    H161277   5.988   3.896  11.577 -0.4953 -0.1830 -0.8851
13262TIP3    H261278   5.853   3.927  11.639  1.5828  0.6730  3.5995
13263TIP3   OH261279   6.594   2.853  12.967 -0.5486  0.0571  0.5952
13263TIP3    H161280   6.566   2.840  13.058 -1.1443  1.4240  0.6286
13263TIP3    H261281   6.613   2.947  12.961 -0.6581  0.0135 -0.7308
13264TIP3   OH261282   2.669   5.344  15.614  0.8712  0.4497 -0.0399
13264TIP3    H161283   2.724   5.384  15.681  0.1451  3.9569 -1.2841
13264TIP3    H261284   2.643   5.418  15.558 -1.6681 -1.6860 -1.9333
13265TIP3   OH261285   6.578   0.572   5.839 -0.1320 -0.0539  0.0266
13265TIP3    H161286   6.523   0.494   5.843  2.1300 -1.8441 -1.3328
13265TIP3    H261287   6.544   0.621   5.765 -0.7902 -0.3915  0.1000
13266TIP3   OH261288   1.139   0.828   3.406  0.7544 -0.9563  0.1020
13266TIP3    H161289   1.186   0.745   3.401  0.6747 -0.9109 -2.3876
13266TIP3    H261290   1.197   0.886   3.455  1.7639 -1.8693  0.0183
13267TIP3   OH261291   2.780   2.701  13.443  0.0443  0.0499  0.0481
13267TIP3    H161292   2.793   2.613  13.476  1.8317  0.8880  1.7785
13267TIP3    H261293   2.773   2.690  13.348  0.9277 -1.8657  0.1588
13268TIP3   OH261294   4.970   0.982  11.279 -0.3133 -0.1407 -0.2984
13268TIP3    H161295   4.921   0.970  11.197  0.0760 -0.3988 -0.4900
13268TIP3    H261296   4.909   0.953  11.347  0.0524 -1.7388 -0.6297
13269TIP3   OH261297   0.607   2.172   5.166 -0.1927  0.1578 -0.0856
13269TIP3    H161298   0.580   2.261   5.189  0.9151  0.0617  1.8644
13269TIP3    H261299   0.694   2.163   5.206 -0.9275 -2.3083  1.1732
13270TIP3   OH261300   3.021   0.941   5.670  0.2783  0.0534 -0.3856
13270TIP3    H161301   3.102   0.938   5.620  0.9067  1.4775  0.4710
13270TIP3    H261302   2.966   0.872   5.632  0.8924  0.7327 -2.6837
13271TIP3   OH261303   1.962   1.314   4.618 -0.0131  0.3181 -0.0989
13271TIP3    H161304   2.026   1.327   4.688 -0.1717  0.5778  0.0012
13271TIP3    H261305   2.012   1.323   4.537 -0.0160  1.0674 -0.0296
13272TIP3   OH261306   4.853   1.369  15.811 -0.3997  0.0138  0.7859
13272TIP3    H161307   4.943   1.400  15.824 -0.4876  2.4330 -2.9008
13272TIP3    H261308   4.854   1.329  15.724 -2.8220 -0.3639  0.8670
13273TIP3   OH261309   0.816   3.104  15.091 -0.8383  0.3053  0.2784
13273TIP3    H161310   0.802   3.050  15.013  0.1137 -1.1655  1.0687
13273TIP3    H261311   0.853   3.186  15.057  1.0430 -0.8849 -0.7740
13274TIP3   OH261312   3.849   4.389  12.424  0.2266  0.4288  0.1231
13274TIP3    H161313   3.771   4.420  12.470 -0.9190 -2.1028  0.0304
13274TIP3    H261314   3.823   4.385  12.332 -0.2197 -2.0522  0.2803
13275TIP3   OH261315   2.969   6.451  15.585 -0.3158  0.7810 -0.0040
13275TIP3    H161316   2.930   6.377  15.539 -0.2867 -1.2800  2.9518
13275TIP3    H261317   3.060   6.426  15.598 -0.9248 -0.1360  3.4493
13276TIP3   OH261318   5.086   1.312   0.644  0.0796  0.8830  0.0875
13276TIP3    H161319   5.069   1.394   0.690  1.2558  1.3737 -0.3223
13276TIP3    H261320   5.076   1.334   0.551 -1.0823  0.1896  0.0279
13277TIP3   OH261321   0.363   2.500  12.473 -0.0971  0.4521 -0.5941
13277TIP3    H161322   0.341   2.542  12.390  0.5022  0.8298 -0.5684
13277TIP3    H261323   0.279   2.488  12.517 -0.6108 -1.1622 -1.9058
13278TIP3   OH261324   5.411   0.381   0.359  0.2930  0.3656 -0.6709
13278TIP3    H161325   5.340   0.364   0.420 -0.3107  0.8489 -1.2246
13278TIP3    H261326   5.368   0.417   0.281  1.1994  1.2684 -0.7728
13279TIP3   OH261327   1.186   1.482  11.691  0.5763  0.3942 -0.2098
13279TIP3    H161328   1.142   1.470  11.775 -0.1696 -0.0428 -0.6460
13279TIP3    H261329   1.124   1.447  11.627  0.3985  2.2189 -1.1028
13280TIP3   OH261330   2.140   1.394   5.637 -0.1230 -0.3276  0.3549
13280TIP3    H161331   2.087   1.456   5.586  0.8843 -0.1012 -0.4463
13280TIP3    H261332   2.076   1.347   5.691 -1.1414 -0.0741 -0.5899
13281TIP3   OH261333   4.987   5.019   2.171 -0.1159 -0.3144 -0.2199
13281TIP3    H161334   4.942   5.090   2.217 -0.4945 -1.8154  1.8741
13281TIP3    H261335   5.026   4.967   2.240  0.9008 -1.6774 -1.7478
13282TIP3   OH261336   2.548   3.070   1.776 -0.4642 -0.5443  0.0078
13282TIP3    H161337   2.471   3.031   1.817 -1.9714 -2.3795 -4.0577
13282TIP3    H261338   2.622   3.021   1.812 -1.4529 -0.8579  1.7144
13283TIP3   OH261339   0.158   0.892  13.973 -0.2078 -0.0599 -0.1416
13283TIP3    H161340   0.163   0.839  14.053  1.4237 -0.7880 -0.6959
13283TIP3    H261341   0.224   0.856  13.915 -0.6191  1.1494 -1.4368
13284TIP3   OH261342   0.614   3.502   2.571 -0.7303  0.0688  0.2144
13284TIP3    H161343   0.636   3.450   2.648  0.1226  1.2246  0.7884
13284TIP3    H261344   0.686   3.486   2.509 -1.3359 -0.7389 -0.3009
13285TIP3   OH261345   2.068   2.299   5.280  0.5918  0.2245  0.1653
13285TIP3    H161346   2.158   2.266   5.271  0.3669 -0.2644 -0.3539
13285TIP3    H261347   2.029   2.245   5.348  0.6522  0.3582  0.3069
13286TIP3   OH261348   4.161   4.488  11.188 -0.2956  0.0976  0.1518
13286TIP3    H161349   4.187   4.543  11.115  1.4939  0.2319  0.8466
13286TIP3    H261350   4.221   4.511  11.259  0.4836 -2.6400  0.4991
13287TIP3   OH261351   2.542   2.328  14.643  0.0711  0.1398  0.8045
13287TIP3    H161352   2.612   2.284  14.690 -0.0403 -0.7712  0.1398
13287TIP3    H261353   2.470   2.332  14.706  0.2050 -0.3113  0.9929
13288TIP3   OH261354   2.380   4.229   5.852 -0.5540  0.1059 -0.4176
13288TIP3    H161355   2.288   4.207   5.858 -0.7280  0.8410 -0.3028
13288TIP3    H261356   2.385   4.321   5.880  0.5053 -0.5525  1.7912
13289TIP3   OH261357   2.030   6.303   3.482  0.0934  0.3847  0.6172
13289TIP3    H161358   2.081   6.380   3.459  0.0758  0.2260  0.0391
13289TIP3    H261359   2.030   6.302   3.578  0.6511  0.7291  0.6225
13290TIP3   OH261360   6.718   0.195   5.043 -0.1103  0.0361 -0.2295
13290TIP3    H161361   6.786   0.174   4.979 -0.5576 -0.0359 -0.6885
13290TIP3    H261362   6.766   0.221   5.122  0.4495 -1.5648 -0.0198
13291TIP3   OH261363   1.042   1.224   0.959 -0.3411 -0.1095  0.0446
13291TIP3    H161364   1.048   1.271   1.042  2.7158  1.4757 -0.9356
13291TIP3    H261365   1.021   1.292   0.895  0.9389 -0.6109 -0.9490
13292TIP3   OH261366   5.709   6.127   3.492 -0.0629  0.2892  0.5707
13292TIP3    H161367   5.687   6.219   3.477 -0.8191 -0.1555 -1.4158
13292TIP3    H261368   5.627   6.088   3.521  0.0669  0.1124  0.6934
13293TIP3   OH261369   2.548   3.125  15.031 -1.0510 -0.0996 -0.2099
13293TIP3    H161370   2.454   3.143  15.032 -0.9086  0.6808  0.1643
13293TIP3    H261371   2.588   3.205  14.998 -0.5418 -0.5941 -0.8145
13294TIP3   OH261372   6.289   5.868  17.139 -0.2843 -0.5028 -0.7412
13294TIP3    H161373   6.241   5.934  17.190 -0.9042 -0.5014 -1.2974
13294TIP3    H261374   6.367   5.914  17.108  1.3827 -1.1738  2.1487
13295TIP3   OH261375   3.546   2.056   5.786  0.3270 -0.3785  0.1328
13295TIP3    H161376   3.593   2.037   5.866 -0.0983 -0.0488  0.4701
13295TIP3    H261377   3.521   1.971   5.751  1.3196 -0.5653 -0.1534
13296TIP3   OH261378   0.309   4.197   3.379 -0.0193  0.3345  0.0150
13296TIP3    H161379   0.244   4.189   3.449 -2.3245 -0.3227 -2.0437
13296TIP3    H261380   0.308   4.290   3.356  1.5451  0.7660  1.4636
13297TIP3   OH261381   3.738   3.938   5.622 -0.6102  0.6443 -1.1073
13297TIP3    H161382   3.646   3.912   5.630 -0.9367  1.4602 -1.9386
13297TIP3    H261383   3.734   4.030   5.597  0.4072  0.3810 -2.3275
13298TIP3   OH261384   4.274   4.779  16.941 -0.0854 -0.5083 -0.4018
13298TIP3    H161385   4.339   4.825  16.995 -0.0648 -0.1075 -0.7594
13298TIP3    H261386   4.260   4.696  16.986 -0.9395  0.2837  0.8680
13299TIP3   OH261387   2.519   1.066  13.924  0.3673 -0.7910  0.6329
13299TIP3    H161388   2.447   1.003  13.931 -0.0211 -0.4634 -0.2686
13299TIP3    H261389   2.588   1.018  13.877 -0.0894 -0.4187 -0.4328
13300TIP3   OH261390   2.681   6.385  11.109  0.1518  0.3361 -0.2819
13300TIP3    H161391   2.739   6.438  11.164  0.3891 -0.8030  0.6143
13300TIP3    H261392   2.607   6.364  11.167 -0.8700  1.2569 -1.2202
13301TIP3   OH261393   5.434   3.933  12.800  0.3944  0.8831 -0.4013
13301TIP3    H161394   5.375   3.863  12.772  0.3260  0.3352  1.0055
13301TIP3    H261395   5.376   4.001  12.834  0.5341  0.5390  0.5559
13302TIP3   OH261396   0.721   0.677   0.446  0.0711 -0.4774 -0.2727
13302TIP3    H161397   0.714   0.747   0.381  0.2912 -0.4341 -0.2528
13302TIP3    H261398   0.640   0.628   0.438  0.2445 -0.6786 -0.8247
13303TIP3   OH261399   0.508   5.020  12.799  0.1289  0.0601 -0.3155
13303TIP3    H161400   0.441   5.059  12.855  0.9934  0.4803  0.4460
13303TIP3    H261401   0.590   5.056  12.831  0.7762 -0.8683 -0.8849
13304TIP3   OH261402   4.294   2.828   2.551 -0.4781  0.3745 -0.0424
13304TIP3    H161403   4.384   2.862   2.546 -0.3758  0.1003 -0.0755
13304TIP3    H261404   4.242   2.902   2.582  0.0967 -0.0525  2.1421
13305TIP3   OH261405   0.261   2.416   0.521  0.0436 -0.2645 -0.0216
13305TIP3    H161406   0.332   2.358   0.551  2.1858  1.5463 -1.2169
13305TIP3    H261407   0.305   2.499   0.502 -2.5594  1.1749 -0.2426
13306TIP3   OH261408   0.604   5.311  15.654 -0.4612 -0.1929 -0.3258
13306TIP3    H161409   0.550   5.373  15.704  0.2158 -0.4291  0.7251
13306TIP3    H261410   0.616   5.354  15.569 -2.3984 -0.1847 -0.6577
13307TIP3   OH261411   1.463   6.774  12.923 -0.2761  0.0642 -0.2336
13307TIP3    H161412   1.470   6.835  12.996  1.3302  1.5984 -1.5706
13307TIP3    H261413   1.370   6.751  12.920 -0.6279  1.1116  1.3676
13308TIP3   OH261414   4.754   0.490   4.633 -0.1959  0.4634 -0.5564
13308TIP3    H161415   4.708   0.529   4.559 -1.2247 -1.2348 -0.8891
13308TIP3    H261416   4.744   0.553   4.704 -1.7247  0.8363 -1.0673
13309TIP3   OH261417   5.640   4.121  15.528 -0.3077 -0.4431 -0.1208
13309TIP3    H161418   5.649   4.166  15.444 -1.1862  1.1269  0.5963
13309TIP3    H261419   5.564   4.065  15.518  0.6235 -1.6179 -0.9250
13310TIP3   OH261420   2.852   0.004   3.919 -0.0575 -0.0697 -0.0654
13310TIP3    H161421   2.772   0.033   3.962 -0.1304 -0.2421 -0.0827
13310TIP3    H261422   2.921   0.017   3.985 -0.4269 -2.0050  0.7881
13311TIP3   OH261423   3.981   6.217   1.923  0.2450  0.0388 -0.1821
13311TIP3    H161424   4.071   6.236   1.897 -0.0496  1.4879 -0.2162
13311TIP3    H261425   3.965   6.274   1.998 -0.4637 -0.6458  0.2061
13312TIP3   OH261426   1.407   2.500   6.612 -0.3063 -0.6468 -0.3108
13312TIP3    H161427   1.416   2.462   6.699 -0.2561 -2.6810 -1.1360
13312TIP3    H261428   1.323   2.545   6.614 -0.0660 -0.2111  0.9328
13313TIP3   OH261429   3.222   5.697   4.555  0.7810 -0.9510  0.3260
13313TIP3    H161430   3.143   5.708   4.607  0.6513  0.9677 -0.1861
13313TIP3    H261431   3.282   5.764   4.588  0.3703  0.9643 -2.4971
13314TIP3   OH261432   0.735   6.490  13.755  0.7023 -0.2317  0.3575
13314TIP3    H161433   0.765   6.450  13.673  0.9689  3.0308 -1.3008
13314TIP3    H261434   0.810   6.482  13.814  0.4217 -2.8656  0.4938
13315TIP3   OH261435   4.032   2.070   1.008  0.5821  0.0864  0.3132
13315TIP3    H161436   4.015   1.994   1.063  2.3059 -0.9221 -0.4928
13315TIP3    H261437   4.110   2.110   1.044  0.0324  1.1629  0.3671
13316TIP3   OH261438   5.370   6.208   1.788 -0.3919  0.1070  0.8811
13316TIP3    H161439   5.424   6.145   1.742 -0.4570  0.2014  0.6741
13316TIP3    H261440   5.285   6.204   1.744 -0.5381  0.0002  1.1663
13317TIP3   OH261441   4.771   3.466   0.620 -0.0111 -0.1018  0.2567
13317TIP3    H161442   4.708   3.401   0.652  1.7112 -1.1290  1.7576
13317TIP3    H261443   4.808   3.426   0.542  1.2748 -1.1551  1.3515
13318TIP3   OH261444   4.132   3.622  13.437 -0.4364  0.3101  0.1967
13318TIP3    H161445   4.155   3.684  13.507  0.1972  1.0570 -0.6469
13318TIP3    H261446   4.116   3.540  13.483  1.8758  0.2699  1.0843
13319TIP3   OH261447   3.307   1.073   2.345 -0.3915 -0.0234 -0.1628
13319TIP3    H161448   3.274   1.037   2.427  0.2908 -0.3104 -0.0124
13319TIP3    H261449   3.371   1.139   2.372  0.0029 -0.2785 -0.4639
13320TIP3   OH261450   3.409   3.403  12.005 -0.0846 -0.0302 -0.1010
13320TIP3    H161451   3.452   3.404  12.090 -0.0891 -1.5979 -0.0491
13320TIP3    H261452   3.478   3.423  11.942  0.0887  0.3578  0.2127
13321TIP3   OH261453   0.110   6.695   5.678 -0.0626  0.0691 -0.1726
13321TIP3    H161454   0.180   6.642   5.641  1.1421  0.3679  1.5403
13321TIP3    H261455   0.098   6.661   5.766 -0.2010  1.7376  0.4946
13322TIP3   OH261456   0.408   2.860   0.639 -0.4439  0.4471  0.0733
13322TIP3    H161457   0.487   2.812   0.614 -0.4543  0.2074  0.4800
13322TIP3    H261458   0.374   2.895   0.557 -0.4362 -0.2526 -0.2407
13323TIP3   OH261459   6.593   2.027  16.662  0.8361 -0.0750  0.2364
13323TIP3    H161460   6.542   2.107  16.675  0.0586 -0.3275 -1.0648
13323TIP3    H261461   6.534   1.956  16.689  0.5134 -0.3585 -1.1414
13324TIP3   OH261462   2.603   3.431   1.762  0.0747  0.0178 -0.1966
13324TIP3    H161463   2.603   3.521   1.730  0.2972 -0.0199 -0.3079
13324TIP3    H261464   2.619   3.439   1.856  1.4482  0.0347 -0.4114
13325TIP3   OH261465   5.550   0.157   0.433  0.0983  0.4607 -0.0999
13325TIP3    H161466   5.488   0.127   0.499  0.6336 -0.4264  0.0141
13325TIP3    H261467   5.518   0.244   0.407 -0.3925  0.6082  0.9599
13326TIP3   OH261468   1.913   2.708  14.460  0.4604  0.1970  0.1348
13326TIP3    H161469   1.920   2.799  14.490 -0.2867 -0.0252  1.0589
13326TIP3    H261470   1.937   2.656  14.536  2.1794 -0.3990 -0.7724
13327TIP3   OH261471   5.000   3.459   3.310 -0.5658  0.2563 -0.0245
13327TIP3    H161472   4.920   3.470   3.260 -1.2213 -1.7753  0.4858
13327TIP3    H261473   4.971   3.437   3.398  0.5332 -0.1500  0.2576
13328TIP3   OH261474   3.488   4.911   5.820  0.3527 -0.5250 -0.0589
13328TIP3    H161475   3.498   4.950   5.733 -1.8359  0.1660 -0.0714
13328TIP3    H261476   3.456   4.983   5.874  1.1492 -1.0906  1.2069
13329TIP3   OH261477   3.294   4.126  15.949  0.3304 -0.3680 -0.0449
13329TIP3    H161478   3.343   4.208  15.953  0.2673 -0.3246  3.2695
13329TIP3    H261479   3.345   4.070  15.892  1.1121  1.5180 -1.2887
13330TIP3   OH261480   5.060   2.072  12.952 -0.9511 -0.1045 -0.3504
13330TIP3    H161481   5.035   2.163  12.940 -1.8977 -0.5094 -1.7059
13330TIP3    H261482   5.061   2.060  13.047 -1.7410  1.0646 -0.1688
13331TIP3   OH261483   0.032   1.221  12.113  0.3220 -0.3456  0.5625
13331TIP3    H161484   0.081   1.145  12.144 -0.5046  0.3057  3.8932
13331TIP3    H261485  -0.041   1.229  12.174 -1.8808  0.9032 -2.0082
13332TIP3   OH261486   5.730   2.050  17.183  0.4320  0.2489 -0.2875
13332TIP3    H161487   5.733   1.966  17.137 -3.5484 -0.4550  0.4135
13332TIP3    H261488   5.713   2.115  17.114  0.2040  0.0179 -0.4482
13333TIP3   OH261489   0.520   1.018  11.801  0.0330 -0.3294 -0.4632
13333TIP3    H161490   0.443   1.001  11.747 -0.0612 -0.7873 -0.1874
13333TIP3    H261491   0.550   0.931  11.828 -0.2501 -0.0929  0.6783
13334TIP3   OH261492   3.839   3.054   5.130 -0.6601 -0.2930  0.3391
13334TIP3    H161493   3.802   3.137   5.162 -1.4910 -0.7075  0.4854
13334TIP3    H261494   3.778   2.987   5.162  0.3685 -1.0342  0.8043
13335TIP3   OH261495   2.684   6.794   1.019 -0.0178  0.2416  0.1208
13335TIP3    H161496   2.647   6.848   0.950 -0.8317 -1.3337 -0.7298
13335TIP3    H261497   2.779   6.803   1.009 -0.1271 -0.0995 -1.3288
13336TIP3   OH261498   5.501   2.920  15.697 -0.5395  0.1704  0.2860
13336TIP3    H161499   5.442   2.940  15.769 -0.7070 -1.7878  0.7586
13336TIP3    H261500   5.550   2.843  15.726 -1.3337 -1.3472 -2.0109
13337TIP3   OH261501   5.141   4.032   4.369  0.2782  0.1863 -0.1259
13337TIP3    H161502   5.230   4.063   4.352  0.3112 -0.1911 -0.6512
13337TIP3    H261503   5.151   3.939   4.389 -0.0695 -0.0222 -0.8861
13338TIP3   OH261504   1.916   0.333  14.922  0.1202 -0.1678 -0.1654
13338TIP3    H161505   1.949   0.375  14.843 -0.3373  1.7923  0.6245
13338TIP3    H261506   1.822   0.352  14.922 -0.0194 -0.8048  0.4765
13339TIP3   OH261507   6.210   5.513  12.268 -0.3106  0.4002  0.4128
13339TIP3    H161508   6.254   5.593  12.296 -0.6642  0.2683  1.3787
13339TIP3    H261509   6.127   5.543  12.231  0.7805  0.6961 -1.9264
13340TIP3   OH261510   6.644   5.004  11.275  0.3264 -0.4692  0.9030
13340TIP3    H161511   6.674   5.090  11.245  2.3251 -0.7187  2.0047
13340TIP3    H261512   6.549   5.009  11.272  0.4101  1.5362  0.2907
13341TIP3   OH261513   5.056   5.246  11.539 -0.0480 -0.2654 -0.3525
13341TIP3    H161514   4.982   5.280  11.488  0.2140  0.1276 -0.4719
13341TIP3    H261515   5.116   5.320  11.547 -0.3385 -0.1487  1.0230
13342TIP3   OH261516   4.353   0.319  15.218  0.2446  0.1217  0.7214
13342TIP3    H161517   4.355   0.307  15.123  2.4920 -0.2295  0.7596
13342TIP3    H261518   4.383   0.235  15.253  0.4131  0.5776  1.6959
13343TIP3   OH261519   1.832   6.778   5.509  0.0076  0.5669  0.3662
13343TIP3    H161520   1.881   6.726   5.572  1.2317  1.3869  0.1105
13343TIP3    H261521   1.866   6.753   5.424 -0.4921  0.6580  0.1318
13344TIP3   OH261522   2.346   2.500  12.442  0.2245 -0.8191 -0.0947
13344TIP3    H161523   2.361   2.539  12.528  0.6547 -1.2502  0.0347
13344TIP3    H261524   2.335   2.407  12.461 -1.0397 -0.7381 -0.3699
13345TIP3   OH261525   4.120   3.628  14.514  0.5487  0.3824 -0.0006
13345TIP3    H161526   4.030   3.654  14.497  0.6887  0.3374 -0.8555
13345TIP3    H261527   4.116   3.532  14.519  0.9039  0.1479 -2.5699
13346TIP3   OH261528   0.884   6.307  15.362 -0.3603 -0.8798  0.0741
13346TIP3    H161529   0.896   6.277  15.272 -1.3560  0.1137 -0.4115
13346TIP3    H261530   0.923   6.394  15.364  0.9604 -1.4456  1.0169
13347TIP3   OH261531   4.257   0.497  17.103  0.0093 -0.6101 -0.2426
13347TIP3    H161532   4.214   0.578  17.076 -0.9403  0.1987  3.2070
13347TIP3    H261533   4.350   0.510  17.081 -0.2883  0.9734 -0.6478
13348TIP3   OH261534   4.374   0.195  14.071 -0.3553 -0.7274  0.4097
13348TIP3    H161535   4.346   0.280  14.105  1.2551  0.4715 -1.0966
13348TIP3    H261536   4.469   0.200  14.067 -0.1193 -3.0836  1.4103
13349TIP3   OH261537   0.522   1.478  10.381  0.1363 -0.1674 -0.1850
13349TIP3    H161538   0.588   1.425  10.336 -0.8853 -2.0633  0.4260
13349TIP3    H261539   0.446   1.475  10.323  0.4020  1.6868 -0.7028
13350TIP3   OH261540   4.945   0.446  11.950  0.3894 -0.5966 -0.0758
13350TIP3    H161541   4.868   0.470  12.003  0.4196 -0.0250 -0.2834
13350TIP3    H261542   5.019   0.474  12.003  0.5003 -1.9794  0.5401
13351TIP3   OH261543   2.319   2.717   1.151  0.2076  0.4696  0.0679
13351TIP3    H161544   2.243   2.702   1.208 -0.9026 -0.6454 -1.6029
13351TIP3    H261545   2.351   2.629   1.130 -0.0369  0.7862 -1.7948
13352TIP3   OH261546   2.978   4.535  14.122  0.0200  0.1196 -0.1382
13352TIP3    H161547   2.930   4.465  14.078  1.5699 -2.4330  1.9504
13352TIP3    H261548   3.052   4.553  14.065  2.1991 -3.3842  1.3047
13353TIP3   OH261549   1.801   5.810  12.108  0.2882  0.2866  0.0436
13353TIP3    H161550   1.836   5.849  12.188 -0.1438  0.8007 -0.0099
13353TIP3    H261551   1.862   5.740  12.086  0.7740  0.5798  0.4520
13354TIP3   OH261552   2.354   6.206   1.925 -0.1346  0.5634 -0.0102
13354TIP3    H161553   2.290   6.276   1.939  0.7086  1.0533  1.7811
13354TIP3    H261554   2.339   6.144   1.996  2.3504  1.5252  1.5054
13355TIP3   OH261555   1.719   5.162  11.941 -0.6046  0.0153 -0.0889
13355TIP3    H161556   1.779   5.094  11.971  0.3201  0.4495 -0.8716
13355TIP3    H261557   1.662   5.180  12.015 -0.6530 -1.3816  0.2287
13356TIP3   OH261558   0.865   0.855  11.549  0.8432 -0.2027 -0.7546
13356TIP3    H161559   0.888   0.919  11.616  0.2548 -0.4159 -0.3438
13356TIP3    H261560   0.783   0.817  11.579  1.3247 -1.3566 -0.8564
13357TIP3   OH261561   3.001   0.557  14.454  0.0071  0.6420 -0.3469
13357TIP3    H161562   3.014   0.651  14.441  1.7415  0.8268  2.0024
13357TIP3    H261563   2.906   0.545  14.451 -0.2178  2.3263 -1.3562
13358TIP3   OH261564   1.915   6.812  16.735 -0.2675 -0.1489  0.4438
13358TIP3    H161565   1.902   6.790  16.827  1.2270  2.9116  1.5208
13358TIP3    H261566   1.994   6.764  16.710  0.0356 -0.0308  1.1531
13359TIP3   OH261567   1.661   5.372   1.202  0.4678 -0.1995  0.3120
13359TIP3    H161568   1.629   5.282   1.198  0.8340 -0.2848 -1.0505
13359TIP3    H261569   1.662   5.402   1.111  2.6410  0.3676  0.4719
13360TIP3   OH261570   4.250   6.579   0.351 -0.0677 -0.0303 -0.2295
13360TIP3    H161571   4.328   6.538   0.388  0.1098  0.8019  0.3451
13360TIP3    H261572   4.177   6.543   0.402 -0.0278 -0.4966 -0.4957
13361TIP3   OH261573   3.199   2.467  13.769  0.2368  0.0346 -0.8235
13361TIP3    H161574   3.157   2.382  13.779  2.3766 -0.8734  1.6772
13361TIP3    H261575   3.129   2.530  13.788 -0.7017 -1.2882  0.4018
13362TIP3   OH261576   6.472   6.199   0.441 -0.0620  0.2457  0.5821
13362TIP3    H161577   6.419   6.120   0.452 -1.9078  1.5700  1.8744
13362TIP3    H261578   6.437   6.241   0.362  0.2623  0.2583  0.4425
13363TIP3   OH261579   4.933   4.292  11.529  0.4421  0.0168  0.0353
13363TIP3    H161580   4.863   4.358  11.526 -0.1882 -0.5790  1.0496
13363TIP3    H261581   5.002   4.332  11.583 -0.1604 -0.3294  1.0981
13364TIP3   OH261582   3.620   2.988  12.088  0.0279 -0.4756  0.2678
13364TIP3    H161583   3.565   2.923  12.131  0.3461 -0.7120  0.3241
13364TIP3    H261584   3.710   2.958  12.104  0.1537 -1.1690 -1.4554
13365TIP3   OH261585   4.002   0.019  11.651 -0.4310 -0.0278  0.0606
13365TIP3    H161586   3.906   0.013  11.657 -0.3733 -0.2459  0.9230
13365TIP3    H261587   4.031   0.030  11.741  0.4350 -1.2591 -0.0407
13366TIP3   OH261588   1.077   1.353  14.873 -0.2526  0.1285  0.1568
13366TIP3    H161589   1.114   1.382  14.956 -1.5002 -0.5969  1.0120
13366TIP3    H261590   1.073   1.431  14.818  1.2111  0.4797  0.5190
13367TIP3   OH261591   3.374   0.407   0.515 -0.1309 -0.3050 -0.7167
13367TIP3    H161592   3.444   0.464   0.484 -0.5036 -0.1616 -1.3169
13367TIP3    H261593   3.404   0.318   0.496 -0.2703 -0.2280 -1.3234
13368TIP3   OH261594   1.361   2.073   0.371 -0.1530  0.0285  0.5447
13368TIP3    H161595   1.335   2.155   0.413 -0.9497 -0.1174  0.3432
13368TIP3    H261596   1.440   2.095   0.321  0.0152  0.5128  1.0177
13369TIP3   OH261597   0.049   5.985  15.005 -0.0162 -0.7096  0.0685
13369TIP3    H161598   0.002   6.062  15.037  1.3776 -0.3149  1.2684
13369TIP3    H261599  -0.013   5.942  14.946 -0.9267  1.1620 -0.4038
13370TIP3   OH261600   1.417   6.508  11.831  0.3102 -0.4009  0.2775
13370TIP3    H161601   1.477   6.579  11.808 -0.1068  0.1213  0.7744
13370TIP3    H261602   1.474   6.441  11.869  0.7388 -0.4463 -0.4227
13371TIP3   OH261603   1.410   5.940   5.216  0.0583  0.2593 -0.0505
13371TIP3    H161604   1.427   5.846   5.217  0.5347  0.3446  0.9264
13371TIP3    H261605   1.331   5.949   5.162 -0.6036 -0.8093  0.7065
13372TIP3   OH261606   4.137   4.020   0.586  0.0991 -0.2814  0.4005
13372TIP3    H161607   4.059   4.045   0.635 -2.0666 -2.7353 -1.4908
13372TIP3    H261608   4.139   4.080   0.512  0.5077  0.3003  0.8756
13373TIP3   OH261609   0.658   5.634   1.426 -0.0543  0.2720 -0.1755
13373TIP3    H161610   0.603   5.560   1.451 -0.1286  0.4974  0.3302
13373TIP3    H261611   0.596   5.703   1.401  0.0058 -0.2817 -2.0426
13374TIP3   OH261612   2.466   6.375  12.677 -0.3585  0.4510  0.5071
13374TIP3    H161613   2.421   6.300  12.641 -0.0186 -0.2146  1.4234
13374TIP3    H261614   2.398   6.428  12.718 -0.3668 -0.4405  1.6978
13375TIP3   OH261615   1.039   4.250  10.646  0.2695 -0.4993 -0.4510
13375TIP3    H161616   0.970   4.264  10.711  0.0066 -2.5289 -0.2216
13375TIP3    H261617   1.093   4.179  10.683  1.0504 -0.6081 -1.7243
13376TIP3   OH261618   4.122   3.983   1.768 -0.3274  0.2401  0.3707
13376TIP3    H161619   4.124   3.947   1.679  1.4811 -0.8864  0.8122
13376TIP3    H261620   4.150   4.074   1.757  2.3060 -0.5176 -0.0529
13377TIP3   OH261621   2.248   4.783   1.902  0.1804 -0.2369 -0.3943
13377TIP3    H161622   2.284   4.863   1.939  0.1543  0.2873 -1.4915
13377TIP3    H261623   2.156   4.783   1.930 -0.1887  0.8308 -1.5279
13378TIP3   OH261624   2.647   3.593  15.643  0.2782 -0.0898  0.0142
13378TIP3    H161625   2.592   3.604  15.565  0.5155  0.7779 -0.0413
13378TIP3    H261626   2.603   3.645  15.711 -0.3598 -1.4650  0.7063
13379TIP3   OH261627   4.421   4.573  13.784 -0.1684  0.4220 -0.1701
13379TIP3    H161628   4.503   4.620  13.767 -0.0010  0.1355 -0.1570
13379TIP3    H261629   4.411   4.515  13.708 -1.2458  1.6721 -1.0378
13380TIP3   OH261630   0.290   1.678  16.012 -0.0926 -0.0488 -0.5970
13380TIP3    H161631   0.305   1.640  16.099 -0.4400  2.1436  0.4903
13380TIP3    H261632   0.199   1.706  16.013 -0.1623 -0.1682 -1.7649
13381TIP3   OH261633   1.853   2.218  15.793 -0.1320  0.2538 -0.2204
13381TIP3    H161634   1.855   2.123  15.783 -0.6633 -0.0994  2.4763
13381TIP3    H261635   1.793   2.247  15.724  1.0014 -1.1857 -1.9111
13382TIP3   OH261636   4.817   5.811   5.962  0.2627 -0.4425  0.8084
13382TIP3    H161637   4.798   5.760   6.040 -3.5462 -0.6899 -0.0668
13382TIP3    H261638   4.819   5.902   5.993  2.8860 -0.7200  1.7056
13383TIP3   OH261639   0.420   3.995   1.999  0.3806  0.1236  0.5575
13383TIP3    H161640   0.339   4.019   2.044 -0.4094 -0.2408 -0.6423
13383TIP3    H261641   0.465   3.936   2.060 -1.7104 -2.1554  0.0063
13384TIP3   OH261642   1.240   0.853   0.215  0.3579 -0.0282  0.4449
13384TIP3    H161643   1.190   0.908   0.276 -0.9027  0.0862 -0.6385
13384TIP3    H261644   1.195   0.769   0.218  0.4281 -0.0857 -0.1671
13385TIP3   OH261645   3.070   4.952   2.470  0.5119  0.4456 -0.0597
13385TIP3    H161646   3.041   5.041   2.454 -2.2309  0.0590  2.1061
13385TIP3    H261647   3.031   4.901   2.399 -1.1681  0.4701  0.8078
13386TIP3   OH261648   4.104   2.371   3.691 -0.1197 -0.2141 -0.0201
13386TIP3    H161649   4.136   2.327   3.612 -0.2655 -2.0006  0.8523
13386TIP3    H261650   4.170   2.436   3.712  0.1999 -0.1099 -1.2869
13387TIP3   OH261651   1.529   5.722  13.364  0.2323 -0.3545  0.1329
13387TIP3    H161652   1.556   5.772  13.287 -2.4469  2.9350  1.1295
13387TIP3    H261653   1.606   5.724  13.421  1.2787 -0.3257 -1.2156
13388TIP3   OH261654   0.976   2.347   5.474 -0.0931  0.0635  0.3552
13388TIP3    H161655   0.926   2.418   5.512 -0.9416 -1.1155  1.5081
13388TIP3    H261656   1.055   2.389   5.439 -1.1022  1.7080 -0.0248
13389TIP3   OH261657   1.229   2.114  13.471 -0.5460 -0.1573  0.5437
13389TIP3    H161658   1.190   2.146  13.390 -0.1521  0.1983  0.4904
13389TIP3    H261659   1.318   2.151  13.472 -0.4717 -0.3295  1.0324
13390TIP3   OH261660   0.718   2.848   0.809  0.3767 -0.2429 -0.0696
13390TIP3    H161661   0.681   2.917   0.864 -1.7456 -0.3164 -1.2634
13390TIP3    H261662   0.646   2.825   0.750  1.9425 -1.5010 -1.5701
13391TIP3   OH261663   0.460   0.039  11.985 -0.0605 -0.5155 -0.2162
13391TIP3    H161664   0.411   0.034  11.904  0.9615  0.6948 -0.9460
13391TIP3    H261665   0.507  -0.044  11.990  1.3255  0.1147 -1.8576
13392TIP3   OH261666   6.721   4.866   5.919 -0.3807  0.2571 -0.0637
13392TIP3    H161667   6.656   4.886   5.987 -2.0596 -1.6185 -1.0354
13392TIP3    H261668   6.783   4.806   5.961 -0.6632  0.1328  0.1748
13393TIP3   OH261669   6.793   6.010   1.714 -1.0290  0.2350 -0.1994
13393TIP3    H161670   6.831   5.925   1.736 -1.7879 -0.3203 -0.9433
13393TIP3    H261671   6.767   6.048   1.798 -0.8459 -0.3505  0.1235
13394TIP3   OH261672   0.087   5.918  13.039 -0.0648 -0.2112 -0.1873
13394TIP3    H161673   0.063   6.009  13.026 -3.6662 -0.9087  0.4212
13394TIP3    H261674   0.080   5.879  12.952 -0.2160 -0.2223 -0.1704
13395TIP3   OH261675   6.127   5.411  11.948  0.0729  0.0398  0.1984
13395TIP3    H161676   6.078   5.493  11.943 -2.1093 -1.1480  0.8443
13395TIP3    H261677   6.091   5.366  12.024  1.6892 -1.2463  0.2571
13396TIP3   OH261678   1.967   0.436   1.234 -0.6210  0.1460  0.0052
13396TIP3    H161679   2.048   0.479   1.261  0.1779 -0.7129 -0.9389
13396TIP3    H261680   1.898   0.497   1.258  0.3844  1.3481 -0.0867
13397TIP3   OH261681   2.659   0.496  16.905 -0.2459  0.6880 -0.2047
13397TIP3    H161682   2.615   0.579  16.885 -1.0425 -0.3276 -3.1849
13397TIP3    H261683   2.592   0.429  16.892  1.0363 -0.6084 -0.4506
13398TIP3   OH261684   4.388   3.967  11.253 -0.4046  0.6601  0.2355
13398TIP3    H161685   4.391   4.030  11.181  2.0556 -0.4350 -0.7361
13398TIP3    H261686   4.304   3.922  11.242 -0.0580  0.4444 -2.0601
13399TIP3   OH261687   1.781   4.104  13.826  0.5067  0.0464 -0.4998
13399TIP3    H161688   1.817   4.059  13.902  1.1295  1.3824  0.0292
13399TIP3    H261689   1.815   4.194  13.833 -0.3502  0.4920 -1.7326
13400TIP3   OH261690   1.396   3.111  12.192  1.1532 -0.2891 -0.9569
13400TIP3    H161691   1.381   3.202  12.218  1.5836 -0.4428 -0.1691
13400TIP3    H261692   1.321   3.091  12.135  0.5049  0.2278 -0.3116
13401TIP3   OH261693   3.026   5.347   4.370 -0.5323 -0.0692  0.0467
13401TIP3    H161694   2.986   5.368   4.454  1.4996  0.9699  0.8487
13401TIP3    H261695   3.089   5.419   4.355  2.2969 -2.3972 -0.1714
13402TIP3   OH261696   6.576   1.873   3.213  0.4665 -0.4704  0.1368
13402TIP3    H161697   6.594   1.779   3.202  2.6446 -0.0666 -0.1845
13402TIP3    H261698   6.656   1.909   3.249 -0.9068  1.0499  1.8319
13403TIP3   OH261699   0.558   4.199  15.445 -0.0670  0.2101  0.4475
13403TIP3    H161700   0.494   4.212  15.375  1.4365  0.2244 -0.9883
13403TIP3    H261701   0.521   4.246  15.520 -1.3085  0.9504 -0.5742
13404TIP3   OH261702   6.049   0.042  14.752  0.5230 -0.3688  0.0259
13404TIP3    H161703   6.118  -0.022  14.771  2.7928  1.4872 -1.4371
13404TIP3    H261704   6.092   0.127  14.760 -2.2388  1.0355  1.2987
13405TIP3   OH261705   4.780   2.848  16.469 -0.1881  0.2183  0.6671
13405TIP3    H161706   4.803   2.900  16.546  1.6159 -0.7885  0.8638
13405TIP3    H261707   4.808   2.759  16.491 -0.3627 -0.2438 -0.8481
13406TIP3   OH261708   4.946   2.068  16.548  0.4536 -0.2855  0.1035
13406TIP3    H161709   4.867   2.065  16.495  0.0496  0.7395  0.6334
13406TIP3    H261710   4.959   1.978  16.577 -0.8661 -0.3434  0.5301
13407TIP3   OH261711   6.452   2.095  14.277 -0.3799 -0.0994  0.0473
13407TIP3    H161712   6.434   2.167  14.217  0.4774 -0.1303 -0.2638
13407TIP3    H261713   6.408   2.020  14.238  0.7636 -0.2826 -0.9529
13408TIP3   OH261714   3.640   0.493  17.240  0.0412 -0.0307 -0.1203
13408TIP3    H161715   3.576   0.427  17.215 -1.7452  1.3988  0.4540
13408TIP3    H261716   3.596   0.546  17.306  2.2086  0.4059  1.0782
13409TIP3   OH261717   6.363   2.710   3.390 -0.2051 -0.0821 -0.3847
13409TIP3    H161718   6.291   2.663   3.348 -1.4144 -0.7720  2.2243
13409TIP3    H261719   6.393   2.651   3.459  0.6764  1.5105  0.6550
13410TIP3   OH261720   5.432   5.187   0.676 -0.7199 -0.1889 -0.3706
13410TIP3    H161721   5.345   5.193   0.637 -0.3968 -0.5037 -1.1476
13410TIP3    H261722   5.468   5.105   0.643  0.6219  0.8575 -1.6104
13411TIP3   OH261723   2.781   6.788  16.567  0.1572  0.5108  0.2245
13411TIP3    H161724   2.727   6.826  16.498  1.2707 -0.8136 -1.4524
13411TIP3    H261725   2.779   6.694  16.550  2.1047  0.3376  0.7630
13412TIP3   OH261726   0.394   0.789  16.227  0.7205  0.1669  0.2730
13412TIP3    H161727   0.400   0.756  16.137 -0.7900 -2.0178  0.8919
13412TIP3    H261728   0.326   0.856  16.224 -0.7900 -1.3070  0.0817
13413TIP3   OH261729   4.830   3.805  15.446 -0.3959 -0.9120  0.2487
13413TIP3    H161730   4.781   3.788  15.365  0.0208 -2.8855  0.3679
13413TIP3    H261731   4.895   3.735  15.451  0.0620 -0.4252  1.9441
13414TIP3   OH261732   2.666   4.347  13.116 -0.4193 -0.3460  0.3262
13414TIP3    H161733   2.619   4.272  13.153  1.3732 -1.7404 -0.1091
13414TIP3    H261734   2.742   4.309  13.073 -1.2524  1.4088 -2.9873
13415TIP3   OH261735   3.320   1.059  12.617 -0.0037  0.3608  0.0784
13415TIP3    H161736   3.395   1.000  12.614 -0.3718 -0.0767 -0.7044
13415TIP3    H261737   3.317   1.089  12.708  0.3963 -0.5454  0.4007
13416TIP3   OH261738   4.627   1.667   4.061  0.1070  0.5536 -0.4592
13416TIP3    H161739   4.664   1.705   3.981  0.7798 -0.4768 -0.6626
13416TIP3    H261740   4.542   1.709   4.071 -1.9515 -2.1326 -4.0670
13417TIP3   OH261741   4.732   5.797  11.167 -0.3670  0.3586 -0.5881
13417TIP3    H161742   4.696   5.716  11.130 -0.9795  0.0830  0.5512
13417TIP3    H261743   4.655   5.846  11.196 -0.0848  1.8838 -2.2530
13418TIP3   OH261744   2.000   5.321  12.713  0.3063 -0.1398  0.3036
13418TIP3    H161745   2.072   5.283  12.663  0.3271 -0.6907  0.7407
13418TIP3    H261746   1.940   5.248  12.727  0.4395 -0.0726  1.3187
13419TIP3   OH261747   6.462   0.191  17.033 -0.0091 -0.0418  0.2896
13419TIP3    H161748   6.466   0.125  16.964 -0.2773  0.5608 -0.3015
13419TIP3    H261749   6.375   0.229  17.025  0.8644  1.8713 -0.7548
13420TIP3   OH261750   4.273   4.366   0.605 -0.0158  0.1949 -0.3173
13420TIP3    H161751   4.331   4.329   0.539  1.2061  0.4849  0.5612
13420TIP3    H261752   4.321   4.359   0.687 -1.1195  0.6800  0.4088
13421TIP3   OH261753   0.775   4.878  15.663 -0.1145  0.2475  0.2049
13421TIP3    H161754   0.855   4.841  15.628 -0.5221  0.6373 -1.2286
13421TIP3    H261755   0.706   4.820  15.631 -0.4687  0.3901  0.7059
13422TIP3   OH261756   1.750   6.348   5.770 -0.4235 -0.0903  0.0347
13422TIP3    H161757   1.807   6.280   5.735  1.0295  0.9206  0.3749
13422TIP3    H261758   1.670   6.301   5.797 -0.1511 -1.3841 -1.3116
13423TIP3   OH261759   6.245   0.665  15.653  0.0469 -0.0654  0.2272
13423TIP3    H161760   6.307   0.658  15.726  0.8731  3.4528  0.0631
13423TIP3    H261761   6.299   0.652  15.575 -0.1930 -0.6417  0.1524
13424TIP3   OH261762   1.801   2.220  11.762 -0.8966 -0.5588  0.6350
13424TIP3    H161763   1.823   2.248  11.673  1.9798 -0.8854  1.1254
13424TIP3    H261764   1.718   2.264  11.782 -1.7465 -0.6815 -2.2548
13425TIP3   OH261765   2.066   5.994   1.423 -0.4564  0.7488 -0.3332
13425TIP3    H161766   2.068   5.963   1.514  1.7196  1.4685 -0.0531
13425TIP3    H261767   2.100   5.921   1.372 -1.3177  0.4789 -0.5258
13426TIP3   OH261768   0.856   1.030  16.181  0.5478  0.1871 -0.1006
13426TIP3    H161769   0.777   1.056  16.133  0.2746 -1.4943 -0.6316
13426TIP3    H261770   0.926   1.041  16.118  0.7875  1.7643  0.3983
13427TIP3   OH261771   4.538   4.343   2.461 -0.1898 -0.2909 -0.2248
13427TIP3    H161772   4.587   4.347   2.544  0.2466  1.0036 -0.5220
13427TIP3    H261773   4.459   4.294   2.483 -0.0798  0.0179  0.9634
13428TIP3   OH261774   4.808   5.891  14.770 -0.6819  0.3563 -0.0186
13428TIP3    H161775   4.809   5.906  14.675  1.6703 -1.9584 -0.4742
13428TIP3    H261776   4.725   5.845  14.785 -1.5108  1.5519 -0.7760
13429TIP3   OH261777   0.964   5.245  15.447 -0.1306 -0.3837  0.6744
13429TIP3    H161778   0.960   5.151  15.429 -1.4577 -0.6376  2.1429
13429TIP3    H261779   1.054   5.270  15.424 -0.7639 -1.1553 -3.4949
13430TIP3   OH261780   4.625   6.821  12.831  0.8222 -0.7091 -0.4953
13430TIP3    H161781   4.715   6.796  12.853  1.8806  3.2329  0.4604
13430TIP3    H261782   4.635   6.893  12.768 -1.5603  0.7542  0.6607
13431TIP3   OH261783   3.076   4.236   1.576  0.0438 -0.1632 -0.6368
13431TIP3    H161784   3.040   4.249   1.489  0.5670 -1.0591 -0.9941
13431TIP3    H261785   3.164   4.273   1.572  0.1377 -0.3755 -0.5423
13432TIP3   OH261786   4.097   1.984  14.874 -0.1506 -0.3324  0.0725
13432TIP3    H161787   4.048   2.004  14.954 -0.3501  0.1162 -0.1568
13432TIP3    H261788   4.036   1.933  14.821  0.0548 -0.8112  0.2901
13433TIP3   OH261789   3.190   0.395   6.744  0.1583  0.4785 -0.1211
13433TIP3    H161790   3.232   0.460   6.688 -0.1777 -1.0822 -2.3225
13433TIP3    H261791   3.256   0.326   6.756 -1.2184 -1.5191 -2.7979
13434TIP3   OH261792   0.937   4.822  13.418  0.3858  0.1591  0.2647
13434TIP3    H161793   0.900   4.909  13.429  0.2833  0.5413 -2.4858
13434TIP3    H261794   0.880   4.765  13.469 -1.3135  1.3236 -0.2781
13435TIP3   OH261795   6.326   1.059  15.893 -0.3487 -0.3771 -0.6405
13435TIP3    H161796   6.303   0.984  15.837  0.1974 -1.2456  0.2765
13435TIP3    H261797   6.418   1.046  15.915 -0.6460 -0.2616  0.7733
13436TIP3   OH261798   6.235   1.051   5.825  0.3102  0.3380  0.1327
13436TIP3    H161799   6.227   1.146   5.818  1.1528  0.3507 -0.9240
13436TIP3    H261800   6.206   1.031   5.914 -0.7135  1.4824  0.0762
13437TIP3   OH261801   5.553   1.642   1.338  0.0986  0.0885 -0.1188
13437TIP3    H161802   5.479   1.583   1.356 -0.7215  0.7942 -1.0377
13437TIP3    H261803   5.581   1.618   1.250 -3.0161  3.7092 -2.4287
13438TIP3   OH261804   0.486   3.197  14.386  0.0365 -0.5310  0.1087
13438TIP3    H161805   0.490   3.104  14.407  2.3637 -0.3405  0.7889
13438TIP3    H261806   0.525   3.240  14.461  1.3190  0.7879 -1.2446
13439TIP3   OH261807   0.479   4.376   3.926 -0.1920 -0.2625  0.1566
13439TIP3    H161808   0.475   4.281   3.933  2.8479 -0.4287  0.8723
13439TIP3    H261809   0.390   4.405   3.949 -0.8892 -2.8423  1.0940
13440TIP3   OH261810   3.889   3.267   0.139 -0.3830  0.5843  0.5558
13440TIP3    H161811   3.877   3.335   0.074 -0.1360  0.2241  0.1282
13440TIP3    H261812   3.967   3.219   0.110  0.1345  0.8469  1.4852
13441TIP3   OH261813   2.816   3.127   1.936 -0.4291 -0.1096  0.0789
13441TIP3    H161814   2.831   3.034   1.953 -4.1134 -0.7792  0.5856
13441TIP3    H261815   2.809   3.166   2.023  1.5763  0.7987 -0.1302
13442TIP3   OH261816   0.322   6.544   0.145 -0.2172 -0.0751 -0.2939
13442TIP3    H161817   0.300   6.586   0.228 -3.7198 -0.3980 -0.9199
13442TIP3    H261818   0.333   6.616   0.084 -1.8769  0.1370 -0.4011
13443TIP3   OH261819   2.477   6.497  10.445  0.3701  0.6564  0.3802
13443TIP3    H161820   2.477   6.424  10.382  1.4979  0.7763  0.2181
13443TIP3    H261821   2.384   6.516  10.459  0.0674 -0.4219 -0.0283
13444TIP3   OH261822   5.759   3.912  14.197 -0.1297 -0.1312  0.5836
13444TIP3    H161823   5.786   4.004  14.191  0.2396 -0.2100  0.9258
13444TIP3    H261824   5.675   3.915  14.242 -0.7910  0.1326 -0.6501
13445TIP3   OH261825   4.656   6.790  17.214  0.5623  0.0573 -0.2772
13445TIP3    H161826   4.616   6.801  17.300 -1.1994  1.4178 -1.1827
13445TIP3    H261827   4.685   6.699  17.212  0.4704 -0.0510  1.6604
13446TIP3   OH261828   3.954   4.561  11.947  0.2165  0.1735  0.4985
13446TIP3    H161829   3.975   4.594  11.859 -0.4615  1.5979  0.8452
13446TIP3    H261830   3.858   4.562  11.951  0.2058 -1.0407  0.8425
13447TIP3   OH261831   0.853   2.732  11.750  0.2058 -0.0898 -0.0596
13447TIP3    H161832   0.783   2.795  11.765  0.5737  0.6268 -1.2243
13447TIP3    H261833   0.870   2.736  11.656  1.6470 -0.4119  0.1494
13448TIP3   OH261834   3.178   3.626   2.183  0.3268  0.2314 -0.1548
13448TIP3    H161835   3.130   3.705   2.161  2.9237  1.7693 -0.6671
13448TIP3    H261836   3.139   3.558   2.127 -1.9017  1.1047  0.2447
13449TIP3   OH261837   0.568   2.295  15.810  0.1864  0.3423 -0.2461
13449TIP3    H161838   0.508   2.257  15.746 -0.2963  2.2760 -1.0355
13449TIP3    H261839   0.555   2.243  15.890 -2.9306  0.9313 -0.2331
13450TIP3   OH261840   0.046   0.402  11.497  0.2503 -0.2543 -0.1409
13450TIP3    H161841   0.071   0.376  11.586 -1.5082 -0.1007  0.4387
13450TIP3    H261842  -0.020   0.338  11.471  0.7789 -0.3161 -1.3572
13451TIP3   OH261843   3.768   0.767   1.703 -0.3077  0.6134  0.0854
13451TIP3    H161844   3.760   0.722   1.787 -1.3981 -0.6871 -0.6812
13451TIP3    H261845   3.838   0.720   1.658 -2.7556 -1.7444 -1.5073
13452TIP3   OH261846   6.670   2.378  11.163 -0.2375 -0.4663 -0.1661
13452TIP3    H161847   6.577   2.397  11.148  0.0022  0.0701 -1.0770
13452TIP3    H261848   6.674   2.283  11.171 -0.7413 -0.5894 -1.1414
13453TIP3   OH261849   1.773   5.139  11.567 -0.7389 -0.3808 -0.2020
13453TIP3    H161850   1.729   5.075  11.622 -0.5188 -1.2590 -1.0113
13453TIP3    H261851   1.721   5.219  11.575 -2.1203 -1.2048 -0.6253
13454TIP3   OH261852   0.107   2.639  12.328 -0.0244  0.2754  0.0937
13454TIP3    H161853   0.091   2.559  12.278 -1.5428 -0.1050  1.1205
13454TIP3    H261854   0.029   2.649  12.382  1.4382  0.7893  2.2270
13455TIP3   OH261855   4.587   5.765   1.562  0.0207  0.1526 -0.4137
13455TIP3    H161856   4.674   5.775   1.600  0.1130 -0.0692 -0.5686
13455TIP3    H261857   4.540   5.845   1.589  0.1317  0.0701  0.0327
13456TIP3   OH261858   0.579   6.489   4.288  0.7765 -0.2555 -0.4030
13456TIP3    H161859   0.497   6.504   4.335  1.6669 -0.2936  1.2521
13456TIP3    H261860   0.578   6.553   4.217 -0.4077  0.1609 -0.0391
13457TIP3   OH261861   4.680   3.409  16.327  0.0726 -0.3638  0.4355
13457TIP3    H161862   4.671   3.471  16.255  4.3356 -1.2333 -1.1478
13457TIP3    H261863   4.717   3.460  16.398 -0.8237 -0.2049  0.7949
13458TIP3   OH261864   1.820   5.358   3.829  0.0267  0.2972 -0.2267
13458TIP3    H161865   1.841   5.287   3.890  4.5730 -0.5462 -2.3274
13458TIP3    H261866   1.770   5.316   3.759 -2.6413  0.6527  1.3454
13459TIP3   OH261867   2.769   4.659  13.898  0.6398 -0.0757  0.1794
13459TIP3    H161868   2.678   4.682  13.878  0.6694  0.3616  0.5500
13459TIP3    H261869   2.817   4.741  13.891  0.8698 -0.1602  0.7753
13460TIP3   OH261870   5.705   6.304  15.472 -0.7191 -0.4380  0.1679
13460TIP3    H161871   5.757   6.225  15.460 -0.2357 -0.2110  0.7382
13460TIP3    H261872   5.621   6.284  15.429  0.3416 -0.2437 -2.1036
13461TIP3   OH261873   1.432   6.577  13.868  0.6843  0.0161  0.0437
13461TIP3    H161874   1.522   6.606  13.885  1.3665 -0.4121 -2.4254
13461TIP3    H261875   1.390   6.578  13.954  3.2315 -0.4734  1.4038
13462TIP3   OH261876   5.814   6.435   0.514  0.2075 -0.5276  0.1956
13462TIP3    H161877   5.898   6.430   0.469  0.8370  0.0482  1.2583
13462TIP3    H261878   5.835   6.476   0.598 -1.0209 -1.0511  0.7722
13463TIP3   OH261879   3.255   3.533   0.148  0.1760  0.0356  0.1649
13463TIP3    H161880   3.167   3.563   0.173  0.6308  3.1732 -1.5427
13463TIP3    H261881   3.240   3.475   0.074 -0.4677  1.2281 -0.6747
13464TIP3   OH261882   5.338   0.700   0.417  0.2307 -0.1018 -0.1385
13464TIP3    H161883   5.253   0.691   0.460 -0.5671 -1.9069 -1.9102
13464TIP3    H261884   5.400   0.658   0.477 -0.4363 -0.3644  0.3732
13465TIP3   OH261885   0.207   2.963   5.798 -0.3382 -0.6208 -0.2281
13465TIP3    H161886   0.262   3.009   5.862 -0.5163 -1.5291  0.5988
13465TIP3    H261887   0.235   2.872   5.803 -2.3459 -1.2453  0.7201
13466TIP3   OH261888   4.111   3.536   0.197  0.0894  0.4137 -0.3792
13466TIP3    H161889   4.064   3.620   0.196  0.8814  0.9153  0.9496
13466TIP3    H261890   4.176   3.544   0.127 -0.7692  0.3233 -1.2055
13467TIP3   OH261891   4.098   2.907   0.027 -0.1108  0.4919 -0.0938
13467TIP3    H161892   4.084   2.917  -0.068  1.4324 -1.1666 -0.5628
13467TIP3    H261893   4.189   2.933   0.040 -0.4455  1.1344  1.0404
13468TIP3   OH261894   2.690   3.451   2.308  0.1249 -0.4598  0.1700
13468TIP3    H161895   2.724   3.433   2.396 -1.0410 -0.4195  0.6582
13468TIP3    H261896   2.660   3.542   2.312 -0.5584 -0.6623 -0.0383
13469TIP3   OH261897   2.921   1.622  14.880  0.1946  0.1494  0.6296
13469TIP3    H161898   2.921   1.553  14.815  1.1426 -0.0824  0.8631
13469TIP3    H261899   2.847   1.678  14.857 -1.9100 -2.0599  1.6677
13470TIP3   OH261900   2.030   3.780  11.243  0.0471  0.3741  0.0491
13470TIP3    H161901   2.048   3.864  11.202 -1.3547  0.5760 -0.1937
13470TIP3    H261902   1.941   3.758  11.215  0.3543 -1.1355  0.2005
13471TIP3   OH261903   1.641   2.585  14.701  0.2882 -0.4954 -0.0103
13471TIP3    H161904   1.655   2.523  14.773  1.7695 -0.5876 -0.3302
13471TIP3    H261905   1.547   2.582  14.683  0.0766 -1.3108  1.1658
13472TIP3   OH261906   3.488   2.100  16.619 -0.1408 -0.3638  0.4519
13472TIP3    H161907   3.450   2.035  16.679 -1.5276 -1.6616 -1.7036
13472TIP3    H261908   3.534   2.048  16.553 -1.5578  0.7674 -1.5303
13473TIP3   OH261909   5.076   6.310  12.703 -0.6684 -0.0519  0.3002
13473TIP3    H161910   5.024   6.243  12.658  1.5188 -2.9545  1.7607
13473TIP3    H261911   5.020   6.339  12.775 -1.1746 -1.3407  0.4505
13474TIP3   OH261912   4.667   4.778   0.979 -0.6234 -0.0149 -0.0880
13474TIP3    H161913   4.671   4.873   0.971 -1.5860 -0.0051 -0.7107
13474TIP3    H261914   4.623   4.763   1.063 -0.8434  0.1029 -0.1809
13475TIP3   OH261915   0.722   0.614   0.054  0.9191 -0.7164  0.0517
13475TIP3    H161916   0.816   0.596   0.055  0.7067 -1.9449  1.4684
13475TIP3    H261917   0.711   0.690   0.110  1.4058  1.8580 -3.0474
13476TIP3   OH261918   3.036   5.029  12.788 -0.5298 -0.1502  0.4299
13476TIP3    H161919   2.969   5.004  12.851 -0.4677 -1.4611  0.0110
13476TIP3    H261920   3.090   5.093  12.834  0.0340 -1.7115  2.0509
13477TIP3   OH261921   5.220   4.127  14.188  0.2235  0.5549  0.2804
13477TIP3    H161922   5.125   4.131  14.174  0.2460 -1.1171 -0.5116
13477TIP3    H261923   5.229   4.108  14.282 -0.2162  0.9435  0.4053
13478TIP3   OH261924   2.016   1.657  16.463 -0.0819  0.6734 -0.1974
13478TIP3    H161925   1.961   1.588  16.499  0.1829 -0.4526 -1.8500
13478TIP3    H261926   1.957   1.710  16.410 -0.2055  1.5217  0.7511
13479TIP3   OH261927   4.521   0.528  13.913  0.0818 -0.5910  0.3971
13479TIP3    H161928   4.472   0.557  13.990 -1.1503 -3.1924  0.7156
13479TIP3    H261929   4.494   0.587  13.843 -0.9542  0.0714  1.3246
13480TIP3   OH261930   2.270   5.026   2.098  0.6167  0.1150 -0.1185
13480TIP3    H161931   2.345   5.073   2.061 -0.3474  0.9113 -1.1338
13480TIP3    H261932   2.197   5.087   2.088 -0.1865 -0.6765  0.7840
13481TIP3   OH261933   5.836   2.570  16.261  0.6009  0.2232  0.4684
13481TIP3    H161934   5.783   2.601  16.188  2.4979 -1.0927 -1.5789
13481TIP3    H261935   5.790   2.602  16.339 -0.5732  3.2288 -1.2834
13482TIP3   OH261936   4.560   2.732  13.736  0.1856 -0.1889 -0.1628
13482TIP3    H161937   4.483   2.761  13.786  0.0250 -2.9303  1.3431
13482TIP3    H261938   4.624   2.802  13.750 -2.0803  2.4740 -1.9473
13483TIP3   OH261939   6.640   1.842  16.345  0.5853  0.0240  0.6454
13483TIP3    H161940   6.585   1.811  16.273 -0.2776  3.3768 -0.3534
13483TIP3    H261941   6.649   1.767  16.403 -0.7199 -2.1341 -1.7458
13484TIP3   OH261942   4.228   3.308  14.344 -0.3818 -0.0683 -0.8874
13484TIP3    H161943   4.152   3.326  14.289 -1.2153  1.2224  0.6172
13484TIP3    H261944   4.194   3.311  14.433  1.6147  1.5593 -0.1139
13485TIP3   OH261945   6.236   1.477   0.306  0.0132  0.2121 -0.9695
13485TIP3    H161946   6.175   1.407   0.285  0.8987 -0.4676 -1.3389
13485TIP3    H261947   6.318   1.432   0.326  0.4817  1.1229 -0.7785
13486TIP3   OH261948   0.063   2.730   4.501 -0.2994  0.2523 -0.3698
13486TIP3    H161949   0.058   2.638   4.477 -1.6883 -0.1021  1.0979
13486TIP3    H261950   0.109   2.772   4.428 -2.0215 -1.1330 -2.3484
13487TIP3   OH261951   4.128   1.532   3.246 -0.2903  0.3036 -0.1040
13487TIP3    H161952   4.059   1.515   3.181 -1.6316  1.5730  0.9253
13487TIP3    H261953   4.105   1.617   3.283 -1.5179 -1.6906  4.3604
13488TIP3   OH261954   0.223   2.993  11.283  0.0715 -0.3090 -0.1168
13488TIP3    H161955   0.291   3.060  11.273 -0.9528  0.8211  0.2890
13488TIP3    H261956   0.223   2.973  11.376  0.0650 -0.5351 -0.1659
13489TIP3   OH261957   0.794   0.353   2.379  0.0887  0.1354 -0.0824
13489TIP3    H161958   0.864   0.357   2.444 -1.0589  1.5733  1.1199
13489TIP3    H261959   0.839   0.367   2.295  1.3044  0.5529  0.6113
13490TIP3   OH261960   4.556   6.365   6.459 -0.0338 -0.3046 -0.0477
13490TIP3    H161961   4.587   6.448   6.495  0.5833 -0.7305  0.4479
13490TIP3    H261962   4.470   6.353   6.498 -0.5815  0.5999 -0.9463
13491TIP3   OH261963   1.950   0.868  14.656  0.3800 -0.3735  0.0946
13491TIP3    H161964   1.882   0.901  14.715  0.1688 -0.1803 -0.2589
13491TIP3    H261965   1.916   0.884  14.568  1.1205  0.2144 -0.0890
13492TIP3   OH261966   1.905   4.999  12.013 -0.0064  0.6754  0.1754
13492TIP3    H161967   1.913   4.943  11.935  1.3010  0.0814  0.7076
13492TIP3    H261968   1.995   5.029  12.030 -0.2972  0.8891  1.3893
13493TIP3   OH261969   4.303   0.703   5.238  0.2730  0.5609  0.2017
13493TIP3    H161970   4.306   0.763   5.313  0.9654  1.3856 -0.4652
13493TIP3    H261971   4.395   0.690   5.215  0.0510  0.4932 -0.6477
13494TIP3   OH261972   4.882   2.434  14.623 -0.4487 -0.4194  0.2734
13494TIP3    H161973   4.910   2.523  14.602 -0.9315 -0.4783 -0.6270
13494TIP3    H261974   4.936   2.378  14.568 -1.4755 -0.5906 -0.5875
13495TIP3   OH261975   3.677   0.391   1.222  0.4001 -0.0483  0.4092
13495TIP3    H161976   3.599   0.364   1.270  0.5271 -1.0241  0.0831
13495TIP3    H261977   3.694   0.480   1.252 -0.5828  0.0134  0.8057
13496TIP3   OH261978   2.194   4.340   1.824 -0.1646  0.1488  0.6322
13496TIP3    H161979   2.155   4.345   1.737  1.7452 -0.6871 -0.3354
13496TIP3    H261980   2.121   4.320   1.882 -1.7519  2.1948 -0.5214
13497TIP3   OH261981   3.118   2.548  11.782  0.2798 -0.3623 -0.3031
13497TIP3    H161982   3.131   2.637  11.750  0.1144 -0.0054  0.5986
13497TIP3    H261983   3.201   2.525  11.824  0.0183 -0.2961  0.2524
13498TIP3   OH261984   3.960   5.524  11.878 -0.3037 -0.4885  0.3721
13498TIP3    H161985   4.014   5.481  11.944  0.7125  0.0933 -0.0574
13498TIP3    H261986   3.905   5.454  11.843 -0.5207 -0.8965  1.4985
13499TIP3   OH261987   2.963   6.787   0.258 -0.5569  0.2941  0.4692
13499TIP3    H161988   2.916   6.842   0.196 -0.4351 -1.5231 -1.3327
13499TIP3    H261989   2.898   6.724   0.289 -0.2575  0.2871  1.1092
13500TIP3   OH261990   1.205   1.815  17.272  0.2381 -0.0075 -0.1246
13500TIP3    H161991   1.186   1.857  17.356  1.6497 -1.8305  1.2103
13500TIP3    H261992   1.217   1.723  17.294 -0.1763 -0.6898 -2.4973
13501TIP3   OH261993   0.727   2.917  16.420  0.0396  0.4044 -0.2042
13501TIP3    H161994   0.714   3.004  16.458  0.7738  1.4352 -2.1567
13501TIP3    H261995   0.639   2.892  16.390 -0.2613  0.2393  0.7708
13502TIP3   OH261996   1.558   6.117  15.158  0.3893 -0.1232 -0.6911
13502TIP3    H161997   1.532   6.027  15.177 -3.9279  0.8748 -0.8889
13502TIP3    H261998   1.561   6.160  15.243 -0.5331  0.1660 -0.7917
13503TIP3   OH261999   2.698   0.633   2.988 -0.3365 -0.2793 -0.6105
13503TIP3    H162000   2.680   0.641   3.082  0.1948 -0.0258 -0.5221
13503TIP3    H262001   2.668   0.546   2.964  1.7627 -1.3339  0.3379
13504TIP3   OH262002   3.045   1.036   1.801 -0.4587 -0.0003  0.3153
13504TIP3    H162003   3.093   0.960   1.833  1.0778  0.5024 -0.6587
13504TIP3    H262004   3.060   1.036   1.707  0.5014  2.0907  0.4177
13505TIP3   OH262005   2.670   3.427  13.040  0.7794  0.3468 -0.5883
13505TIP3    H162006   2.739   3.427  12.973  2.3913  1.0525  0.9773
13505TIP3    H262007   2.588   3.428  12.991  1.8984  2.1828 -2.5854
13506TIP3   OH262008   0.728   4.360  15.639 -0.0181 -0.4546 -0.0006
13506TIP3    H162009   0.767   4.437  15.597 -0.6545 -0.6021 -0.8879
13506TIP3    H262010   0.776   4.351  15.721  1.3659 -0.2403 -0.7482
13507TIP3   OH262011   5.375   4.665   0.360  0.2067  0.6164  0.4146
13507TIP3    H162012   5.448   4.720   0.332  0.8971 -0.6930 -0.4551
13507TIP3    H262013   5.413   4.577   0.370 -1.2718 -0.1500 -0.2724
13508TIP3   OH262014   2.132   0.399   0.073 -0.4572  0.3505 -0.2016
13508TIP3    H162015   2.168   0.437  -0.007 -1.0915  0.0913 -0.6151
13508TIP3    H262016   2.206   0.397   0.134 -0.2485  1.6435 -0.3858
13509TIP3   OH262017   2.485   2.811  11.255  0.1456 -0.0354 -0.7032
13509TIP3    H162018   2.444   2.853  11.330 -0.1640 -0.4054 -0.6678
13509TIP3    H262019   2.417   2.756  11.217  0.7153 -0.9569 -0.4107
13510TIP3   OH262020   5.150   1.528  17.118  0.1232 -0.2253  0.0433
13510TIP3    H162021   5.112   1.456  17.069  0.4630  0.6986 -1.6600
13510TIP3    H262022   5.224   1.558  17.064 -0.5209  1.9316  0.2459
13511TIP3   OH262023   0.017   0.236   1.359 -0.1208  0.1022 -0.2801
13511TIP3    H162024  -0.063   0.190   1.332  0.6199 -2.0929  0.9718
13511TIP3    H262025   0.005   0.325   1.327 -3.2753  0.0024  0.2237
13512TIP3   OH262026   6.039   4.494   4.381  0.3935  0.1233 -0.4463
13512TIP3    H162027   6.072   4.551   4.312  2.4558 -1.6304 -1.0196
13512TIP3    H262028   6.114   4.441   4.407 -1.1541 -1.6129  0.7711
13513TIP3   OH262029   5.166   3.643   0.190  0.0380 -0.1656 -0.2902
13513TIP3    H162030   5.227   3.710   0.222  1.2622 -0.9862 -0.8397
13513TIP3    H262031   5.178   3.643   0.095  1.5830 -2.4963 -0.2006
13514TIP3   OH262032   4.700   5.682  12.289 -0.4956 -0.0129 -0.4616
13514TIP3    H162033   4.677   5.596  12.253  1.5643 -0.1499 -1.6153
13514TIP3    H262034   4.714   5.737  12.212  0.5545  0.6759  0.2005
13515TIP3   OH262035   1.285   1.538   4.821  0.1958 -0.4816  0.2490
13515TIP3    H162036   1.297   1.492   4.904  0.6058 -1.2908 -0.2422
13515TIP3    H262037   1.243   1.474   4.764 -1.9616  0.7153  0.4128
13516TIP3   OH262038   5.885   0.447  15.581 -0.1524  0.2190  0.2228
13516TIP3    H162039   5.845   0.407  15.505  0.6397  0.6478 -0.4354
13516TIP3    H262040   5.813   0.458  15.644 -0.8060 -0.1269 -0.4569
13517TIP3   OH262041   2.271   6.080   1.637  0.1455 -0.3479 -0.3011
13517TIP3    H162042   2.322   6.160   1.650 -0.2185 -0.2022  0.2751
13517TIP3    H262043   2.301   6.047   1.552  1.1360 -0.2236 -0.0219
13518TIP3   OH262044   4.069   4.244   1.383  0.4561  0.5673  0.0250
13518TIP3    H162045   4.110   4.163   1.352  0.8719  1.4566 -1.8896
13518TIP3    H262046   3.997   4.215   1.439  0.3634 -1.1317 -0.9256
13519TIP3   OH262047   4.025   2.403   1.746 -0.6190 -0.4527  0.5338
13519TIP3    H162048   3.953   2.355   1.788 -0.8007 -0.3640  0.3286
13519TIP3    H262049   3.984   2.445   1.671 -0.3450 -0.4154  0.4061
13520TIP3   OH262050   1.946   0.905   5.892  0.1295 -0.0239 -0.9494
13520TIP3    H162051   1.867   0.912   5.838  0.0940 -0.7920 -1.0116
13520TIP3    H262052   1.975   0.995   5.904 -0.8177  0.2766 -0.8361
13521TIP3   OH262053   2.125   3.292  12.957 -0.5268  0.5436 -0.2592
13521TIP3    H162054   2.055   3.343  12.999 -0.6798 -1.6848  2.4906
13521TIP3    H262055   2.080   3.215  12.922 -0.0730  1.3999 -3.0183
13522TIP3   OH262056   3.871   3.064  15.113 -0.3541  0.0037  0.1527
13522TIP3    H162057   3.887   2.991  15.173 -0.8667  0.0381  0.3383
13522TIP3    H262058   3.794   3.108  15.149  1.0427  1.7917  1.1385
13523TIP3   OH262059   6.069   6.385  11.413  0.5278  0.2450  0.2248
13523TIP3    H162060   6.031   6.419  11.494 -3.1368 -0.7829 -0.8819
13523TIP3    H262061   6.000   6.331  11.375  1.9490  0.8964 -3.7641
13524TIP3   OH262062   5.335   2.298   2.381  0.0515 -0.0581 -0.2146
13524TIP3    H162063   5.279   2.348   2.323  0.8246 -0.6121 -1.4896
13524TIP3    H262064   5.302   2.208   2.375 -0.1921 -0.0328  0.6275
13525TIP3   OH262065   5.132   0.108   3.948 -0.3117  0.1962 -0.6808
13525TIP3    H162066   5.202   0.049   3.919  1.4566  1.6899  0.3189
13525TIP3    H262067   5.097   0.145   3.867 -1.5660 -2.2203 -1.3445
13526TIP3   OH262068   1.707   3.895   5.872 -0.4318 -0.3260 -0.1869
13526TIP3    H162069   1.652   3.948   5.929 -1.0915  0.0200 -1.1251
13526TIP3    H262070   1.775   3.860   5.929 -1.0081  0.1141  0.7778
13527TIP3   OH262071   1.541   5.040   5.621  0.1524 -0.3856 -0.3289
13527TIP3    H162072   1.480   5.047   5.694 -0.1121 -0.3939 -0.5474
13527TIP3    H262073   1.557   4.946   5.612 -3.5967 -1.0047 -3.3348
13528TIP3   OH262074   6.064   3.748  14.973  0.3529  0.5690  0.4768
13528TIP3    H162075   6.009   3.690  14.921 -0.4239  1.3620  0.4030
13528TIP3    H262076   6.143   3.760  14.920  2.0133 -2.9087  1.8086
13529TIP3   OH262077   0.203   0.585  15.423  0.2027 -0.6598  0.1091
13529TIP3    H162078   0.120   0.583  15.472 -0.4136  0.6183 -0.8216
13529TIP3    H262079   0.188   0.524  15.350  0.4843 -1.2263  0.5137
13530TIP3   OH262080   2.671   5.009  15.012 -0.6579  0.1062 -0.3084
13530TIP3    H162081   2.660   5.076  14.945 -1.1796  1.5675  1.1737
13530TIP3    H262082   2.765   5.007  15.028 -0.5322 -0.2368 -1.0493
13531TIP3   OH262083   3.427   3.349   1.109  0.3789  0.3045 -0.9843
13531TIP3    H162084   3.347   3.298   1.119  0.6739  0.0259  0.0548
13531TIP3    H262085   3.402   3.439   1.131  0.5658  0.0430  0.3607
13532TIP3   OH262086   2.826   4.978  12.967 -0.2274  0.0299  0.2157
13532TIP3    H162087   2.749   4.971  12.911 -0.8037  2.0489  0.6621
13532TIP3    H262088   2.801   5.043  13.033  1.5946  0.1549  0.8277
13533TIP3   OH262089   5.156   1.503   5.991 -0.6714  0.0407  0.3688
13533TIP3    H162090   5.135   1.410   5.985 -0.7286  0.1186 -0.8145
13533TIP3    H262091   5.148   1.523   6.084  0.0983 -1.3081  0.7604
13534TIP3   OH262092   1.762   4.962   2.232 -0.1841  0.3360 -0.4166
13534TIP3    H162093   1.797   5.005   2.310 -1.5716 -1.2071  1.1401
13534TIP3    H262094   1.761   4.869   2.254 -1.5721 -0.0395 -1.8715
13535TIP3   OH262095   4.506   1.762  12.979 -0.0040  0.2536  0.2042
13535TIP3    H162096   4.411   1.752  12.988  0.3626 -1.3551  3.9938
13535TIP3    H262097   4.529   1.706  12.905 -1.9088  0.2034 -0.4050
13536TIP3   OH262098   5.620   2.104   0.324 -0.3409  0.2506 -0.1124
13536TIP3    H162099   5.700   2.083   0.276 -1.4948 -1.4824 -1.4502
13536TIP3    H262100   5.573   2.163   0.265 -1.4514 -1.3348 -0.9051
13537TIP3   OH262101   0.483   5.075  11.220 -0.9363  0.2225  0.1368
13537TIP3    H162102   0.528   5.151  11.182  0.2080 -1.0099 -1.1032
13537TIP3    H262103   0.391   5.098  11.219 -0.7433  1.0620 -1.5294
13538TIP3   OH262104   6.556   2.966  16.473  0.3296  0.0761  0.5223
13538TIP3    H162105   6.631   2.933  16.523 -0.4573 -1.4413  0.7842
13538TIP3    H262106   6.526   2.890  16.423  1.5562  1.6745 -2.9611
13539TIP3   OH262107   3.925   5.958   1.939  0.1811  0.0780  1.2817
13539TIP3    H162108   4.011   5.918   1.925 -0.1625  0.0422 -0.9724
13539TIP3    H262109   3.939   6.051   1.922 -0.4749 -0.1145 -0.4943
13540TIP3   OH262110   6.519   3.713  12.240 -0.4217 -0.0619 -0.0933
13540TIP3    H162111   6.525   3.787  12.179 -0.4254  0.2825  0.3197
13540TIP3    H262112   6.558   3.746  12.321 -1.1478 -0.2489  0.3415
13541TIP3   OH262113   2.104   3.389  11.893  0.1438  0.3825  0.1741
13541TIP3    H162114   2.143   3.301  11.890  2.2649  1.2795 -0.1238
13541TIP3    H262115   2.079   3.400  11.985  0.9566 -0.0888  0.4659
13542TIP3   OH262116   4.010   6.329  16.573  1.2213 -0.5967 -0.5215
13542TIP3    H162117   3.935   6.269  16.572  1.4619 -0.8895 -1.0771
13542TIP3    H262118   3.985   6.399  16.512 -0.0755  1.1460  1.8319
13543TIP3   OH262119   4.051   2.005   4.949 -0.0327  0.1035 -0.4148
13543TIP3    H162120   4.050   1.922   4.997 -0.2033 -0.5010 -1.4290
13543TIP3    H262121   4.012   2.068   5.010 -1.3279 -0.8768 -0.1662
13544TIP3   OH262122   2.201   4.256   4.770 -0.2197  0.5440 -0.1292
13544TIP3    H162123   2.134   4.325   4.763  0.1803  0.8770 -0.7791
13544TIP3    H262124   2.223   4.254   4.863 -1.8668 -0.2904  0.2734
13545TIP3   OH262125   0.944   6.721  13.696  0.7187 -0.3962  0.0919
13545TIP3    H162126   0.999   6.642  13.697  2.7351  0.8677 -2.1834
13545TIP3    H262127   0.895   6.714  13.614  0.2048  0.2627  0.3460
13546TIP3   OH262128   5.769   3.491  12.791  0.0333  0.2353  0.6938
13546TIP3    H162129   5.831   3.506  12.862 -0.2111 -1.2883  1.2540
13546TIP3    H262130   5.714   3.570  12.789 -0.9485 -0.3079  3.2046
13547TIP3   OH262131   4.387   6.246  17.121 -0.1870 -0.5424  0.1625
13547TIP3    H162132   4.334   6.172  17.149 -0.1645 -0.7573 -0.3397
13547TIP3    H262133   4.448   6.209  17.057 -0.2988 -0.0648 -0.2354
13548TIP3   OH262134   0.987   0.258   2.569  0.2445 -0.0584  0.5637
13548TIP3    H162135   1.075   0.292   2.551 -0.1480  1.5740  1.5466
13548TIP3    H262136   0.992   0.166   2.544  1.5253  0.5375 -1.6874
13549TIP3   OH262137   6.603   5.030  11.659 -0.5014 -0.0264 -0.0291
13549TIP3    H162138   6.591   4.959  11.596  0.4549  0.4293 -0.7413
13549TIP3    H262139   6.613   5.109  11.605  0.3110  0.3720  0.6894
13550TIP3   OH262140   5.970   5.086  16.859 -0.2950 -0.1277 -0.3775
13550TIP3    H162141   5.877   5.095  16.840 -0.3996 -3.2663 -2.0139
13550TIP3    H262142   5.972   5.044  16.945 -0.6771 -3.4893 -1.8716
13551TIP3   OH262143   2.733   4.807   3.580  0.1154  0.4095 -0.2204
13551TIP3    H162144   2.805   4.840   3.525  0.3452 -0.2316 -0.3146
13551TIP3    H262145   2.723   4.715   3.553 -0.8158  0.5246 -0.2815
13552TIP3   OH262146   3.383   2.548  10.661  0.0178 -0.0491  0.2120
13552TIP3    H162147   3.298   2.584  10.686 -0.0673  0.6245 -0.9437
13552TIP3    H262148   3.369   2.453  10.656 -0.7367  0.0731 -0.1812
13553TIP3   OH262149   6.255   4.624   2.138  0.2118  0.2009  0.1152
13553TIP3    H162150   6.238   4.532   2.159  1.4122  0.3717  2.1554
13553TIP3    H262151   6.169   4.666   2.138 -0.2062 -0.6057  1.0429
13554TIP3   OH262152   4.920   5.856   2.014 -0.2681  0.5075  0.4016
13554TIP3    H162153   4.892   5.802   1.940  0.3338  0.8776 -0.1094
13554TIP3    H262154   4.939   5.793   2.083 -2.8931  0.2571  1.0034
13555TIP3   OH262155   1.352   0.682  12.056  0.0668 -0.0026  0.3298
13555TIP3    H162156   1.361   0.755  11.995  0.8107  0.8729  1.4461
13555TIP3    H262157   1.360   0.604  12.001  0.0984  0.7453 -0.7705
13556TIP3   OH262158   4.835   6.008  13.384  0.1768 -0.4259  0.1363
13556TIP3    H162159   4.799   6.059  13.312  0.8354 -0.3902 -0.1769
13556TIP3    H262160   4.834   6.067  13.459 -1.6972 -0.8554  0.5036
13557TIP3   OH262161   3.226   3.067  16.302 -0.1920  0.1817  0.2980
13557TIP3    H162162   3.230   3.024  16.388  0.8656  1.7913  1.1009
13557TIP3    H262163   3.265   3.005  16.242 -0.7344 -0.8888  1.0204
13558TIP3   OH262164   6.402   1.207   1.242 -0.1543  0.0607  0.3040
13558TIP3    H162165   6.395   1.291   1.196 -0.4763  0.7026  1.4783
13558TIP3    H262166   6.315   1.193   1.280  0.4097  0.1667  1.7107
13559TIP3   OH262167   0.975   4.800   5.707  0.1361 -0.9641 -0.1902
13559TIP3    H162168   1.009   4.843   5.628 -1.9499 -0.2038 -0.7427
13559TIP3    H262169   0.904   4.857   5.737  0.1432 -1.8194  1.6122
13560TIP3   OH262170   6.114   3.853   0.040 -0.1041  0.4994 -0.9384
13560TIP3    H162171   6.086   3.923   0.099  0.0438 -0.4223  0.2738
13560TIP3    H262172   6.113   3.774   0.095  0.4681 -0.3167 -2.0634
13561TIP3   OH262173   1.539   1.102   5.729 -0.4259 -0.0401 -0.6354
13561TIP3    H162174   1.522   1.158   5.653 -0.3058 -0.9666 -1.3614
13561TIP3    H262175   1.457   1.102   5.777 -0.7004  0.0620 -1.0954
13562TIP3   OH262176   4.501   2.573  10.725 -0.6174 -0.2286 -0.2422
13562TIP3    H162177   4.502   2.647  10.664 -0.6430 -0.4272 -0.4856
13562TIP3    H262178   4.409   2.565  10.751 -0.5113  0.2439  0.3042
13563TIP3   OH262179   0.905   4.495   0.348 -0.2587  0.0630  0.1808
13563TIP3    H162180   0.882   4.550   0.273  0.5801 -0.5159 -0.5212
13563TIP3    H262181   0.907   4.556   0.422  1.0273  1.0884 -0.6404
13564TIP3   OH262182   0.323   5.680   2.972  0.4430 -0.3619 -0.1500
13564TIP3    H162183   0.316   5.674   2.877 -2.1774 -0.4487 -0.0222
13564TIP3    H262184   0.250   5.736   2.999  1.5948  0.3293  1.7746
13565TIP3   OH262185   3.229   0.376   5.245 -0.1622  0.2614  0.8779
13565TIP3    H162186   3.283   0.299   5.260  1.3749  1.1609  0.2980
13565TIP3    H262187   3.167   0.377   5.318  0.2624 -1.1028  1.2838
13566TIP3   OH262188   0.845   5.296   5.631  0.0007  0.3354  0.2680
13566TIP3    H162189   0.868   5.365   5.567  0.2748  1.4315  1.5057
13566TIP3    H262190   0.912   5.229   5.619  0.3844  0.7901 -0.1906
13567TIP3   OH262191   3.909   1.252   3.871  0.0941 -0.3225 -0.4445
13567TIP3    H162192   3.989   1.204   3.847  0.5569 -0.7523  1.6869
13567TIP3    H262193   3.850   1.184   3.904 -0.5974  0.1779 -0.6371
13568TIP3   OH262194   4.059   6.792  13.478  0.5103  0.6639  0.0472
13568TIP3    H162195   4.155   6.795  13.488  0.4224  1.0075  0.9161
13568TIP3    H262196   4.043   6.713  13.426  1.2817  0.7604 -0.3647
13569TIP3   OH262197   1.427   2.709  12.906  0.2375  0.2198 -0.5673
13569TIP3    H162198   1.385   2.638  12.858  1.0296 -0.5150 -0.1935
13569TIP3    H262199   1.356   2.769  12.928 -0.3289 -0.1023 -1.4940
13570TIP3   OH262200   2.460   3.872   1.851  0.0486  0.4130  0.3690
13570TIP3    H162201   2.436   3.965   1.853 -0.8488  0.1860  0.4865
13570TIP3    H262202   2.556   3.872   1.849  0.0998  1.3161  1.7935
13571TIP3   OH262203   1.329   1.181  15.315 -0.0325 -0.0670  0.2136
13571TIP3    H162204   1.314   1.275  15.307 -0.0455 -0.0391  0.5638
13571TIP3    H262205   1.241   1.144  15.329 -0.2149 -0.2837 -1.2935
13572TIP3   OH262206   2.539   0.660  12.287 -0.2255  0.1083 -0.0834
13572TIP3    H162207   2.524   0.680  12.195  0.2453 -0.3924 -0.2789
13572TIP3    H262208   2.599   0.728  12.318  0.1785 -0.1225 -0.3440
13573TIP3   OH262209   6.122   4.647   6.333  0.3415  0.3286  0.3218
13573TIP3    H162210   6.052   4.585   6.311 -0.7218  1.3356  0.7489
13573TIP3    H262211   6.077   4.732   6.338  1.5732  0.9655  0.8054
13574TIP3   OH262212   6.556   3.154   0.000  0.7546 -0.2818  0.1555
13574TIP3    H162213   6.562   3.091   0.073  0.5654 -0.2859  0.1671
13574TIP3    H262214   6.644   3.191  -0.006  0.6939 -0.0690  0.5748
13575TIP3   OH262215   3.020   0.826  10.603  0.1733  0.2812 -0.3780
13575TIP3    H162216   3.059   0.856  10.685 -1.3920 -2.1910  1.4316
13575TIP3    H262217   2.995   0.735  10.621 -1.1359 -0.0459 -3.3139
13576TIP3   OH262218   0.098   1.653  16.366  0.2104 -0.5296 -0.2263
13576TIP3    H162219   0.027   1.601  16.327 -0.9518 -0.0104  1.0995
13576TIP3    H262220   0.067   1.672  16.454  1.5576  0.6251  0.0221
13577TIP3   OH262221   5.912   0.635  12.779  0.2503  0.4983  0.5844
13577TIP3    H162222   5.834   0.652  12.832  1.5106  0.2106  2.6459
13577TIP3    H262223   5.906   0.542  12.757 -1.3123  1.0539 -1.6386
13578TIP3   OH262224   1.305   0.215   4.834  0.2655 -0.4421  0.7415
13578TIP3    H162225   1.259   0.139   4.870  0.2875  0.1131  2.0046
13578TIP3    H262226   1.235   0.270   4.797  0.3949 -1.8243 -1.7447
13579TIP3   OH262227   1.424   3.280   3.061  0.1023  0.6889  0.4192
13579TIP3    H162228   1.517   3.279   3.084 -0.1073  1.1164  1.3349
13579TIP3    H262229   1.380   3.245   3.139 -0.5432  1.0132  0.2026
13580TIP3   OH262230   3.849   1.790   4.443 -0.4148 -0.1735 -0.1476
13580TIP3    H162231   3.764   1.834   4.450 -0.0010  1.0981 -2.0265
13580TIP3    H262232   3.842   1.737   4.364  0.5283 -0.0292 -0.3453
13581TIP3   OH262233   4.273   1.412   4.970  0.8533 -0.3925 -0.3582
13581TIP3    H162234   4.288   1.325   4.932  0.7318  0.2909 -2.0319
13581TIP3    H262235   4.202   1.449   4.918  1.3226  0.9638 -0.0747
13582TIP3   OH262236   5.255   0.987   3.472  0.5450 -0.6032 -1.0210
13582TIP3    H162237   5.187   1.012   3.410 -0.5729  1.0010  0.7404
13582TIP3    H262238   5.223   0.905   3.510 -0.1077 -0.1862 -0.6538
13583TIP3   OH262239   3.099   1.546  13.252  0.1686  0.2017 -0.2841
13583TIP3    H162240   3.159   1.577  13.184 -0.9665 -0.3529 -1.6026
13583TIP3    H262241   3.013   1.573  13.221 -0.2807  1.0909  1.6355
13584TIP3   OH262242   3.356   1.058  10.394 -0.0463 -0.0896  0.3803
13584TIP3    H162243   3.275   1.082  10.440  0.0405  0.1520  0.4090
13584TIP3    H262244   3.353   0.963  10.388 -0.4434 -0.0665  0.1840
13585TIP3   OH262245   3.611   2.530  14.848  0.2632 -0.0968  0.4883
13585TIP3    H162246   3.524   2.519  14.811 -0.6103  0.5531  2.2184
13585TIP3    H262247   3.667   2.551  14.773 -0.8718 -1.3717 -0.7687
13586TIP3   OH262248   6.049   6.424   0.355  0.1844  0.3076  0.1253
13586TIP3    H162249   6.034   6.331   0.336 -2.0939  0.3221  1.5804
13586TIP3    H262250   6.049   6.466   0.269 -0.7468 -0.7863 -0.4369
13587TIP3   OH262251   0.195   2.167   5.161  0.9156  0.0878 -0.6063
13587TIP3    H162252   0.133   2.138   5.228  0.5273 -0.5165 -1.2047
13587TIP3    H262253   0.278   2.127   5.185  0.7852 -0.1004 -0.4711
13588TIP3   OH262254   2.128   2.258   2.632  0.2782 -0.1043 -0.0437
13588TIP3    H162255   2.162   2.344   2.608  0.7743 -0.1630  0.4289
13588TIP3    H262256   2.073   2.233   2.558 -0.4146  0.9124  0.1036
13589TIP3   OH262257   0.686   3.541  14.926  0.7815  0.8068  0.1355
13589TIP3    H162258   0.761   3.556  14.869  0.5420  1.4357 -0.0151
13589TIP3    H262259   0.679   3.621  14.978  0.1683  0.7829  0.0936
13590TIP3   OH262260   6.760   0.727  14.415 -0.4804 -0.0624 -0.5580
13590TIP3    H162261   6.852   0.743  14.393  0.0092  0.8305  1.7804
13590TIP3    H262262   6.711   0.784  14.356  0.4304 -0.6541 -1.9424
13591TIP3   OH262263   3.024   3.441   1.150  0.6229  0.1206 -0.8026
13591TIP3    H162264   2.997   3.354   1.180  1.8811 -0.4738 -1.3405
13591TIP3    H262265   3.001   3.442   1.057  1.4739 -0.0122 -1.0232
13592TIP3   OH262266   6.684   5.465   3.554  0.6035  0.4167  0.4754
13592TIP3    H162267   6.651   5.553   3.533  0.0248 -0.1201 -1.0350
13592TIP3    H262268   6.772   5.480   3.588  1.5194  1.4804 -2.0847
13593TIP3   OH262269   0.210   5.163  16.899  0.4464  0.4068 -0.2956
13593TIP3    H162270   0.273   5.219  16.943 -0.0088 -0.2534  1.2764
13593TIP3    H262271   0.125   5.203  16.918  0.3372  1.4458 -2.6275
13594TIP3   OH262272   0.964   2.043  16.303 -0.2104  0.1634  0.1459
13594TIP3    H162273   1.011   2.070  16.382  1.2059 -0.4484 -0.4603
13594TIP3    H262274   0.909   1.971  16.332 -0.5936  0.7087  0.8136
13595TIP3   OH262275   5.145   5.011  11.145  0.0072 -0.7801 -0.1241
13595TIP3    H162276   5.195   4.940  11.184 -0.1110 -1.3322 -0.9412
13595TIP3    H262277   5.140   4.988  11.052 -1.6078 -0.6590 -0.0940
13596TIP3   OH262278   6.384   3.449  16.583  0.2772 -0.6902  0.1154
13596TIP3    H162279   6.419   3.361  16.590 -1.9335 -1.9550 -2.6803
13596TIP3    H262280   6.445   3.495  16.525  0.9496 -0.6350  0.8561
13597TIP3   OH262281   4.597   3.811  13.791 -0.2228 -0.1602  0.9059
13597TIP3    H162282   4.530   3.823  13.725 -0.4346 -1.1839  0.9226
13597TIP3    H262283   4.552   3.824  13.874  0.1672  1.7105  0.8603
13598TIP3   OH262284   0.826   4.234  15.389  0.0802 -0.4397  0.0073
13598TIP3    H162285   0.738   4.253  15.422  0.4040 -0.6841  1.0386
13598TIP3    H262286   0.824   4.264  15.298 -0.1353  2.4300  0.8652
13599TIP3   OH262287   0.644   1.195   2.232  0.3096 -0.7366 -0.3757
13599TIP3    H162288   0.675   1.112   2.268  2.7382  0.0827 -0.3613
13599TIP3    H262289   0.694   1.205   2.150  0.8192  1.1276  0.1184
13600TIP3   OH262290   6.621   4.302   4.730  0.3504 -0.3975 -0.0324
13600TIP3    H162291   6.707   4.261   4.738  1.5188  1.7679 -0.6577
13600TIP3    H262292   6.622   4.373   4.794 -1.4025 -0.9336  0.6635
13601TIP3   OH262293   5.048   0.246   5.243 -0.0002 -0.1573 -0.0997
13601TIP3    H162294   4.986   0.249   5.170 -2.8630  0.9321  2.1596
13601TIP3    H262295   5.130   0.279   5.207 -0.0557 -3.2449 -3.7225
13602TIP3   OH262296   5.738   3.738   6.320  0.0464 -0.3279  0.4250
13602TIP3    H162297   5.777   3.658   6.355  1.3603  0.3871  0.6595
13602TIP3    H262298   5.782   3.809   6.367 -0.5971  0.5570 -0.2707
13603TIP3   OH262299   3.895   1.027   4.381 -0.1281  0.2705 -0.3459
13603TIP3    H162300   3.835   1.005   4.453  2.0220  0.4801  1.6128
13603TIP3    H262301   3.906   1.122   4.388  0.2920  0.2576 -0.7909
13604TIP3   OH262302   4.888   6.045   3.648 -0.2424 -0.1329  0.5105
13604TIP3    H162303   4.852   5.979   3.588  0.2496  0.4516 -0.4663
13604TIP3    H262304   4.814   6.073   3.701 -0.3175 -1.9957  1.4587
13605TIP3   OH262305   2.278   5.118   2.891  0.5893  0.0273  0.4499
13605TIP3    H162306   2.281   5.145   2.800  2.5189 -0.6573  0.2494
13605TIP3    H262307   2.200   5.063   2.898  0.3839  0.1492 -0.7744
13606TIP3   OH262308   5.286   5.361  15.051  0.7168 -0.6533  0.6565
13606TIP3    H162309   5.281   5.303  15.127  0.0300  0.3129  1.3929
13606TIP3    H262310   5.195   5.370  15.022  0.5455  1.2263  1.5444
13607TIP3   OH262311   0.692   5.443  13.760 -0.3917 -0.1580  0.2220
13607TIP3    H162312   0.669   5.373  13.699 -0.0090 -1.2053  1.2542
13607TIP3    H262313   0.670   5.523  13.713 -0.9804 -0.9644 -0.9278
13608TIP3   OH262314   5.545   2.001  10.928  0.2642 -0.3392  0.3462
13608TIP3    H162315   5.559   1.909  10.905 -0.7788 -0.1176 -1.3668
13608TIP3    H262316   5.463   2.024  10.886 -0.6706  0.7937  2.6229
13609TIP3   OH262317   2.853   4.741  11.408 -0.3597  0.8289 -0.0459
13609TIP3    H162318   2.881   4.688  11.333  0.0109 -0.3704  0.9197
13609TIP3    H262319   2.933   4.776  11.445 -0.3438 -0.2408  0.9839
13610TIP3   OH262320   0.743   5.465   2.480  0.5725 -0.0488  0.1871
13610TIP3    H162321   0.703   5.478   2.567  1.6509  1.6304  0.4869
13610TIP3    H262322   0.669   5.443   2.423 -0.3850  0.2818  1.2466
13611TIP3   OH262323   0.411   3.859  15.782  0.3907 -0.1135 -0.6040
13611TIP3    H162324   0.464   3.853  15.862 -1.4613 -0.7841  0.6389
13611TIP3    H262325   0.399   3.768  15.755 -0.6043 -0.0193 -0.5166
13612TIP3   OH262326   6.017   0.225  11.758  0.1147  0.5442  0.1709
13612TIP3    H162327   6.015   0.129  11.764 -0.3790  0.6066  1.1808
13612TIP3    H262328   6.040   0.243  11.666 -2.3164 -0.5321 -0.7259
13613TIP3   OH262329   3.986   5.245  16.964 -0.3858 -0.0827 -0.1215
13613TIP3    H162330   3.953   5.200  16.886 -4.3941  0.9752  0.7533
13613TIP3    H262331   4.056   5.301  16.931 -0.4316 -1.3235 -2.5303
13614TIP3   OH262332   5.460   2.267  14.342  0.2681 -0.1992  0.0242
13614TIP3    H162333   5.417   2.351  14.358  1.2915  0.3295  0.0625
13614TIP3    H262334   5.464   2.261  14.247 -2.5859 -1.6838 -0.1308
13615TIP3   OH262335   6.445   1.379  12.417 -0.2356 -0.0910  0.5823
13615TIP3    H162336   6.478   1.460  12.381  0.0514 -0.1525  0.7000
13615TIP3    H262337   6.385   1.406  12.487 -2.2224  0.0670 -1.0934
13616TIP3   OH262338   2.318   0.232  14.235 -0.7495 -0.3293  0.1924
13616TIP3    H162339   2.281   0.213  14.148 -1.9743  2.7399 -0.0786
13616TIP3    H262340   2.242   0.240  14.292 -0.1419  0.5613  0.9031
13617TIP3   OH262341   1.437   3.779  13.558  0.4682 -0.6743 -0.4665
13617TIP3    H162342   1.413   3.687  13.574  0.7537 -0.6731 -0.0265
13617TIP3    H262343   1.500   3.799  13.626  0.2292 -0.0726 -0.4231
13618TIP3   OH262344   4.246   3.150  13.298  0.3742 -0.2196  0.1485
13618TIP3    H162345   4.249   3.083  13.231  3.2236  1.6763 -1.8970
13618TIP3    H262346   4.296   3.114  13.372 -0.4831 -1.3193  0.2008
13619TIP3   OH262347   6.182   5.964   3.790  0.0057 -0.2772  0.3475
13619TIP3    H162348   6.164   6.046   3.743 -2.6669  0.3766  2.2903
13619TIP3    H262349   6.242   5.990   3.860 -2.4182  0.5937  2.2302
13620TIP3   OH262350   3.812   3.119  14.830  0.4454  0.0727 -0.3108
13620TIP3    H162351   3.729   3.167  14.822  0.9616  1.2934  1.1129
13620TIP3    H262352   3.819   3.100  14.924  1.3986 -0.7234 -0.5334
13621TIP3   OH262353   5.955   1.030   2.710 -0.1000  0.0809  0.2596
13621TIP3    H162354   6.004   1.061   2.786 -0.2447  1.0496 -0.0365
13621TIP3    H262355   5.939   0.937   2.729  0.6855  0.0741  0.9699
13622TIP3   OH262356   0.924   5.248   3.859  0.0814 -0.1159 -0.5028
13622TIP3    H162357   0.876   5.312   3.807 -0.2011  0.0500 -0.0503
13622TIP3    H262358   0.897   5.266   3.949 -1.2311 -1.8943 -0.5019
13623TIP3   OH262359   2.195   0.215   0.809  0.1322  0.1452  0.1098
13623TIP3    H162360   2.131   0.262   0.862 -0.9008 -0.2821 -0.7376
13623TIP3    H262361   2.248   0.167   0.873  0.3404  1.3611  0.8931
13624TIP3   OH262362   3.962   5.675   1.178  0.2337 -0.0117  0.1973
13624TIP3    H162363   4.041   5.651   1.228 -0.5176 -0.0574  1.4047
13624TIP3    H262364   3.988   5.663   1.087  2.3400  2.0977  0.4185
13625TIP3   OH262365   2.775   5.580   3.369 -0.2349  0.2361  0.5677
13625TIP3    H162366   2.799   5.505   3.423  0.4683 -2.7929 -3.4757
13625TIP3    H262367   2.681   5.590   3.383 -0.7806 -2.8378 -0.1685
13626TIP3   OH262368   1.684   1.556  14.115  0.3771  0.6157  0.3906
13626TIP3    H162369   1.646   1.478  14.154  1.8510 -0.1847  0.2799
13626TIP3    H262370   1.610   1.602  14.076 -0.4416 -0.9992 -0.0173
13627TIP3   OH262371   1.040   2.135   2.241 -0.5346  0.2226 -0.6265
13627TIP3    H162372   1.083   2.156   2.324 -4.0369  0.3753  1.3439
13627TIP3    H262373   1.056   2.212   2.186  0.8935  0.6211  0.2680
13628TIP3   OH262374   2.059   0.146   5.730 -0.2004 -0.2942 -0.2260
13628TIP3    H162375   2.118   0.081   5.692 -1.9419 -1.6384 -0.7573
13628TIP3    H262376   1.990   0.157   5.665 -0.5834  1.2060  0.3942
13629TIP3   OH262377   3.545   2.636   4.080  0.1276  1.0799  0.2367
13629TIP3    H162378   3.569   2.634   4.173 -0.6150  1.5690  0.4512
13629TIP3    H262379   3.455   2.603   4.078  0.3409  0.5230 -0.3851
13630TIP3   OH262380   3.385   3.936  14.854  0.3706  0.4521 -0.5086
13630TIP3    H162381   3.372   3.842  14.841  0.2689  0.5396 -1.0581
13630TIP3    H262382   3.298   3.969  14.874  0.5523  0.2931  0.5910
13631TIP3   OH262383   5.537   4.512  12.814 -0.5114  0.0052 -0.2223
13631TIP3    H162384   5.485   4.432  12.809 -0.1506 -0.3091  0.8650
13631TIP3    H262385   5.473   4.581  12.831 -0.7734 -0.0982 -0.7496
13632TIP3   OH262386   2.297   0.208  12.343 -0.4977 -0.3570  0.0819
13632TIP3    H162387   2.324   0.248  12.426  0.4423 -0.1444 -0.3143
13632TIP3    H262388   2.319   0.273  12.277 -1.5783 -0.3716 -0.3205
13633TIP3   OH262389   2.196   6.430   2.810  0.0140  0.2871 -0.1056
13633TIP3    H162390   2.226   6.373   2.738  1.5845  0.0123  0.7118
13633TIP3    H262391   2.192   6.372   2.886 -1.4759  0.6133  0.0911
13634TIP3   OH262392   4.886   5.441   2.442  0.5997  0.0790  0.6682
13634TIP3    H162393   4.807   5.486   2.472  0.1464  0.1358 -0.5232
13634TIP3    H262394   4.948   5.511   2.423  1.2859 -0.0043  2.4590
13635TIP3   OH262395   1.752   3.640   1.506 -0.4979 -0.3386 -0.7234
13635TIP3    H162396   1.679   3.643   1.443 -1.3661  0.0489  0.2800
13635TIP3    H262397   1.828   3.619   1.452 -1.3236 -0.6503 -1.8198
13636TIP3   OH262398   2.859   2.305   4.261  0.0017 -0.1663  0.4752
13636TIP3    H162399   2.799   2.241   4.300 -0.2702 -1.4473 -1.8826
13636TIP3    H262400   2.934   2.252   4.232  0.4469  0.8232 -0.2058
13637TIP3   OH262401   2.150   1.899  12.050 -0.0842 -0.4329 -1.2802
13637TIP3    H162402   2.240   1.884  12.022  0.4865  1.1831 -0.4240
13637TIP3    H262403   2.104   1.926  11.970  0.7005  0.7341 -1.3662
13638TIP3   OH262404   2.326   4.872  15.246 -0.3387 -0.0626  0.6534
13638TIP3    H162405   2.323   4.780  15.219 -1.2999  0.0417  0.3662
13638TIP3    H262406   2.264   4.915  15.188 -0.0258  0.7413  0.9128
13639TIP3   OH262407   1.199   6.548   6.755 -0.4044 -0.0710 -0.1766
13639TIP3    H162408   1.158   6.594   6.829  0.0199 -0.8548  0.5747
13639TIP3    H262409   1.245   6.616   6.706  1.2194  0.1852  1.5768
13640TIP3   OH262410   2.606   0.062  13.859  0.3310 -0.5487 -0.6553
13640TIP3    H162411   2.697   0.043  13.879  0.4130 -1.6533 -1.9275
13640TIP3    H262412   2.594   0.154  13.883  2.3134  0.1889 -2.2411
13641TIP3   OH262413   3.948   4.387   3.700  0.3035 -0.2775 -0.4996
13641TIP3    H162414   3.952   4.421   3.789 -0.2507  0.5073 -0.7525
13641TIP3    H262415   4.002   4.309   3.701  0.4620 -0.1692  0.4754
13642TIP3   OH262416   2.868   3.444  12.834  0.0811  0.2938  0.1455
13642TIP3    H162417   2.962   3.454  12.848  0.1625  0.5968 -0.5810
13642TIP3    H262418   2.842   3.524  12.788 -0.6774  0.5818  1.0298
13643TIP3   OH262419   0.793   0.104   0.071 -0.4463 -0.6314 -0.4688
13643TIP3    H162420   0.721   0.057   0.111 -0.5932 -1.3440 -1.5219
13643TIP3    H262421   0.814   0.054  -0.008  0.1326  0.4524 -1.0336
13644TIP3   OH262422   6.171   5.979   2.008 -0.4898  0.9184  0.0854
13644TIP3    H162423   6.222   5.927   1.946 -1.8344  0.3109 -0.5449
13644TIP3    H262424   6.235   6.008   2.073  0.3449 -1.3825  0.3721
13645TIP3   OH262425   4.729   6.741   0.380  0.3313 -0.2244  0.0793
13645TIP3    H162426   4.750   6.690   0.302 -0.8977 -3.4501  1.6666
13645TIP3    H262427   4.636   6.760   0.373  0.5996  1.1157 -0.0709
13646TIP3   OH262428   5.879   4.236  17.096  0.2145  0.1325 -0.2873
13646TIP3    H162429   5.880   4.140  17.099  3.5133  0.0327  2.6966
13646TIP3    H262430   5.868   4.257  17.003 -0.1188 -3.1325 -1.1111
13647TIP3   OH262431   0.606   0.286   5.320 -0.6176  0.2134  0.0165
13647TIP3    H162432   0.663   0.357   5.352  0.1812 -0.6810  0.6284
13647TIP3    H262433   0.666   0.213   5.303 -1.5050 -0.5211 -0.0092
13648TIP3   OH262434   3.956   2.594   5.910  0.2655  0.5648  0.4121
13648TIP3    H162435   3.933   2.685   5.929  0.7151  0.7146  0.2339
13648TIP3    H262436   3.892   2.542   5.960 -0.3816  0.9790  0.0248
13649TIP3   OH262437   5.981   6.713   3.300 -0.0464  0.7010  0.4856
13649TIP3    H162438   5.904   6.677   3.257  1.2868 -0.4080 -1.0865
13649TIP3    H262439   6.052   6.656   3.273  1.3670  1.7478  1.8175
13650TIP3   OH262440   3.650   2.371  11.713  0.5844 -0.4758  0.3388
13650TIP3    H162441   3.638   2.277  11.704  1.8912 -0.6452  0.2223
13650TIP3    H262442   3.636   2.388  11.806  0.7329 -0.8440  0.4284
13651TIP3   OH262443   4.572   3.118  17.185  0.1481 -0.2171  0.1018
13651TIP3    H162444   4.637   3.111  17.255 -0.6651 -1.0519  0.8043
13651TIP3    H262445   4.562   3.029  17.152 -0.1759  0.0129 -0.4401
13652TIP3   OH262446   3.971   6.404   2.377 -0.0745  0.0247 -0.5904
13652TIP3    H162447   3.965   6.405   2.472  1.4914 -1.0007 -0.4377
13652TIP3    H262448   4.060   6.374   2.359  0.4691  2.4335 -2.3741
13653TIP3   OH262449   0.481   3.915  16.232  0.3070  0.1710  0.4654
13653TIP3    H162450   0.415   3.934  16.165 -1.3591 -0.3674  1.8769
13653TIP3    H262451   0.473   3.987  16.295 -0.7670 -1.1523  1.9463
13654TIP3   OH262452   3.367   5.111   1.535 -0.1620  0.4018  0.0675
13654TIP3    H162453   3.364   5.094   1.629  1.6105  3.2178  0.7797
13654TIP3    H262454   3.460   5.125   1.516 -0.7913  4.2507 -1.0526
13655TIP3   OH262455   4.722   5.604   2.588 -0.8106  0.4244  0.1857
13655TIP3    H162456   4.731   5.699   2.590  1.0919  0.2704  0.4084
13655TIP3    H262457   4.737   5.577   2.679  1.4408 -0.2548 -0.3205
13656TIP3   OH262458   3.208   2.104   3.740 -0.2710  0.2827 -0.1471
13656TIP3    H162459   3.234   2.015   3.765 -2.1371 -0.3432 -0.3094
13656TIP3    H262460   3.214   2.105   3.645 -0.9291  0.0780 -0.1994
13657TIP3   OH262461   3.291   0.748   3.027 -0.7780  0.1745 -0.1437
13657TIP3    H162462   3.322   0.714   2.944 -0.4918 -0.0712  0.0621
13657TIP3    H262463   3.201   0.715   3.035 -0.8183  0.2288 -0.3680
13658TIP3   OH262464   6.630   2.022  16.940 -0.2008  0.5097  0.3891
13658TIP3    H162465   6.612   1.999  16.848  0.3877  0.5197  0.2705
13658TIP3    H262466   6.627   1.938  16.986  0.0080  0.4393  0.2757
13659TIP3   OH262467   5.876   0.248  14.220  0.4704 -0.1115  0.5779
13659TIP3    H162468   5.889   0.293  14.136 -1.0054 -0.3756  0.1839
13659TIP3    H262469   5.937   0.291  14.279  0.4465  1.1378 -0.2629
13660TIP3   OH262470   5.097   4.772   4.152  0.3465  0.6166  0.3121
13660TIP3    H162471   5.043   4.751   4.076  0.6831  0.8825 -0.0028
13660TIP3    H262472   5.060   4.720   4.223 -1.6354  2.2724  0.6120
13661TIP3   OH262473   0.872   0.893  14.652 -0.7292  0.6013  0.0909
13661TIP3    H162474   0.950   0.857  14.693 -1.2611 -0.4542  0.1961
13661TIP3    H262475   0.864   0.846  14.569 -0.9135  1.1403 -0.2073
13662TIP3   OH262476   5.529   2.875  11.370 -0.2178  0.0045 -0.0739
13662TIP3    H162477   5.596   2.929  11.410 -0.1576  1.0221 -1.4867
13662TIP3    H262478   5.490   2.930  11.302 -0.8640 -1.3676 -0.8688
13663TIP3   OH262479   0.879   6.024   2.433 -0.1885  0.4007  0.5179
13663TIP3    H162480   0.968   5.999   2.460  0.2557  2.4821  1.2273
13663TIP3    H262481   0.830   5.942   2.431  2.4517 -1.3759 -3.0122
13664TIP3   OH262482   1.420   3.074   0.066 -0.0651 -0.1070  0.1524
13664TIP3    H162483   1.508   3.111   0.057  0.1122 -0.1115  1.5441
13664TIP3    H262484   1.433   2.980   0.064  0.2486 -0.1596  2.1424
13665TIP3   OH262485   1.090   5.702   3.610  0.3209  0.3745 -0.0136
13665TIP3    H162486   1.084   5.781   3.556  0.9078  1.1493  1.0037
13665TIP3    H262487   1.008   5.700   3.659  0.9712  1.3414  1.2031
13666TIP3   OH262488   0.331   2.232  15.309  0.2631  0.3651  0.2983
13666TIP3    H162489   0.372   2.293  15.371 -0.4590 -2.3808  3.7711
13666TIP3    H262490   0.238   2.254  15.312  0.3422  0.9042 -0.7251
13667TIP3   OH262491   4.113   3.532   1.138  0.0082  0.0304 -0.2015
13667TIP3    H162492   4.202   3.503   1.160  0.0953  0.5734  0.1799
13667TIP3    H262493   4.062   3.452   1.137  0.1343 -0.1090  1.3811
13668TIP3   OH262494   0.554   4.426   0.037 -0.6749  0.5948 -0.8034
13668TIP3    H162495   0.541   4.429  -0.058 -2.2787  0.1385 -0.6331
13668TIP3    H262496   0.465   4.431   0.073 -0.0323  1.9679  0.7173
13669TIP3   OH262497   4.321   4.346   5.113 -0.1033  0.8312  0.2152
13669TIP3    H162498   4.359   4.433   5.098 -0.6460  1.1413  0.5582
13669TIP3    H262499   4.237   4.365   5.156 -0.1373  0.1263  0.4684
13670TIP3   OH262500   6.365   5.583   4.213  0.3767  0.2751  0.4351
13670TIP3    H162501   6.310   5.661   4.218  0.2462  0.3375 -1.3108
13670TIP3    H262502   6.447   5.614   4.175  0.0369 -0.5397 -1.0603
13671TIP3   OH262503   5.460   5.737   6.443  0.1095 -0.3371 -0.9799
13671TIP3    H162504   5.461   5.671   6.373  0.1220 -1.6307  0.2033
13671TIP3    H262505   5.380   5.719   6.492  2.3713 -2.7878  2.3086
13672TIP3   OH262506   0.655   6.464   3.344  0.3172  0.3261 -0.0547
13672TIP3    H162507   0.634   6.552   3.315 -1.9430 -0.1751 -0.1019
13672TIP3    H262508   0.685   6.475   3.434  3.0042  1.3939 -0.9790
13673TIP3   OH262509   4.574   5.388  14.527 -0.3863 -0.1923  0.3955
13673TIP3    H162510   4.515   5.372  14.601 -0.8406 -1.1079 -0.1406
13673TIP3    H262511   4.516   5.417  14.456 -0.1253 -0.5515  0.0295
13674TIP3   OH262512   0.373   6.652  15.831 -0.3282  0.8131 -0.0938
13674TIP3    H162513   0.345   6.680  15.918 -2.3425 -0.6717 -0.1821
13674TIP3    H262514   0.465   6.628  15.841 -0.5978  0.4040  1.7139
13675TIP3   OH262515   6.804   4.880  15.573  0.1899 -0.2103 -0.2029
13675TIP3    H162516   6.899   4.888  15.567  0.1860  0.1527  0.2124
13675TIP3    H262517   6.788   4.831  15.653 -0.0464  1.8559  1.0917
13676TIP3   OH262518   4.236   5.495  16.938 -0.0765  0.5542  0.9440
13676TIP3    H162519   4.271   5.408  16.959 -0.0248  0.0660 -0.9329
13676TIP3    H262520   4.263   5.510  16.847  0.6288  2.9246  1.4852
13677TIP3   OH262521   6.550   2.287  16.932  0.2858 -0.4151 -0.7883
13677TIP3    H162522   6.575   2.198  16.959  2.2911  0.8713  2.1547
13677TIP3    H262523   6.458   2.294  16.957  0.6920 -1.0145  1.0528
13678TIP3   OH262524   3.691   1.809  16.183  0.2846 -0.1226  0.3066
13678TIP3    H162525   3.769   1.843  16.139 -0.3578  0.7694 -0.1675
13678TIP3    H262526   3.643   1.762  16.115 -1.0104  1.7584 -0.1691
13679TIP3   OH262527   6.592   1.827   0.457  0.2010 -0.4050 -0.2860
13679TIP3    H162528   6.632   1.812   0.543 -2.2783 -0.3602  0.9798
13679TIP3    H262529   6.606   1.920   0.439 -0.0992 -0.1874  0.5641
13680TIP3   OH262530   5.265   3.378   3.990  0.3750  0.3996  0.3280
13680TIP3    H162531   5.271   3.288   4.021 -1.0913  0.2239  0.1623
13680TIP3    H262532   5.315   3.378   3.908  0.2148 -0.3204  0.2199
13681TIP3   OH262533   5.082   1.561   3.051  0.0982  0.0839 -0.5602
13681TIP3    H162534   5.130   1.586   3.131 -2.2555 -0.3559  1.0887
13681TIP3    H262535   5.148   1.518   2.996  2.2223  2.0211  0.3039
13682TIP3   OH262536   5.808   2.151   3.087  0.1471  0.6089  0.2289
13682TIP3    H162537   5.899   2.153   3.057 -0.5399 -2.0877 -2.5923
13682TIP3    H262538   5.769   2.231   3.051  0.7595  0.3404 -1.0809
13683TIP3   OH262539   0.458   1.815  16.845  0.1309  0.1624  0.0265
13683TIP3    H162540   0.474   1.740  16.903  2.0402 -0.6256 -1.4224
13683TIP3    H262541   0.544   1.835  16.807 -0.4321  2.7551 -0.0685
13684TIP3   OH262542   4.945   6.716  16.810 -0.0945 -0.5465  0.4021
13684TIP3    H162543   4.909   6.724  16.898 -1.1424  0.0320 -0.0535
13684TIP3    H262544   5.040   6.722  16.822 -0.2185 -0.6718  1.5049
13685TIP3   OH262545   1.380   5.866   5.942 -0.1810  0.3518  0.3637
13685TIP3    H162546   1.382   5.956   5.975  0.8028  0.8665 -1.0020
13685TIP3    H262547   1.472   5.837   5.945  0.2043  0.8392 -2.8152
13686TIP3   OH262548   2.419   3.897  12.619  0.3390 -0.3488 -0.1656
13686TIP3    H162549   2.460   3.847  12.689 -0.9243 -0.5945  0.4121
13686TIP3    H262550   2.412   3.836  12.546 -0.3929 -0.7727  0.2480
13687TIP3   OH262551   5.961   3.588   1.045 -0.5110 -0.3394  0.9759
13687TIP3    H162552   6.009   3.584   1.128 -0.0326 -1.3459  0.6650
13687TIP3    H262553   5.963   3.499   1.011 -1.5268 -0.1401  0.3343
13688TIP3   OH262554   0.609   0.836  10.483  0.0645 -0.6004 -0.0422
13688TIP3    H162555   0.590   0.806  10.572  0.5827  0.3742  0.4136
13688TIP3    H262556   0.527   0.827  10.435 -0.3130 -0.7671  0.6365
13689TIP3   OH262557   1.515   1.230  16.533  0.1040  0.4290  0.1688
13689TIP3    H162558   1.593   1.205  16.483  0.8880  0.9860  1.0673
13689TIP3    H262559   1.512   1.326  16.525  0.7123  0.6146  1.8097
13690TIP3   OH262560   1.794   1.520  15.859  0.2045  0.2169 -0.4252
13690TIP3    H162561   1.699   1.529  15.870 -0.0909 -2.2993 -0.3169
13690TIP3    H262562   1.804   1.466  15.781  1.5739  0.7561 -0.6412
13691TIP3   OH262563   2.338   0.015   3.991 -0.1443 -0.1569 -0.0388
13691TIP3    H162564   2.255   0.039   4.033  0.1691  0.1193  0.4298
13691TIP3    H262565   2.378  -0.048   4.050 -1.0251 -2.0143 -1.3309
13692TIP3   OH262566   2.919   4.333   0.928 -0.0490 -0.0212 -0.1413
13692TIP3    H162567   2.883   4.264   0.984  0.7249 -0.3444 -0.0281
13692TIP3    H262568   2.987   4.375   0.982 -1.8548  2.2083  0.5571
13693TIP3   OH262569   6.253   4.621  16.097  0.0655 -0.2721  0.4505
13693TIP3    H162570   6.264   4.690  16.162 -0.5639  0.4873 -0.2370
13693TIP3    H262571   6.335   4.619  16.048  0.6053 -0.9547  1.3444
13694TIP3   OH262572   0.179   3.396   2.100  0.9092 -0.1543  0.2741
13694TIP3    H162573   0.180   3.451   2.021  1.0201 -1.4470 -0.6449
13694TIP3    H262574   0.200   3.308   2.069 -1.2870 -1.1549  1.3908
13695TIP3   OH262575   5.139   6.482   4.865  0.2795 -0.3986  0.2563
13695TIP3    H162576   5.178   6.491   4.778 -0.4418  0.8363  0.0330
13695TIP3    H262577   5.195   6.534   4.922 -0.6535  0.9297  0.0308
13696TIP3   OH262578   6.639   3.010   2.267  0.0909  0.7116  0.2382
13696TIP3    H162579   6.663   2.934   2.213 -3.0357  1.6281 -2.8540
13696TIP3    H262580   6.692   3.082   2.233 -0.0146  0.7519  0.1562
13697TIP3   OH262581   5.266   3.092   0.469  0.2897  0.1601  0.0701
13697TIP3    H162582   5.305   3.041   0.398 -1.0542 -2.4924  1.1229
13697TIP3    H262583   5.171   3.081   0.457  0.0095  0.7505  1.5243
13698TIP3   OH262584   2.800   4.613  11.128 -0.5371  0.5719 -0.1390
13698TIP3    H162585   2.827   4.570  11.047 -2.0321  1.3860 -1.1115
13698TIP3    H262586   2.804   4.706  11.108 -1.6751  0.7641  0.4674
13699TIP3   OH262587   5.310   4.058   5.567  0.0676 -0.1772 -0.3587
13699TIP3    H162588   5.232   4.051   5.512 -1.1872  1.4706  1.0533
13699TIP3    H262589   5.377   4.007   5.522 -1.3747 -0.3445 -2.4503
13700TIP3   OH262590   0.929   4.013   5.366  0.5252  0.3018 -0.5011
13700TIP3    H162591   0.840   3.983   5.383  0.7665 -0.6932 -0.9421
13700TIP3    H262592   0.919   4.106   5.344 -0.2485  0.5410  0.7311
13701TIP3   OH262593   2.189   5.523   6.067  0.1146 -0.6025 -0.2774
13701TIP3    H162594   2.212   5.605   6.023 -0.1080 -0.7833 -0.7424
13701TIP3    H262595   2.214   5.455   6.004 -0.4175 -0.8540 -0.2238
13702TIP3   OH262596   6.200   6.627  12.476  0.4834 -0.4158 -0.0943
13702TIP3    H162597   6.196   6.549  12.421  0.5611 -0.0643 -0.6096
13702TIP3    H262598   6.109   6.652  12.489  0.4743 -0.3441 -0.2920
13703TIP3   OH262599   0.428   4.369   4.560 -0.1983  0.1653  0.1466
13703TIP3    H162600   0.462   4.291   4.603 -0.4933 -0.1518 -0.1871
13703TIP3    H262601   0.387   4.420   4.630  0.9324  0.5504  0.5569
13704TIP3   OH262602   2.727   4.436   4.287  0.3047 -0.2151  0.1139
13704TIP3    H162603   2.804   4.425   4.343  0.2772 -0.4114  0.1151
13704TIP3    H262604   2.762   4.471   4.205  0.3073  0.3425  0.3535
13705TIP3   OH262605   5.528   4.554   4.112  0.1325  0.5350 -0.2075
13705TIP3    H162606   5.461   4.601   4.062 -0.3503  1.1570  0.9753
13705TIP3    H262607   5.486   4.534   4.195  0.7572 -0.9128 -0.2093
13706TIP3   OH262608   1.701   2.128  13.360  0.0804  0.4073  0.0236
13706TIP3    H162609   1.716   2.210  13.312 -1.3496  2.1849  2.4264
13706TIP3    H262610   1.786   2.107  13.399  0.4938  0.5983 -0.7385
13707TIP3   OH262611   6.659   3.636  13.890 -0.0729 -0.3415  0.3394
13707TIP3    H162612   6.589   3.589  13.845 -0.3914  1.5694 -1.2506
13707TIP3    H262613   6.663   3.721  13.847  2.6489 -0.0649  0.9833
13708TIP3   OH262614   4.064   1.644  14.070 -0.3236  0.2485  0.2709
13708TIP3    H162615   4.069   1.551  14.047 -1.9811  0.0740  0.4827
13708TIP3    H262616   4.121   1.652  14.147  0.6976 -0.3500 -0.3989
13709TIP3   OH262617   4.570   2.204  13.588  0.0914 -0.0868 -0.5921
13709TIP3    H162618   4.565   2.108  13.592 -0.2864 -0.1247 -1.6079
13709TIP3    H262619   4.479   2.232  13.596  0.0997  0.1367 -1.2560
13710TIP3   OH262620   0.365   5.099   4.744  0.7800  0.2352 -0.3371
13710TIP3    H162621   0.423   5.039   4.698 -1.2464 -1.5668 -0.7372
13710TIP3    H262622   0.332   5.158   4.677 -0.8405 -1.3012 -0.9997
13711TIP3   OH262623   1.276   4.851   2.008  0.0480  0.0868  0.1243
13711TIP3    H162624   1.292   4.831   2.100  1.6533 -0.8487 -0.3258
13711TIP3    H262625   1.336   4.923   1.988  0.6086 -0.5534 -0.5108
13712TIP3   OH262626   5.220   5.593   4.573 -0.1186  0.0469 -0.2596
13712TIP3    H162627   5.289   5.632   4.626 -1.5870  1.3271  0.7907
13712TIP3    H262628   5.203   5.508   4.614  1.2237 -0.5705 -0.9157
13713TIP3   OH262629   5.226   5.179   1.729 -0.2405  0.1074  0.4196
13713TIP3    H162630   5.250   5.266   1.697 -2.8419 -0.2066 -2.7746
13713TIP3    H262631   5.269   5.118   1.669 -1.0915 -0.7191  0.6221
13714TIP3   OH262632   1.439   4.030   1.088  0.2354  0.0136 -0.4615
13714TIP3    H162633   1.404   4.070   1.168 -0.2004 -1.0613 -0.1004
13714TIP3    H262634   1.511   4.088   1.062 -1.5221  2.0680 -1.0146
13715TIP3   OH262635   2.081   0.985   3.592 -0.1905  0.2879  0.0533
13715TIP3    H162636   2.028   1.004   3.516 -0.6183  1.0230  0.5223
13715TIP3    H262637   2.157   0.937   3.558 -0.4776  0.4299 -0.7910
13716TIP3   OH262638   5.850   3.115  17.175  0.0903 -0.0298 -0.0835
13716TIP3    H162639   5.843   3.092  17.082  0.7992 -1.2296  0.1351
13716TIP3    H262640   5.874   3.033  17.218 -1.2497  0.2700  1.3140
13717TIP3   OH262641   2.302   2.241  15.689 -0.1796  0.3953 -0.2649
13717TIP3    H162642   2.212   2.225  15.661 -0.3323  1.7344 -0.6054
13717TIP3    H262643   2.295   2.267  15.781  0.0389 -1.1026  0.2008
13718TIP3   OH262644   2.046   3.674   1.952  0.1801  1.0701 -0.0434
13718TIP3    H162645   2.101   3.620   2.008 -1.9863 -0.8191  0.4241
13718TIP3    H262646   2.070   3.651   1.863 -1.2731 -1.4623  0.1249
13719TIP3   OH262647   2.540   3.102  11.686  0.2408  0.5199 -0.8277
13719TIP3    H162648   2.618   3.055  11.714 -0.1125 -0.2043 -1.0495
13719TIP3    H262649   2.537   3.179  11.743 -0.3344 -0.7997  0.9809
13720TIP3   OH262650   1.805   0.302  14.584  0.1696 -0.2895 -0.4079
13720TIP3    H162651   1.740   0.319  14.653  0.2202 -0.1391 -0.3961
13720TIP3    H262652   1.886   0.338  14.619  0.8249 -2.5722  0.6205
13721TIP3   OH262653   2.383   2.843   0.038  0.3184 -0.5746 -0.0674
13721TIP3    H162654   2.354   2.878  -0.046 -0.1857 -0.4668  0.1493
13721TIP3    H262655   2.389   2.919   0.095  0.8209 -0.6247 -0.0449
13722TIP3   OH262656   6.203   6.770   5.157  0.3099  0.5497 -0.2352
13722TIP3    H162657   6.171   6.857   5.133 -2.0075  0.1367  1.1310
13722TIP3    H262658   6.284   6.787   5.206  0.9440  1.7638 -1.6074
13723TIP3   OH262659   0.721   2.943   0.084 -0.1291 -0.1330 -0.0063
13723TIP3    H162660   0.715   2.938  -0.011 -0.4375  1.2300 -0.0713
13723TIP3    H262661   0.780   3.015   0.101 -3.3585  2.5969  0.7906
13724TIP3   OH262662   2.254   3.338   0.004  0.2236  0.4100  0.0733
13724TIP3    H162663   2.298   3.296  -0.071  0.5388 -1.1269  1.0657
13724TIP3    H262664   2.195   3.402  -0.036  0.0427 -0.6887 -1.5286
13725TIP3   OH262665   4.863   3.924   3.322  0.3036 -0.1136  0.6503
13725TIP3    H162666   4.772   3.935   3.349  0.8691  2.8301  1.6989
13725TIP3    H262667   4.873   3.984   3.248  1.1578 -1.2296 -0.1725
13726TIP3   OH262668   2.055   0.602  11.125 -0.2178 -0.1442  0.2480
13726TIP3    H162669   1.983   0.656  11.157 -0.4344 -1.9563  3.2567
13726TIP3    H262670   2.015   0.543  11.061 -0.5829  1.2364 -0.8342
13727TIP3   OH262671   3.388   6.602   5.078  0.4408  0.5956 -0.3870
13727TIP3    H162672   3.364   6.569   5.165 -0.5864  1.1252 -0.4559
13727TIP3    H262673   3.479   6.574   5.066  0.1526 -0.6935  0.2726
13728TIP3   OH262674   0.734   6.475  14.271  0.5552  1.2605  0.3429
13728TIP3    H162675   0.721   6.531  14.195  1.7379  0.2030 -0.6844
13728TIP3    H262676   0.648   6.469  14.312  0.1494  2.7676 -0.2502
13729TIP3   OH262677   5.616   1.577   0.185  0.0224  0.1361 -0.1414
13729TIP3    H162678   5.587   1.587   0.276 -0.2448 -0.7163 -0.1211
13729TIP3    H262679   5.540   1.602   0.133 -0.7098 -1.8059 -0.0898
13730TIP3   OH262680   3.962   1.839   1.604 -0.1755  0.0097 -0.4477
13730TIP3    H162681   3.899   1.797   1.546 -0.6158  0.2616 -0.1545
13730TIP3    H262682   4.041   1.849   1.550  0.2804 -2.0689 -0.2402
13731TIP3   OH262683   2.950   1.820   2.558  0.3989 -0.0139 -0.1103
13731TIP3    H162684   2.865   1.856   2.582  0.4258 -0.0972  0.1191
13731TIP3    H262685   2.931   1.757   2.489  0.5631  1.7940 -1.8871
13732TIP3   OH262686   4.949   0.729  12.126 -0.2602 -0.1468 -0.7937
13732TIP3    H162687   5.039   0.724  12.158 -0.7555 -3.0062  0.4703
13732TIP3    H262688   4.901   0.772  12.196 -0.6810 -3.1707  0.9466
13733TIP3   OH262689   2.544   4.035  12.017 -0.9842  0.1140  0.4765
13733TIP3    H162690   2.484   4.046  11.943 -2.5011  0.3853  1.6809
13733TIP3    H262691   2.512   3.956  12.062  1.2515 -1.3446 -0.3238
13734TIP3   OH262692   5.091   5.640   3.562 -0.2378 -0.2797  0.3732
13734TIP3    H162693   5.077   5.709   3.627 -0.2152  0.0316  0.0499
13734TIP3    H262694   5.126   5.686   3.486 -0.5435 -0.6041  0.0380
13735TIP3   OH262695   2.093   5.041   3.316  0.5376  0.3629  1.0749
13735TIP3    H162696   2.143   5.096   3.255  0.6043 -1.4165 -0.6002
13735TIP3    H262697   2.136   4.956   3.312 -1.4750 -0.7220  1.0143
13736TIP3   OH262698   3.986   2.401   0.146 -0.0671  0.0113  0.2424
13736TIP3    H162699   3.935   2.449   0.212 -0.6236  0.8944 -0.7994
13736TIP3    H262700   3.939   2.416   0.064  0.2788 -1.5532 -0.2848
13737TIP3   OH262701   3.102   2.234  13.909 -0.4138  0.3077 -0.1035
13737TIP3    H162702   3.081   2.289  13.985  0.2082  0.6097 -0.1466
13737TIP3    H262703   3.178   2.183  13.936  0.3287  1.0183 -0.8033
13738TIP3   OH262704   0.749   1.254  13.475 -0.6058 -0.4042  0.2294
13738TIP3    H162705   0.759   1.248  13.571  1.0061  0.7757  0.1734
13738TIP3    H262706   0.811   1.189  13.442  0.4903  0.7404 -0.0223
13739TIP3   OH262707   1.587   6.593  11.244 -0.5452  0.1370 -0.3407
13739TIP3    H162708   1.506   6.551  11.273  0.0557 -0.6956  0.1627
13739TIP3    H262709   1.652   6.568  11.309  0.8123 -1.6622 -2.2649
13740TIP3   OH262710   6.660   3.086  14.534 -0.0083 -0.5276 -0.5209
13740TIP3    H162711   6.616   3.170  14.523 -0.7604 -0.7411  0.6423
13740TIP3    H262712   6.749   3.101  14.501 -0.5096  0.3370 -1.5222
13741TIP3   OH262713   1.199   4.104  12.152 -0.2058  0.0528  0.1408
13741TIP3    H162714   1.184   4.122  12.245  1.1881 -2.0543  0.8315
13741TIP3    H262715   1.116   4.068  12.121 -1.0636  1.8190  0.2097
13742TIP3   OH262716   2.285   2.290  15.964 -0.0748 -0.1489 -0.3811
13742TIP3    H162717   2.221   2.347  16.007  0.4393  1.2567 -1.3931
13742TIP3    H262718   2.358   2.286  16.026 -0.6229 -0.7888  0.2522
13743TIP3   OH262719   2.060   2.863  12.408 -0.5458 -0.1381  0.5257
13743TIP3    H162720   2.155   2.856  12.414 -0.3633  1.8841  0.8468
13743TIP3    H262721   2.031   2.875  12.499 -1.1179 -0.6961  0.4264
13744TIP3   OH262722   6.586   4.511  16.803  0.4166 -0.3881 -0.1150
13744TIP3    H162723   6.595   4.435  16.745 -2.8328 -1.2293  0.2927
13744TIP3    H262724   6.574   4.585  16.743  2.0069 -0.4005 -0.4926
13745TIP3   OH262725   5.368   2.539   1.974  0.2233  0.0827 -0.2070
13745TIP3    H162726   5.316   2.481   1.919 -0.3903 -0.4914  0.9606
13745TIP3    H262727   5.373   2.621   1.923 -0.7705 -0.2495 -0.8789
13746TIP3   OH262728   1.656   4.773  13.448 -0.2685  0.2660 -0.4314
13746TIP3    H162729   1.713   4.837  13.405  1.3044  0.8525  2.3047
13746TIP3    H262730   1.700   4.689  13.434  1.0977  0.6507  1.2146
13747TIP3   OH262731   1.367   6.216  12.846  0.7605 -0.4619 -0.2185
13747TIP3    H162732   1.372   6.300  12.892 -0.8153 -0.9644  0.9681
13747TIP3    H262733   1.375   6.239  12.754  2.7774  0.7149  0.1858
13748TIP3   OH262734   5.757   3.284   5.854 -0.1433  0.2566 -0.2038
13748TIP3    H162735   5.840   3.305   5.811 -0.7151  0.1577 -1.3960
13748TIP3    H262736   5.755   3.340   5.932  0.9832  0.3357 -0.2146
13749TIP3   OH262737   4.271   1.974   0.845  0.0448  0.2498  0.4973
13749TIP3    H162738   4.289   1.962   0.938  0.4509 -0.3740  0.3476
13749TIP3    H262739   4.288   1.888   0.806 -0.7060  0.3410 -0.0619
13750TIP3   OH262740   2.120   0.921   5.610  0.1594  0.2119 -0.1651
13750TIP3    H162741   2.133   0.973   5.690 -1.0881 -0.4314  0.4731
13750TIP3    H262742   2.026   0.908   5.605  0.3785 -1.2672 -0.7786
13751TIP3   OH262743   5.302   3.609   1.310 -0.2334 -0.1889  0.6220
13751TIP3    H162744   5.369   3.619   1.378 -0.2723  2.1647  0.4123
13751TIP3    H262745   5.342   3.649   1.232 -1.0956 -0.6752 -0.0867
13752TIP3   OH262746   4.052   0.274   5.716  0.0784  0.0343 -0.5385
13752TIP3    H162747   4.131   0.273   5.662  1.0608 -0.8777  0.8334
13752TIP3    H262748   3.989   0.221   5.668  0.0150  1.3922 -2.0132
13753TIP3   OH262749   3.222   1.177   4.955 -0.0253  0.0971  0.1517
13753TIP3    H162750   3.224   1.260   4.908 -0.7203  0.4531  0.7345
13753TIP3    H262751   3.133   1.144   4.944 -0.4667  0.5849  1.8622
13754TIP3   OH262752   3.139   0.549  14.716  0.6161 -0.3011 -0.0804
13754TIP3    H162753   3.112   0.581  14.802  1.2618  1.2541 -0.4243
13754TIP3    H262754   3.058   0.520  14.675 -0.1734  1.6713 -0.0368
13755TIP3   OH262755   1.453   3.343  11.201 -0.3708 -0.3087 -0.6595
13755TIP3    H162756   1.450   3.374  11.110 -1.5339 -0.8607 -0.8323
13755TIP3    H262757   1.532   3.383  11.237 -0.4982  0.8451 -1.5769
13756TIP3   OH262758   3.096   4.795  13.493  0.2165  0.3622 -0.3006
13756TIP3    H162759   3.072   4.739  13.418  0.1090 -0.3920  0.2819
13756TIP3    H262760   3.076   4.884  13.464 -0.3262  0.0287 -0.9833
13757TIP3   OH262761   4.993   6.131   0.180  0.5055 -0.7962  0.1580
13757TIP3    H162762   5.031   6.183   0.251  1.4881  0.2781 -1.1161
13757TIP3    H262763   4.919   6.183   0.149 -1.4071 -2.3331  1.8410
13758TIP3   OH262764   0.765   3.784   6.491 -0.6790  0.2665 -0.7257
13758TIP3    H162765   0.814   3.866   6.503 -0.7574  0.0776  1.4141
13758TIP3    H262766   0.677   3.805   6.521 -0.5070 -0.7650  0.5991
13759TIP3   OH262767   3.023   5.040  16.655  1.0626  0.3372  0.1639
13759TIP3    H162768   3.057   5.066  16.569  0.9157  1.4781  0.4440
13759TIP3    H262769   2.930   5.058  16.651  0.5568 -2.0624 -0.3240
13760TIP3   OH262770   5.552   6.348  11.591  0.8559 -0.4629 -0.3457
13760TIP3    H162771   5.564   6.414  11.523 -0.7046  0.4167  0.1892
13760TIP3    H262772   5.575   6.392  11.672  0.9538 -0.9677 -0.0913
13761TIP3   OH262773   0.006   2.795   4.868 -0.1400  0.1747  0.7220
13761TIP3    H162774   0.011   2.862   4.937 -0.8633  0.2808  0.6831
13761TIP3    H262775  -0.028   2.842   4.792  1.0603  0.1518  0.1534
13762TIP3   OH262776   3.533   3.246  14.315  0.0283  0.4248 -0.0153
13762TIP3    H162777   3.593   3.175  14.291 -1.6673 -0.8565 -0.6626
13762TIP3    H262778   3.513   3.290  14.232  0.3753  1.1080  0.2562
13763TIP3   OH262779   5.269   6.101   3.542 -0.1000 -0.6965 -0.1580
13763TIP3    H162780   5.357   6.092   3.578 -1.1356 -1.7179  2.4404
13763TIP3    H262781   5.236   6.011   3.538 -0.0498 -0.7035 -4.1391
13764TIP3   OH262782   0.048   3.660   3.104 -0.3970  0.0183  0.4191
13764TIP3    H162783   0.063   3.574   3.144 -0.1861  0.6703  1.8238
13764TIP3    H262784  -0.045   3.676   3.116 -0.6475 -0.4163 -0.7528
13765TIP3   OH262785   4.950   1.573  16.419 -0.0359  0.4763 -0.2643
13765TIP3    H162786   4.958   1.511  16.492  1.4504  0.7048 -0.1980
13765TIP3    H262787   4.934   1.657  16.461  1.1109  0.6589 -0.1590
13766TIP3   OH262788   2.403   0.745   3.895 -0.0957  0.3053 -0.4493
13766TIP3    H162789   2.484   0.794   3.889 -0.3809  1.3211  2.4955
13766TIP3    H262790   2.430   0.657   3.922  0.0157  0.9555  1.6739
13767TIP3   OH262791   0.549   6.219   4.870 -0.2423 -0.1544  0.3702
13767TIP3    H162792   0.577   6.177   4.789 -0.4451 -1.6200  1.0227
13767TIP3    H262793   0.552   6.313   4.851  1.1943 -0.4072 -0.8380
13768TIP3   OH262794   6.708   0.861  11.542 -0.3103 -0.8237 -0.1643
13768TIP3    H162795   6.694   0.767  11.550  0.0254 -0.8669 -0.0955
13768TIP3    H262796   6.789   0.870  11.492  1.2868 -0.6004  2.3123
13769TIP3   OH262797   2.103   2.061  11.728  0.4404  0.4908  0.3306
13769TIP3    H162798   2.042   2.064  11.655  1.3423  1.3712 -0.4210
13769TIP3    H262799   2.152   1.980  11.716 -0.5831 -0.2394  0.9609
13770TIP3   OH262800   5.886   4.622   3.627 -0.3554  0.1366  0.5146
13770TIP3    H162801   5.881   4.713   3.656 -0.6117  0.3425 -0.1682
13770TIP3    H262802   5.807   4.608   3.575 -1.4401 -1.1173  2.3674
13771TIP3   OH262803   4.880   0.076  10.522  0.3974  0.3414  0.8965
13771TIP3    H162804   4.924   0.148  10.478  1.0349 -0.0912  0.8095
13771TIP3    H262805   4.950   0.014  10.543 -0.1547 -0.3430  0.7857
13772TIP3   OH262806   3.625   1.430   3.894 -0.2552  0.6632  0.1172
13772TIP3    H162807   3.551   1.405   3.840  1.2048 -0.4250 -1.5007
13772TIP3    H262808   3.647   1.351   3.943  0.6005  0.5522 -0.4065
13773TIP3   OH262809   1.408   6.437   2.716 -0.4633  0.6481  0.3240
13773TIP3    H162810   1.488   6.396   2.683 -1.9472 -1.1213 -1.2986
13773TIP3    H262811   1.431   6.467   2.804  1.7421 -0.5196  0.2140
13774TIP3   OH262812   1.367   0.476  14.444 -0.4147  0.6650  0.1471
13774TIP3    H162813   1.273   0.481  14.465 -0.6929  2.6097 -1.3016
13774TIP3    H262814   1.373   0.408  14.377 -0.8396  0.7466  0.0234
13775TIP3   OH262815   0.919   3.414   5.921  0.1872 -0.1649  0.6424
13775TIP3    H162816   0.844   3.447   5.872 -0.5742  0.3020  2.0662
13775TIP3    H262817   0.904   3.443   6.011  1.3739 -1.2634  1.2315
13776TIP3   OH262818   3.768   0.547  14.791 -0.0474 -1.0468  0.2546
13776TIP3    H162819   3.762   0.619  14.853  3.4401  0.3749 -0.7990
13776TIP3    H262820   3.689   0.555  14.737 -0.0485  1.7231  0.5113
13777TIP3   OH262821   2.895   4.087  12.865 -0.0126 -0.3078 -0.0215
13777TIP3    H162822   2.966   4.149  12.877  1.9828 -2.7631  2.0399
13777TIP3    H262823   2.919   4.038  12.786 -0.8960  0.6135 -0.8873
13778TIP3   OH262824   0.829   3.187  17.176 -0.1166  0.1831  0.2886
13778TIP3    H162825   0.860   3.167  17.264 -0.3692  1.1447  0.6127
13778TIP3    H262826   0.907   3.212  17.127 -0.0797  0.4173  0.4667
13779TIP3   OH262827   1.488   1.079   5.193  0.4754 -0.0620 -0.1027
13779TIP3    H162828   1.410   1.134   5.206  0.0974 -1.0111  1.9477
13779TIP3    H262829   1.544   1.098   5.268  1.4606 -0.7012 -0.6473
13780TIP3   OH262830   2.512   1.044  14.355  0.0298 -0.3347 -0.5681
13780TIP3    H162831   2.474   1.119  14.310 -1.1541 -1.4356 -1.4757
13780TIP3    H262832   2.513   0.974  14.290  1.6933 -0.9559  0.0686
13781TIP3   OH262833   3.796   5.546   3.567 -0.5761 -0.0651 -0.5103
13781TIP3    H162834   3.881   5.539   3.611 -0.2598  1.7224 -0.7668
13781TIP3    H262835   3.732   5.547   3.639 -0.5352 -2.3695 -0.3384
13782TIP3   OH262836   4.383   2.308   2.493 -0.0767  0.0437 -0.1553
13782TIP3    H162837   4.343   2.379   2.443  1.8514  0.8635 -0.5946
13782TIP3    H262838   4.470   2.341   2.517 -0.4310 -0.7982  2.6693
13783TIP3   OH262839   5.215   4.157  13.174 -0.1181 -0.4319  0.0930
13783TIP3    H162840   5.255   4.114  13.250 -0.9388 -0.8061  0.3227
13783TIP3    H262841   5.187   4.242  13.207  1.8265  0.4769 -0.4505
13784TIP3   OH262842   1.490   6.651   5.390  0.3901 -0.2077 -0.4428
13784TIP3    H162843   1.507   6.631   5.482 -0.4906 -0.2587 -0.2849
13784TIP3    H262844   1.565   6.614   5.343  0.2569 -1.2513  0.1393
13785TIP3   OH262845   3.393   5.399   3.484 -0.0544 -0.1953  0.4268
13785TIP3    H162846   3.447   5.477   3.470 -1.1654  0.1140 -3.0476
13785TIP3    H262847   3.407   5.377   3.576  1.3163  3.3275  1.2435
13786TIP3   OH262848   6.577   6.582   2.999 -0.3704 -0.0578  0.3077
13786TIP3    H162849   6.488   6.547   2.998  0.0419 -1.1661 -0.9036
13786TIP3    H262850   6.629   6.515   3.044 -0.0210  0.2295  0.3401
13787TIP3   OH262851   2.721   2.668  12.536  0.0429  0.0835  0.3536
13787TIP3    H162852   2.716   2.733  12.466 -3.2698 -0.6410 -0.2587
13787TIP3    H262853   2.777   2.708  12.602 -1.4009  3.3702 -0.2168
13788TIP3   OH262854   5.290   3.604   3.750  0.0608 -0.2172 -0.0919
13788TIP3    H162855   5.247   3.633   3.830  0.0219  0.6922 -0.4255
13788TIP3    H262856   5.272   3.674   3.686  2.5556  0.5672 -0.0610
13789TIP3   OH262857   3.563   6.152  13.900  0.1266 -0.0892 -0.1853
13789TIP3    H162858   3.557   6.165  13.995 -1.1301  2.4529 -0.5081
13789TIP3    H262859   3.495   6.088  13.880 -0.4923  0.3178  0.5342
13790TIP3   OH262860   0.608   6.804  15.704  0.2576 -0.4168  0.0162
13790TIP3    H162861   0.686   6.846  15.669 -0.0200  0.1868  0.1221
13790TIP3    H262862   0.640   6.720  15.738  0.9559  0.0608  0.5525
13791TIP3   OH262863   0.668   2.591  16.455 -0.1200  0.3924  0.3260
13791TIP3    H162864   0.589   2.645  16.447 -0.9138 -0.6413  0.8671
13791TIP3    H262865   0.675   2.547  16.371  0.1642  0.8538  0.1054
13792TIP3   OH262866   2.903   3.850  15.205 -0.1756 -0.1298 -0.2929
13792TIP3    H162867   2.815   3.819  15.225 -0.7907  1.5104 -0.3115
13792TIP3    H262868   2.946   3.856  15.291 -0.5109  0.3115 -0.1574
13793TIP3   OH262869   4.654   2.627  15.402 -0.4661 -0.3911 -0.4409
13793TIP3    H162870   4.590   2.601  15.469  0.1949  1.3778  0.9439
13793TIP3    H262871   4.634   2.719  15.384  2.3137  0.5553  0.8491
13794TIP3   OH262872   0.360   5.103  15.226 -0.3532  0.1788  0.2563
13794TIP3    H162873   0.354   5.149  15.142  1.0843  1.1439  0.6399
13794TIP3    H262874   0.388   5.171  15.288  2.5544 -1.2958  0.7139
13795TIP3   OH262875   2.389   6.510   0.086 -0.2519 -0.2450 -0.1496
13795TIP3    H162876   2.308   6.561   0.080  0.3781  0.9022  0.5360
13795TIP3    H262877   2.424   6.508  -0.003 -0.4728  0.2364 -0.2511
13796TIP3   OH262878   6.412   5.568  12.863 -0.4877 -0.0907 -0.1155
13796TIP3    H162879   6.482   5.627  12.838  0.9448 -1.3318  0.7514
13796TIP3    H262880   6.367   5.612  12.935  1.0178 -0.3116  1.0045
13797TIP3   OH262881   3.949   0.422   4.440 -0.4949 -0.1316  0.2850
13797TIP3    H162882   3.954   0.468   4.356  0.0902  2.1181  1.4916
13797TIP3    H262883   3.858   0.432   4.467 -0.3702  0.3366  0.5423
13798TIP3   OH262884   4.445   1.934   6.057  0.3318 -0.0931  0.1231
13798TIP3    H162885   4.399   1.905   5.978 -1.4520 -0.3157  1.1881
13798TIP3    H262886   4.375   1.968   6.114  1.7850  1.8748  0.8497
13799TIP3   OH262887   1.820   3.203  14.589 -0.0782  0.2813  0.1829
13799TIP3    H162888   1.825   3.171  14.679  0.6968 -0.3926 -0.0962
13799TIP3    H262889   1.758   3.144  14.546 -0.2198  0.4219  0.1911
13800TIP3   OH262890   6.446   2.164  12.947 -0.3632 -0.0014 -0.4362
13800TIP3    H162891   6.405   2.125  13.024  1.3434  0.7475  0.9150
13800TIP3    H262892   6.440   2.096  12.880 -1.2736 -0.9263  0.5387
13801TIP3   OH262893   0.633   0.989   0.337 -0.3013  0.0160 -0.1514
13801TIP3    H162894   0.655   1.082   0.327  1.7071 -0.1661  1.8686
13801TIP3    H262895   0.695   0.943   0.281 -0.0713 -0.1796  0.2587
13802TIP3   OH262896   3.483   3.206   4.096 -0.9892  0.2801 -0.0171
13802TIP3    H162897   3.570   3.169   4.081 -0.1550  3.0541 -3.2764
13802TIP3    H262898   3.496   3.269   4.167  0.1225  1.7161 -1.4229
13803TIP3   OH262899   4.081   0.461  15.316 -0.8601 -0.1297 -0.0220
13803TIP3    H162900   4.120   0.494  15.398 -0.0726  2.0376 -1.1922
13803TIP3    H262901   4.155   0.427  15.267 -0.8004  1.4510 -1.0964
13804TIP3   OH262902   0.139   0.511  13.200 -0.0536  0.4787  0.2400
13804TIP3    H162903   0.161   0.588  13.148 -0.0469 -0.3568 -1.0284
13804TIP3    H262904   0.223   0.479  13.232  0.0606  0.3107 -0.2266
13805TIP3   OH262905   5.390   4.661   0.959  0.3847 -0.6749 -0.2856
13805TIP3    H162906   5.318   4.669   0.897  0.3293  0.0286 -0.1412
13805TIP3    H262907   5.402   4.750   0.994  2.3469 -0.4151 -1.4555
13806TIP3   OH262908   6.633   0.200  14.553  0.6791 -0.1402 -0.2142
13806TIP3    H162909   6.690   0.158  14.618  2.6432  0.0005 -1.7600
13806TIP3    H262910   6.572   0.131  14.527 -0.5027 -0.0562  2.1026
13807TIP3   OH262911   3.333   1.693  14.057  0.5329 -0.6920 -0.4738
13807TIP3    H162912   3.287   1.609  14.066 -0.1501 -0.3547 -0.6916
13807TIP3    H262913   3.322   1.716  13.965  1.3093 -0.6934 -0.5667
13808TIP3   OH262914   1.019   4.997   1.653 -0.1863  0.1446  1.0915
13808TIP3    H162915   1.009   4.939   1.729  0.4808 -1.2723  0.1484
13808TIP3    H262916   1.114   5.008   1.645 -0.2561  0.2952  0.4834
13809TIP3   OH262917   1.263   1.017   1.819 -0.8134 -0.2330 -0.7004
13809TIP3    H162918   1.189   1.076   1.805 -0.8125 -0.4094 -1.5266
13809TIP3    H262919   1.224   0.935   1.848 -0.8410  0.0522  0.0923
13810TIP3   OH262920   2.453   5.749  16.944  0.1357 -0.2897  0.2402
13810TIP3    H162921   2.388   5.678  16.947 -0.4486  0.2557  0.6356
13810TIP3    H262922   2.518   5.725  17.009 -1.8811  1.2603  3.0290
13811TIP3   OH262923   4.965   0.516  13.303 -0.5951  0.1439 -0.1345
13811TIP3    H162924   4.945   0.469  13.384 -0.2746  1.0010  0.4676
13811TIP3    H262925   4.879   0.537  13.266 -0.7629  0.3331  0.3483
13812TIP3   OH262926   5.577   4.955  12.061 -0.2817  0.3684 -0.3471
13812TIP3    H162927   5.494   4.931  12.019  0.6946  1.0603 -2.8469
13812TIP3    H262928   5.593   4.884  12.123 -1.3289 -1.3554 -1.9167
13813TIP3   OH262929   1.445   5.649  13.882 -0.1714  0.1925 -0.2177
13813TIP3    H162930   1.412   5.571  13.926 -0.7030  0.4410 -0.1693
13813TIP3    H262931   1.368   5.704  13.869  0.1535  0.5906 -0.4991
13814TIP3   OH262932   3.683   3.526  11.565 -0.3083 -0.0708 -0.1038
13814TIP3    H162933   3.773   3.555  11.577 -1.1060  2.9462 -0.5851
13814TIP3    H262934   3.680   3.439  11.606  3.7140 -2.2006 -3.5545
13815TIP3   OH262935   5.426   1.787   1.082 -0.1204 -0.5481 -0.1452
13815TIP3    H162936   5.334   1.810   1.069 -0.5087 -1.7854  0.3022
13815TIP3    H262937   5.466   1.867   1.119 -0.9341  0.0925 -0.6288
13816TIP3   OH262938   1.573   6.719   5.051 -0.2171  0.0747 -0.0726
13816TIP3    H162939   1.593   6.652   5.117  0.3888 -0.1610 -0.4823
13816TIP3    H262940   1.639   6.787   5.065 -0.2776  0.1683 -0.2384
13817TIP3   OH262941   5.856   3.035  15.550 -0.2486  0.1424  0.1860
13817TIP3    H162942   5.788   3.082  15.598  0.0710  1.5089 -0.6068
13817TIP3    H262943   5.823   3.032  15.460  0.3416  0.0424 -0.0308
13818TIP3   OH262944   6.022   0.943  17.239  0.2069 -0.2965 -0.1656
13818TIP3    H162945   5.948   0.928  17.180  1.8180 -1.7041 -1.9694
13818TIP3    H262946   5.985   0.933  17.326 -1.3290 -3.5825 -1.0173
13819TIP3   OH262947   2.308   4.316   0.472  0.2409  0.1690  0.0922
13819TIP3    H162948   2.357   4.390   0.508 -0.3351  0.5094  0.1927
13819TIP3    H262949   2.235   4.356   0.426 -0.7318 -0.3695  1.1308
13820TIP3   OH262950   0.286   4.313  14.019  0.3749 -0.3152 -0.4182
13820TIP3    H162951   0.310   4.356  13.937 -0.4915  0.0880 -0.4684
13820TIP3    H262952   0.291   4.382  14.085 -0.4245 -0.2771 -0.3951
13821TIP3   OH262953   5.262   1.222  10.779 -0.0420 -0.8065 -0.4427
13821TIP3    H162954   5.269   1.163  10.854  0.6952  0.1958  0.3089
13821TIP3    H262955   5.203   1.177  10.718  0.3416 -2.2157  0.1785
13822TIP3   OH262956   3.727   3.483   4.232  0.2401 -0.3136 -0.3142
13822TIP3    H162957   3.819   3.485   4.256 -0.0292  0.3692  0.7204
13822TIP3    H262958   3.680   3.493   4.315 -0.7435  0.8536 -0.9864
13823TIP3   OH262959   1.744   5.183   3.630  0.5355  0.0917  0.2813
13823TIP3    H162960   1.779   5.158   3.544  0.2485 -0.0220  0.1938
13823TIP3    H262961   1.737   5.101   3.678 -0.5896 -0.0423 -0.0746
13824TIP3   OH262962   3.053   3.720   1.205 -0.6116 -0.0648  0.1215
13824TIP3    H162963   3.037   3.771   1.125  0.9472  1.0251  0.4573
13824TIP3    H262964   3.024   3.632   1.183 -0.5772  0.2929 -1.5201
13825TIP3   OH262965   1.421   5.189  13.263  0.1971 -0.1466  0.1361
13825TIP3    H162966   1.435   5.195  13.357  1.5499  2.3392 -0.1528
13825TIP3    H262967   1.508   5.183  13.225 -0.2875 -0.2899 -1.0179
13826TIP3   OH262968   5.560   1.914   3.497  0.1823  0.1447 -0.2176
13826TIP3    H162969   5.533   2.006   3.502  1.0490  0.4710 -1.2415
13826TIP3    H262970   5.609   1.908   3.415  1.7045 -0.8136  0.7164
13827TIP3   OH262971   2.683   2.178  14.813  0.0217  0.3256  0.4917
13827TIP3    H162972   2.765   2.216  14.845  0.6269  0.3561 -1.0219
13827TIP3    H262973   2.660   2.112  14.879  0.8635  0.8345  1.3093
13828TIP3   OH262974   3.616   2.938  17.219  0.5153 -0.3188 -0.0124
13828TIP3    H162975   3.680   2.869  17.232 -0.0465 -0.9284 -0.3894
13828TIP3    H262976   3.657   3.017  17.253  0.4794 -1.1647  2.1016
13829TIP3   OH262977   3.422   6.034  16.016 -0.1675 -0.2309 -0.3377
13829TIP3    H162978   3.357   5.965  16.025  0.4334 -0.7606  0.0785
13829TIP3    H262979   3.496   6.004  16.070  0.2955  0.4955 -0.5551
13830TIP3   OH262980   6.476   5.872  14.395 -0.5154  0.3712 -0.4120
13830TIP3    H162981   6.569   5.888  14.412 -0.4961  1.5189 -1.4418
13830TIP3    H262982   6.468   5.878  14.299 -1.5296 -0.4180 -0.3913
13831TIP3   OH262983   6.130   5.191   5.930 -0.4764  0.0168  0.3333
13831TIP3    H162984   6.121   5.286   5.926  1.0113  0.1577 -0.3548
13831TIP3    H262985   6.151   5.173   6.022  3.4738  0.8858 -0.1998
13832TIP3   OH262986   4.647   6.094  17.091 -0.0729 -0.0425  0.1629
13832TIP3    H162987   4.682   6.027  17.150  0.2854  0.3956  0.4554
13832TIP3    H262988   4.603   6.045  17.022  1.2019 -0.6048 -0.2642
13833TIP3   OH262989   0.666   6.426  12.881 -0.3575 -0.1406 -0.1100
13833TIP3    H162990   0.706   6.503  12.840  0.0700  0.6969  1.7946
13833TIP3    H262991   0.668   6.359  12.813  1.0041  0.9558 -1.2028
13834TIP3   OH262992   6.608   0.551  10.981 -0.4631  0.6536 -0.4389
13834TIP3    H162993   6.640   0.610  11.049  0.2471  1.0864 -1.1219
13834TIP3    H262994   6.687   0.520  10.937 -0.7615 -1.4639  0.4012
13835TIP3   OH262995   4.023   5.690   2.879 -0.0235 -0.1270  0.2256
13835TIP3    H162996   4.082   5.707   2.953 -1.9661  0.2067  1.7703
13835TIP3    H262997   3.969   5.768   2.872  0.0903 -0.1680 -1.5712
13836TIP3   OH262998   3.462   4.297  15.032  0.3636  0.2373 -0.0462
13836TIP3    H162999   3.417   4.219  15.063 -0.0308  0.5385  0.1512
13836TIP3    H263000   3.394   4.349  14.989  0.1428  1.4709  1.7057
13837TIP3   OH263001   5.287   5.683  15.738  0.1296 -0.1101 -0.1063
13837TIP3    H163002   5.252   5.765  15.704 -0.4819  0.5167  1.9146
13837TIP3    H263003   5.258   5.617  15.674 -3.3893  0.6007  0.5302
13838TIP3   OH263004   1.363   5.289  14.939  0.7218  0.1300 -0.2778
13838TIP3    H163005   1.347   5.249  14.853 -0.5175  1.0600 -0.5216
13838TIP3    H263006   1.342   5.382  14.926 -1.2576 -0.0012  1.4298
13839TIP3   OH263007   5.326   3.769  10.947  0.0501 -0.3224 -0.2225
13839TIP3    H163008   5.319   3.778  10.852  0.5214  1.9860 -0.0848
13839TIP3    H263009   5.363   3.681  10.960  1.6547 -0.0260 -2.2593
13840TIP3   OH263010   5.464   1.122  15.298  0.5567 -0.4245 -0.3676
13840TIP3    H163011   5.468   1.026  15.292  0.1363 -0.8838  3.8167
13840TIP3    H263012   5.515   1.143  15.376  2.2006  3.0539 -2.1817
13841TIP3   OH263013   2.007   3.505   0.602 -0.2790 -0.5095  0.0396
13841TIP3    H163014   1.913   3.489   0.587 -0.2496 -1.0488  0.4311
13841TIP3    H263015   2.051   3.444   0.543 -0.1714 -1.5277  1.1436
13842TIP3   OH263016   1.014   2.999   4.491 -0.2396 -0.4356 -0.3086
13842TIP3    H163017   1.029   2.914   4.531  0.6181 -0.2260 -0.1717
13842TIP3    H263018   1.045   2.990   4.401  0.9440  0.0532  0.0287
13843TIP3   OH263019   3.875   1.598  16.675  0.4143 -0.5936  0.4592
13843TIP3    H163020   3.839   1.624  16.591  0.2785 -0.0839  0.6679
13843TIP3    H263021   3.828   1.518  16.698 -1.3351  0.5846  1.1878
13844TIP3   OH263022   4.971   5.698   4.457  0.0493 -0.0623  0.7063
13844TIP3    H163023   5.061   5.665   4.455 -0.1053 -0.5472  1.3404
13844TIP3    H263024   4.945   5.705   4.365  0.5829 -0.3383  0.5323
13845TIP3   OH263025   0.419   1.074   0.500  0.2464  0.3790  0.7074
13845TIP3    H163026   0.474   1.057   0.423 -0.7469  1.0444 -0.1839
13845TIP3    H263027   0.464   1.030   0.572  0.9568 -0.6923 -0.3475
13846TIP3   OH263028   5.045   0.428   3.958 -0.5956 -0.5016 -0.3959
13846TIP3    H163029   5.066   0.486   3.884  0.7967  0.0947  0.4276
13846TIP3    H263030   4.958   0.393   3.937 -0.7641  0.6118 -1.7076
13847TIP3   OH263031   6.179   2.613   0.272 -0.1054 -0.2252 -0.0245
13847TIP3    H163032   6.210   2.591   0.184  0.1080 -1.3320  0.3139
13847TIP3    H263033   6.230   2.558   0.330  1.2738  1.9789  1.0109
13848TIP3   OH263034   4.396   5.835   5.665  0.4252  0.4154  0.6419
13848TIP3    H163035   4.381   5.929   5.668  1.5214  0.5799  1.3809
13848TIP3    H263036   4.417   5.811   5.756  0.4016 -0.4941  0.4162
13849TIP3   OH263037   6.361   4.924  16.539 -0.5335  0.2350 -0.4539
13849TIP3    H163038   6.402   4.993  16.590 -0.8281  1.2555 -1.5416
13849TIP3    H263039   6.267   4.943  16.544 -0.6867 -0.5457 -0.1361
13850TIP3   OH263040   0.592   1.671  15.605 -0.7666 -0.1574 -0.2967
13850TIP3    H163041   0.628   1.760  15.603  0.1135 -0.5088 -1.1880
13850TIP3    H263042   0.622   1.632  15.523  0.1582 -1.7844  0.7632
13851TIP3   OH263043   0.636   2.360   1.379 -0.0365  0.0387  0.4087
13851TIP3    H163044   0.609   2.273   1.409 -0.6555 -0.9694 -2.6809
13851TIP3    H263045   0.559   2.393   1.332  0.8915  1.3500 -0.2309
13852TIP3   OH263046   2.982   4.485   5.856  0.4283 -0.2299 -0.5013
13852TIP3    H163047   3.037   4.410   5.878 -1.1031 -0.7929  1.7816
13852TIP3    H263048   2.919   4.451   5.793  0.5770 -0.4958 -0.5098
13853TIP3   OH263049   3.707   5.444   0.266  0.3626  0.5551  0.1243
13853TIP3    H163050   3.689   5.366   0.318 -0.7214  0.1825 -0.7907
13853TIP3    H263051   3.784   5.483   0.309  1.1004 -1.1384  0.4327
13854TIP3   OH263052   2.870   5.672  13.313 -0.3357 -0.2096 -0.3678
13854TIP3    H163053   2.826   5.654  13.396 -1.7162  2.2745 -0.4560
13854TIP3    H263054   2.824   5.749  13.278  1.8443  0.3582 -2.2125
13855TIP3   OH263055   3.607   1.654   3.038  0.1118 -0.2331 -0.6157
13855TIP3    H163056   3.678   1.680   3.097  0.6653 -1.1781 -0.8477
13855TIP3    H263057   3.540   1.618   3.096 -0.2463  0.7592 -0.3859
13856TIP3   OH263058   4.821   6.291   0.524 -0.3849 -0.2488 -0.1550
13856TIP3    H163059   4.796   6.353   0.593  0.2759  0.5621 -0.6280
13856TIP3    H263060   4.775   6.210   0.547 -0.4458  0.1018  1.0502
13857TIP3   OH263061   5.652   0.361   4.642 -0.3493 -0.3453 -0.8015
13857TIP3    H163062   5.722   0.394   4.585  0.9220 -1.4147  0.0739
13857TIP3    H263063   5.668   0.404   4.726  0.2423 -1.7785 -0.1545
13858TIP3   OH263064   5.061   3.806  16.600  0.0369  0.3228  0.5807
13858TIP3    H163065   5.124   3.836  16.665  1.0981 -0.8561  0.1446
13858TIP3    H263066   5.076   3.712  16.594 -2.1287 -0.0682  0.8067
13859TIP3   OH263067   3.899   2.809  14.056 -0.6204 -0.5263  0.2254
13859TIP3    H163068   3.881   2.791  14.148  1.4285  0.0651  0.7898
13859TIP3    H263069   3.900   2.904  14.050  2.6480 -0.4373  0.4304
13860TIP3   OH263070   3.691   4.718   5.698  0.6010 -0.0610 -0.3649
13860TIP3    H163071   3.602   4.752   5.707  0.8030  0.8579 -1.5941
13860TIP3    H263072   3.721   4.705   5.788 -0.0143  1.6319  0.1210
13861TIP3   OH263073   4.747   4.817   2.507  0.1521 -0.3254 -0.3183
13861TIP3    H163074   4.657   4.829   2.539 -0.2629 -2.1132 -0.7375
13861TIP3    H263075   4.773   4.905   2.480 -1.4550  0.2512 -0.1467
13862TIP3   OH263076   3.979   1.728   2.504 -0.4428  0.7555 -0.1125
13862TIP3    H163077   3.895   1.688   2.525  0.8342 -2.4548 -0.5222
13862TIP3    H263078   4.008   1.683   2.424  2.4123  0.3931  0.9904
13863TIP3   OH263079   6.075   0.607   4.214 -0.3575 -0.1234  0.1360
13863TIP3    H163080   6.130   0.654   4.278  1.5299 -1.9274 -0.0367
13863TIP3    H263081   6.039   0.675   4.159 -1.3266  1.4483  2.5438
13864TIP3   OH263082   4.542   2.602  17.030 -0.1519 -0.2700 -0.4906
13864TIP3    H163083   4.634   2.591  17.057 -0.3237  1.2511  0.9270
13864TIP3    H263084   4.500   2.521  17.056  0.3891 -0.1443  0.8939
13865TIP3   OH263085   2.827   3.081   0.163  0.1390  0.3166  0.3495
13865TIP3    H163086   2.760   3.134   0.206  0.5260 -0.0563  1.4696
13865TIP3    H263087   2.870   3.035   0.235  0.6397 -0.5551 -0.4857
13866TIP3   OH263088   6.730   2.526  11.510 -0.0919 -0.5025  0.0909
13866TIP3    H163089   6.815   2.522  11.554 -0.1011  0.5753  0.2232
13866TIP3    H263090   6.742   2.591  11.441 -1.4084  1.3470  1.4863
13867TIP3   OH263091   6.164   5.970  15.458 -0.0041 -0.1659  0.5333
13867TIP3    H163092   6.085   6.023  15.447  0.4513  0.6197  0.9697
13867TIP3    H263093   6.232   6.033  15.479  0.7229 -0.8492  0.2750
13868TIP3   OH263094   1.328   0.239  12.184 -1.1858  0.5610  0.0434
13868TIP3    H163095   1.411   0.192  12.193 -0.8607  1.0468 -0.3377
13868TIP3    H263096   1.265   0.172  12.159 -0.7322  0.3268 -0.4879
13869TIP3   OH263097   0.676   0.381  17.203 -0.1952  0.2887  0.3497
13869TIP3    H163098   0.683   0.470  17.238  1.3956  0.3309 -0.0108
13869TIP3    H263099   0.724   0.327  17.266  0.3300 -0.0513 -0.3348
13870TIP3   OH263100   6.251   1.125  13.589 -0.4214  0.7014  0.0816
13870TIP3    H163101   6.259   1.031  13.600 -1.9246  0.4920 -0.4244
13870TIP3    H263102   6.267   1.140  13.496  0.3769  1.0387  0.2567
13871TIP3   OH263103   1.279   4.687  12.746 -0.1289 -1.2558 -0.7557
13871TIP3    H163104   1.274   4.659  12.655  1.3847  0.0744 -1.2810
13871TIP3    H263105   1.358   4.741  12.751 -1.3290  0.4942  0.8357
13872TIP3   OH263106   2.471   6.147  11.065  0.4024 -0.1069  0.4715
13872TIP3    H163107   2.454   6.087  11.137 -2.3361  2.0924  1.8451
13872TIP3    H263108   2.445   6.099  10.987 -0.0788 -1.2719  1.3250
13873TIP3   OH263109   3.133   3.608   4.096  0.2622 -0.3073  0.1482
13873TIP3    H163110   3.089   3.584   4.014  0.1881  2.4688 -0.7007
13873TIP3    H263111   3.226   3.616   4.072  0.2954  0.1448  0.4255
13874TIP3   OH263112   3.026   4.896   3.819  0.3074  0.5417  0.5680
13874TIP3    H163113   3.087   4.836   3.776 -0.8375  0.2421 -0.7246
13874TIP3    H263114   2.941   4.852   3.814 -0.2137  1.4144  1.3650
13875TIP3   OH263115   1.797   5.103   5.021  0.2534 -0.7803 -0.4557
13875TIP3    H163116   1.818   5.169   5.088 -0.8388 -1.0218  0.1588
13875TIP3    H263117   1.752   5.034   5.070 -1.8737 -0.3141 -1.6457
13876TIP3   OH263118   1.149   2.803   1.683  0.0323  0.0536  0.3488
13876TIP3    H163119   1.214   2.825   1.616 -0.6884  2.7871  0.4117
13876TIP3    H263120   1.079   2.760   1.635  1.1338 -1.4395  0.0136
13877TIP3   OH263121   5.278   0.474   2.177 -0.0915  0.0452  0.1615
13877TIP3    H163122   5.271   0.438   2.266 -0.7772 -0.7982 -0.2226
13877TIP3    H263123   5.352   0.534   2.182 -0.5053  0.4896  1.4666
13878TIP3   OH263124   2.539   6.153  15.721 -0.2850 -0.5558 -0.0377
13878TIP3    H163125   2.479   6.126  15.791 -2.1818 -0.3029 -1.4840
13878TIP3    H263126   2.530   6.085  15.654  1.6675 -0.9119  0.0082
13879TIP3   OH263127   1.144   4.836   1.036 -0.2278 -0.2703 -0.2034
13879TIP3    H163128   1.146   4.756   0.983 -1.2565 -0.9754  0.7647
13879TIP3    H263129   1.073   4.888   0.999  0.0309 -0.0881 -0.4437
13880TIP3   OH263130   2.183   4.060  15.049  0.2913 -0.0040 -0.2562
13880TIP3    H163131   2.216   3.973  15.026  0.3364 -0.0090 -0.1730
13880TIP3    H263132   2.145   4.048  15.136 -0.0215 -0.0216 -0.3951
13881TIP3   OH263133   5.751   3.312  14.097 -0.0518 -0.2190  0.7215
13881TIP3    H163134   5.833   3.287  14.054 -0.4217 -1.4494  0.7149
13881TIP3    H263135   5.778   3.373  14.165  0.9964 -1.3958  1.3997
13882TIP3   OH263136   5.076   4.893  13.486 -0.5401 -0.1810  0.4048
13882TIP3    H163137   5.038   4.899  13.574  0.9365  2.3876  0.9828
13882TIP3    H263138   5.081   4.984  13.456 -1.2433 -1.0000 -2.4979
13883TIP3   OH263139   4.074   4.519   3.903 -0.2698 -0.7052  0.0692
13883TIP3    H163140   4.062   4.496   3.996 -0.1316 -1.7933 -0.1635
13883TIP3    H263141   4.168   4.506   3.888 -0.1286  0.3575 -0.0054
13884TIP3   OH263142   3.686   0.522  16.087  0.2829  0.2043 -0.6313
13884TIP3    H163143   3.774   0.488  16.102 -0.6251 -2.2566 -0.4418
13884TIP3    H263144   3.694   0.617  16.100  1.9257 -0.3559  4.0849
13885TIP3   OH263145   6.000   4.651   5.285  0.3259  0.5624 -0.1534
13885TIP3    H163146   6.060   4.697   5.226  1.9687 -0.7745  0.4145
13885TIP3    H263147   5.982   4.568   5.241  0.6210  0.0550  0.6749
13886TIP3   OH263148   1.440   1.882   3.536 -0.3808  0.0651  0.0724
13886TIP3    H163149   1.510   1.828   3.498 -1.8457 -2.1533  0.3329
13886TIP3    H263150   1.373   1.885   3.469 -1.7215 -1.3319  1.2744
13887TIP3   OH263151   0.193   4.449  15.281  0.1263 -0.6161 -0.8435
13887TIP3    H163152   0.224   4.532  15.318  1.8073 -1.6986  0.3116
13887TIP3    H263153   0.108   4.434  15.322 -0.2305  0.5594 -1.1323
13888TIP3   OH263154   3.251   0.574   1.944 -0.1348  0.0766  0.2425
13888TIP3    H163155   3.306   0.588   2.021 -0.2884  1.1210  0.1860
13888TIP3    H263156   3.268   0.484   1.917  0.7652  0.0638  0.8352
13889TIP3   OH263157   5.386   3.026  11.193  0.1443 -0.3617  0.2729
13889TIP3    H163158   5.430   3.017  11.109  0.4225 -2.1737  0.5654
13889TIP3    H263159   5.305   2.976  11.183 -0.4519  0.5068  0.6753
13890TIP3   OH263160   1.820   2.954  13.309 -0.7290 -0.4722  0.2633
13890TIP3    H163161   1.813   2.968  13.404  1.0427  1.6523  0.1426
13890TIP3    H263162   1.752   3.010  13.271 -0.1064  0.2448  0.1992
13891TIP3   OH263163   1.353   2.742  16.605 -0.2037 -0.0503 -0.0686
13891TIP3    H163164   1.431   2.686  16.609 -0.3068 -0.1376  0.9321
13891TIP3    H263165   1.360   2.787  16.520 -0.1120 -1.5437 -0.8780
13892TIP3   OH263166   3.651   1.704   6.889 -0.0513  0.0423 -0.1520
13892TIP3    H163167   3.600   1.768   6.939  0.7596  1.1306 -0.6895
13892TIP3    H263168   3.585   1.642   6.856 -0.8831  0.7367  0.1619
13893TIP3   OH263169   4.311   0.707  15.249  0.0135 -0.1531  0.1287
13893TIP3    H163170   4.334   0.754  15.329  0.1136  1.7130 -0.9522
13893TIP3    H263171   4.282   0.775  15.188 -3.7684 -1.8300 -0.2432
13894TIP3   OH263172   3.181   4.334  17.241 -0.6394  0.8323 -0.3368
13894TIP3    H163173   3.144   4.269  17.181  3.1264 -2.6948  0.6414
13894TIP3    H263174   3.232   4.393  17.185  0.6497 -0.7718 -0.9471
13895TIP3   OH263175   6.639   5.510   1.897  0.2893 -0.2348 -0.7094
13895TIP3    H163176   6.666   5.419   1.886 -0.7148 -0.4366 -1.6525
13895TIP3    H263177   6.551   5.514   1.861 -0.7471  0.5486  1.6686
13896TIP3   OH263178   0.360   6.010  12.451  0.3480  0.4039 -0.1922
13896TIP3    H163179   0.385   5.957  12.375  1.5372 -0.4293  0.7306
13896TIP3    H263180   0.341   5.946  12.519  0.2442  1.1562  0.4919
13897TIP3   OH263181   6.726   2.907  13.716  0.3198  0.0289  0.3702
13897TIP3    H163182   6.791   2.837  13.725 -0.1438 -0.4613  0.0209
13897TIP3    H263183   6.645   2.867  13.747 -0.1515  0.0882 -0.7559
13898TIP3   OH263184   1.632   6.653   1.927 -0.0884 -0.0316 -0.1980
13898TIP3    H163185   1.591   6.735   1.901 -1.6893 -1.4172 -2.3230
13898TIP3    H263186   1.674   6.620   1.847  0.3984 -1.3682  0.5624
13899TIP3   OH263187   6.384   6.643  13.141  0.0059  0.6855 -0.1233
13899TIP3    H163188   6.324   6.607  13.076  0.1179  0.5692 -0.1607
13899TIP3    H263189   6.327   6.694  13.199 -0.0895  0.8214 -0.3329
13900TIP3   OH263190   6.085   6.418  12.037 -0.1335  0.7590 -0.0299
13900TIP3    H163191   6.129   6.341  12.000 -1.6720 -0.9585  1.5214
13900TIP3    H263192   6.038   6.457  11.963  1.1745  0.6347 -0.9686
13901TIP3   OH263193   4.311   5.738   0.124  0.5698  0.0716 -0.1516
13901TIP3    H163194   4.324   5.786   0.042  1.4241  1.4257  0.7277
13901TIP3    H263195   4.398   5.736   0.164  0.2101 -0.7926  0.6038
13902TIP3   OH263196   6.262   3.686  14.383 -0.0119 -0.4866  0.8260
13902TIP3    H163197   6.252   3.598  14.347 -0.1434 -0.1468 -0.0007
13902TIP3    H263198   6.173   3.722  14.385 -0.0022 -0.4997  1.4886
13903TIP3   OH263199   1.843   3.797   6.130 -0.0156 -0.2329 -0.0535
13903TIP3    H163200   1.804   3.880   6.158 -0.9589  0.0532 -2.0529
13903TIP3    H263201   1.935   3.804   6.155  0.0108  1.6099 -0.5214
13904TIP3   OH263202   4.307   6.178  11.835  0.2422  0.0161  0.0231
13904TIP3    H163203   4.340   6.202  11.748 -0.1769 -0.2571 -0.2130
13904TIP3    H263204   4.213   6.191  11.829  0.0364 -1.3780 -0.0052
13905TIP3   OH263205   6.244   3.400  14.361 -0.4071 -0.0406 -0.2658
13905TIP3    H163206   6.308   3.346  14.315  0.2581 -0.2594  0.8563
13905TIP3    H263207   6.168   3.344  14.374 -0.5876  0.0176 -1.0553
13906TIP3   OH263208   4.585   1.645  14.473 -0.1006  0.0506 -0.3045
13906TIP3    H163209   4.528   1.591  14.417 -1.0893 -0.2709  0.9664
13906TIP3    H263210   4.630   1.703  14.412 -0.1661 -1.1703 -1.5621
13907TIP3   OH263211   0.652   5.847  15.928 -0.1802 -0.2226 -0.4043
13907TIP3    H163212   0.700   5.910  15.983 -0.2521 -0.0486 -0.5411
13907TIP3    H263213   0.571   5.831  15.976  0.0500 -0.5858 -0.1278
13908TIP3   OH263214   5.137   4.802   1.146  0.2577  0.1430  0.1363
13908TIP3    H163215   5.220   4.829   1.107  1.4729 -0.0393  2.3677
13908TIP3    H263216   5.156   4.799   1.240 -1.4245 -2.7785  0.5048
13909TIP3   OH263217   2.764   6.243   1.372  0.7105  0.5913  0.8284
13909TIP3    H163218   2.690   6.228   1.313  0.6133 -0.1004  1.1179
13909TIP3    H263219   2.773   6.338   1.375  3.0194  0.7314 -3.1639
13910TIP3   OH263220   1.247   1.759   1.977 -0.0980  0.8745  0.4041
13910TIP3    H163221   1.184   1.690   2.001 -0.1894  0.5697 -0.6694
13910TIP3    H263222   1.246   1.819   2.052 -1.0938  0.4686  0.7360
13911TIP3   OH263223   3.791   3.799   5.250  0.2000 -0.3895 -0.3277
13911TIP3    H163224   3.799   3.738   5.324  3.0847  0.8384  0.5216
13911TIP3    H263225   3.823   3.750   5.175  0.6500 -0.5575 -0.0347
13912TIP3   OH263226   4.165   4.567   5.442  0.1711  0.5651  0.0568
13912TIP3    H163227   4.235   4.524   5.492  1.1075  0.3203 -1.4035
13912TIP3    H263228   4.175   4.660   5.464  0.6576  0.4801  0.2235
13913TIP3   OH263229   0.111   3.914   5.888 -0.2410 -0.5879 -0.5690
13913TIP3    H163230   0.190   3.954   5.853 -0.2997 -0.5880 -0.7015
13913TIP3    H263231   0.130   3.820   5.888  0.7372 -0.4728  1.7560
13914TIP3   OH263232   1.071   2.101  14.787  0.1543  0.3740 -0.4335
13914TIP3    H163233   1.030   2.147  14.714 -0.2016  0.6910 -0.0367
13914TIP3    H263234   1.138   2.161  14.820  0.9018 -0.1085 -1.0268
13915TIP3   OH263235   0.077   1.774   5.751 -0.1515 -0.2492  0.3284
13915TIP3    H163236   0.064   1.866   5.776 -0.9931 -0.3498  0.2951
13915TIP3    H263237   0.035   1.766   5.665  0.8558 -0.4186 -0.1558
13916TIP3   OH263238   4.309   4.264   3.006 -0.0791 -0.1355  0.2395
13916TIP3    H163239   4.269   4.241   2.922 -0.2782 -1.3551  0.6436
13916TIP3    H263240   4.292   4.358   3.016  0.1616  0.0842 -1.1805
13917TIP3   OH263241   0.382   3.624  16.983  0.1824  0.3485  0.0452
13917TIP3    H163242   0.390   3.539  16.941  0.9811  0.5581 -0.2554
13917TIP3    H263243   0.436   3.617  17.062 -0.0968  0.4402  0.2476
13918TIP3   OH263244   0.308   3.777  14.904 -0.2427  0.0573  0.4729
13918TIP3    H163245   0.339   3.822  14.983  0.7620  0.3008 -0.0482
13918TIP3    H263246   0.329   3.685  14.919  0.3328  0.1592  0.3177
13919TIP3   OH263247   6.646   1.017  15.920 -0.4506 -0.4223 -0.3623
13919TIP3    H163248   6.658   0.923  15.904  1.8533 -0.2752  0.1667
13919TIP3    H263249   6.680   1.059  15.841 -1.3257 -0.0069 -0.5290
13920TIP3   OH263250   2.962   1.569   2.272  0.7853 -0.3314  0.4888
13920TIP3    H163251   2.939   1.482   2.305  0.1182 -0.3616 -0.0363
13920TIP3    H263252   3.055   1.578   2.293  0.7804 -1.0293  0.8603
13921TIP3   OH263253   4.002   4.985   6.327  0.0714 -0.4809  0.1485
13921TIP3    H163254   3.911   4.974   6.354  0.2917 -2.8726  0.1806
13921TIP3    H263255   4.030   4.897   6.300  2.2816  0.2394 -0.1545
13922TIP3   OH263256   0.582   1.912  14.992 -0.3390  0.4452  0.6865
13922TIP3    H163257   0.640   1.876  15.059 -1.2577 -0.7172  0.8952
13922TIP3    H263258   0.592   1.854  14.917 -2.3935 -0.8063  1.2859
13923TIP3   OH263259   4.688   2.222  12.633  0.0261 -0.5366  0.1815
13923TIP3    H163260   4.629   2.229  12.708 -1.3364  1.1597 -0.9405
13923TIP3    H263261   4.761   2.282  12.654 -1.4506  1.7149 -0.6827
13924TIP3   OH263262   1.442   3.883   3.594 -0.1618  0.4144 -0.2073
13924TIP3    H163263   1.473   3.966   3.556  1.2778 -0.0469 -0.0883
13924TIP3    H263264   1.522   3.836   3.618 -0.9206 -1.2955 -0.8595
13925TIP3   OH263265   3.287   4.745  14.436  0.2274  0.6966 -0.3326
13925TIP3    H163266   3.249   4.760  14.349 -0.4717  1.9122  0.1531
13925TIP3    H263267   3.362   4.805  14.439 -0.6542  1.8022  0.4416
13926TIP3   OH263268   5.904   6.536  11.862 -0.1965 -0.4313  0.1716
13926TIP3    H163269   5.840   6.602  11.890 -0.3822 -0.1410 -0.9020
13926TIP3    H263270   5.894   6.532  11.767 -0.0201 -1.8391  0.1889
13927TIP3   OH263271   0.499   3.836  14.479 -0.3971  0.5494 -0.0372
13927TIP3    H163272   0.542   3.815  14.562  0.4083  1.1130 -0.2975
13927TIP3    H263273   0.501   3.753  14.430  2.2441  0.9932 -0.8273
13928TIP3   OH263274   4.774   0.056  11.550  0.1143  0.3288 -0.4589
13928TIP3    H163275   4.775   0.123  11.481  2.6182 -1.4702 -2.3447
13928TIP3    H263276   4.715  -0.012  11.517 -0.1185  0.2683  0.0715
13929TIP3   OH263277   1.851   0.486  11.581 -0.1178  0.7741  0.0624
13929TIP3    H163278   1.812   0.427  11.517 -2.5596 -0.8101  2.7595
13929TIP3    H263279   1.940   0.502  11.549  0.1533 -3.1525 -1.6230
13930TIP3   OH263280   4.040   6.522  12.831  0.7309 -0.7246 -0.0622
13930TIP3    H163281   3.976   6.554  12.769 -0.0760 -0.4888  0.8723
13930TIP3    H263282   4.083   6.600  12.865 -0.4935 -0.6557  1.4211
13931TIP3   OH263283   2.489   5.869  16.665 -0.3698  0.1770 -0.2416
13931TIP3    H163284   2.581   5.869  16.692 -1.1595  1.6660  3.0242
13931TIP3    H263285   2.445   5.815  16.731 -1.8727 -0.4355 -1.6880
13932TIP3   OH263286   2.568   5.799  16.410 -0.1544 -0.5323 -0.1991
13932TIP3    H163287   2.503   5.805  16.341 -1.6746 -4.7955  0.5427
13932TIP3    H263288   2.519   5.808  16.491  0.5634 -1.3051  0.3483
13933TIP3   OH263289   5.217   0.813  16.523  0.0327 -0.0767  0.5804
13933TIP3    H163290   5.287   0.876  16.506 -0.2921  0.2551  0.4432
13933TIP3    H263291   5.147   0.840  16.463 -0.9073  0.7321  1.9858
13934TIP3   OH263292   0.799   3.403   2.751  0.0206  0.4767 -0.1375
13934TIP3    H163293   0.848   3.485   2.741  0.2093  0.4931  0.8666
13934TIP3    H263294   0.809   3.380   2.843 -1.4097  0.1830 -0.0332
13935TIP3   OH263295   6.599   4.309  12.156  0.7409 -0.0413  0.8004
13935TIP3    H163296   6.509   4.304  12.189  0.2542 -1.6570 -0.6278
13935TIP3    H263297   6.634   4.390  12.194 -0.4237 -0.6871  3.5111
13936TIP3   OH263298   2.228   2.922   5.678  0.0573  0.1638  0.7007
13936TIP3    H163299   2.135   2.944   5.689  0.2067  1.1858 -0.0171
13936TIP3    H263300   2.268   2.944   5.762  0.0721  2.0573  0.2444
13937TIP3   OH263301   5.496   1.026   2.225  0.7219  0.2285  0.3193
13937TIP3    H163302   5.555   1.053   2.154  0.0958  1.0053  0.0818
13937TIP3    H263303   5.417   1.078   2.211  0.2771 -0.2318  1.0979
13938TIP3   OH263304   3.009   5.386   5.345  0.7190  0.1587 -0.2009
13938TIP3    H163305   2.939   5.321   5.356  0.2560  0.4935 -1.0574
13938TIP3    H263306   2.964   5.471   5.350  1.0043  0.3727 -1.0490
13939TIP3   OH263307   4.191   0.480   1.345  0.1485 -0.3051 -0.7520
13939TIP3    H163308   4.259   0.519   1.290  1.5782 -1.2996  0.2337
13939TIP3    H263309   4.239   0.424   1.406 -1.6366 -1.6812 -0.5345
13940TIP3   OH263310   2.312   2.793  12.399 -0.8376 -0.3795  0.6148
13940TIP3    H163311   2.367   2.728  12.355 -1.6945 -0.2228 -0.7578
13940TIP3    H263312   2.371   2.840  12.458  0.0089 -1.7047  0.8551
13941TIP3   OH263313   4.489   3.709   4.657 -0.2318  0.0837 -0.3224
13941TIP3    H163314   4.506   3.789   4.607  0.8379  0.3587  0.4437
13941TIP3    H263315   4.419   3.665   4.608 -1.5012  1.9099 -0.2726
13942TIP3   OH263316   5.866   0.884  13.884 -0.2651 -0.3632  0.0364
13942TIP3    H163317   5.865   0.825  13.809  1.1710 -0.4222  0.0267
13942TIP3    H263318   5.833   0.831  13.957  0.9581 -1.1933  0.0146
13943TIP3   OH263319   6.494   1.366  16.329  0.0119 -0.5711  0.1752
13943TIP3    H163320   6.559   1.435  16.345  0.0210 -0.2449 -1.1741
13943TIP3    H263321   6.529   1.318  16.254 -0.6015 -1.2986  0.3461
13944TIP3   OH263322   6.767   5.997   2.101 -0.2679  0.2589  0.1585
13944TIP3    H163323   6.732   5.910   2.119 -2.1707  1.2577  1.7832
13944TIP3    H263324   6.695   6.043   2.058 -0.9943  2.2637  3.1951
13945TIP3   OH263325   5.727   0.638  14.915  0.3168  0.2215  0.2368
13945TIP3    H163326   5.633   0.625  14.931  0.3347  0.3077  0.4172
13945TIP3    H263327   5.731   0.687  14.833  0.1999  0.3026  0.2781
13946TIP3   OH263328   2.969   4.093  15.093 -0.0169 -0.0152  0.1359
13946TIP3    H163329   2.939   4.007  15.122  1.1199 -0.8959 -1.1485
13946TIP3    H263330   2.888   4.143  15.077 -0.7062 -1.0717  0.2377
13947TIP3   OH263331   1.075   6.309   4.952 -0.2281  0.3338  0.6879
13947TIP3    H163332   1.028   6.342   4.876  0.5202  2.2612  1.0085
13947TIP3    H263333   1.159   6.279   4.918 -0.4196 -0.1047  0.5847
13948TIP3   OH263334   1.475   3.792   4.735 -0.0452 -0.0999 -0.2105
13948TIP3    H163335   1.559   3.768   4.774 -0.6940 -0.0711  1.2555
13948TIP3    H263336   1.409   3.765   4.800 -1.0908  1.0278 -0.7592
13949TIP3   OH263337   5.511   0.377  15.976 -0.3799  0.0018  0.3416
13949TIP3    H163338   5.455   0.312  15.933 -0.0951 -0.0737  0.0814
13949TIP3    H263339   5.452   0.450  15.997 -0.4173  0.2755 -0.6745
13950TIP3   OH263340   2.392   4.298  15.235 -0.0109 -0.1567  0.4939
13950TIP3    H163341   2.332   4.248  15.291 -0.7123 -0.2727 -0.3448
13950TIP3    H263342   2.479   4.263  15.256 -0.0367  0.8934  2.6779
13951TIP3   OH263343   3.457   2.683   1.829  0.6789  0.7205 -0.4337
13951TIP3    H163344   3.467   2.693   1.924 -0.2691 -0.3372 -0.1983
13951TIP3    H263345   3.522   2.617   1.805 -0.3790 -0.4625 -0.1694
13952TIP3   OH263346   2.565   1.453  13.226  0.2535  0.1859 -0.1064
13952TIP3    H163347   2.513   1.533  13.236  1.5970  1.1609 -0.6153
13952TIP3    H263348   2.578   1.421  13.315 -1.0458  0.0233  0.0400
13953TIP3   OH263349   3.993   2.260   2.895 -0.4369 -0.2022  0.4198
13953TIP3    H163350   4.087   2.260   2.876 -0.5242  2.9543 -0.5645
13953TIP3    H263351   3.955   2.203   2.827  0.7949 -2.6239  1.6480
13954TIP3   OH263352   4.579   6.058  14.540  0.0208 -0.0826 -0.1420
13954TIP3    H163353   4.607   5.972  14.508  0.6406  0.5222 -1.2856
13954TIP3    H263354   4.483   6.051  14.545  0.1379 -1.3714  1.4435
13955TIP3   OH263355   3.000   5.038   4.964  0.3150 -0.1552 -0.0485
13955TIP3    H163356   3.018   5.115   4.911 -0.4304 -0.0425 -0.1487
13955TIP3    H263357   3.053   5.051   5.043 -1.7713  1.8176  1.1699
13956TIP3   OH263358   3.728   3.315   5.194  0.3843  0.2681 -0.5179
13956TIP3    H163359   3.770   3.392   5.233 -0.2023  2.0295 -3.1420
13956TIP3    H263360   3.665   3.287   5.260 -0.1451  2.7222  0.1196
13957TIP3   OH263361   1.561   2.065  14.134  0.1250 -0.6599 -0.5092
13957TIP3    H163362   1.635   2.008  14.114 -0.1080 -0.6837 -1.3483
13957TIP3    H263363   1.491   2.005  14.162  0.1408 -0.7213 -0.5988
13958TIP3   OH263364   4.035   0.043   1.099  0.0531 -0.1097  0.4778
13958TIP3    H163365   3.978   0.025   1.025  1.0359 -0.0492 -0.3153
13958TIP3    H263366   3.992   0.114   1.146 -1.2673 -1.0498  0.7579
13959TIP3   OH263367   2.839   2.071   0.727  0.2647  0.1655  0.1425
13959TIP3    H163368   2.891   2.130   0.781 -0.9448  1.7016 -0.3202
13959TIP3    H263369   2.752   2.111   0.723 -0.8564 -2.0870  0.4907
13960TIP3   OH263370   6.805   1.666   1.560  0.1210  0.6780 -0.1003
13960TIP3    H163371   6.820   1.615   1.639 -0.1253 -0.6047 -0.8561
13960TIP3    H263372   6.750   1.739   1.588 -3.1305 -1.7353  0.3005
13961TIP3   OH263373   1.320   0.021   1.927  0.4204 -0.1683 -0.5051
13961TIP3    H163374   1.389   0.087   1.924  0.8331 -0.5895 -0.4080
13961TIP3    H263375   1.341  -0.039   1.855 -0.4460  0.2792 -1.1560
13962TIP3   OH263376   0.006   1.239   1.624 -0.1312  0.6418 -0.0753
13962TIP3    H163377   0.011   1.322   1.671 -0.6762  0.5083  0.2281
13962TIP3    H263378  -0.085   1.235   1.594  0.5202  1.3865 -2.3621
13963TIP3   OH263379   3.184   5.370  16.397  0.4201 -0.1631  0.6967
13963TIP3    H163380   3.180   5.375  16.492 -2.2315 -0.5581  0.7005
13963TIP3    H263381   3.251   5.305  16.379  1.5222  0.4828  2.2392
13964TIP3   OH263382   5.115   6.760  12.800  0.0949 -0.2269  0.0493
13964TIP3    H163383   5.086   6.781  12.711 -0.4299  1.6298  0.6216
13964TIP3    H263384   5.144   6.669  12.794  1.4235  0.2733 -2.3518
13965TIP3   OH263385   4.629   4.860   1.758  0.0825 -0.5130 -0.4142
13965TIP3    H163386   4.671   4.875   1.674 -0.0862  0.7143 -0.2996
13965TIP3    H263387   4.662   4.931   1.814 -0.7514 -0.5804  0.1819
13966TIP3   OH263388   0.118   3.428   1.210  0.4289 -0.3025  0.0937
13966TIP3    H163389   0.060   3.431   1.286  1.1354  2.2656  0.6232
13966TIP3    H263390   0.206   3.428   1.246  0.7880 -0.7646 -0.7383
13967TIP3   OH263391   1.201   3.438   0.011 -0.1728 -0.2514  0.7687
13967TIP3    H163392   1.124   3.483   0.046  0.9271  1.3949  1.1981
13967TIP3    H263393   1.275   3.489   0.044  1.0233  0.0624 -2.1517
13968TIP3   OH263394   1.309   0.284  16.600 -0.2591  0.4774 -0.0871
13968TIP3    H163395   1.380   0.289  16.664  0.6415 -1.1578 -0.8940
13968TIP3    H263396   1.288   0.375  16.580  1.5200  1.0081  0.2927
13969TIP3   OH263397   2.299   4.265   2.491  0.1412  0.1778 -0.2439
13969TIP3    H163398   2.255   4.287   2.409  0.2996  0.9657 -0.1282
13969TIP3    H263399   2.385   4.232   2.465 -0.3529 -0.9902 -0.4524
13970TIP3   OH263400   5.312   4.199  16.554  0.5370  0.2140  0.5742
13970TIP3    H163401   5.329   4.283  16.594  0.1195 -0.6046  2.5625
13970TIP3    H263402   5.307   4.137  16.627 -3.5884 -0.8407 -0.3243
13971TIP3   OH263403   0.780   4.307   3.763 -0.0535  0.2496 -0.1989
13971TIP3    H163404   0.803   4.235   3.705 -1.3347 -1.2229  1.0345
13971TIP3    H263405   0.702   4.345   3.724 -0.8793 -0.7019  0.4747
13972TIP3   OH263406   5.451   1.876   1.467  0.3703 -0.5217 -0.7159
13972TIP3    H163407   5.474   1.790   1.431 -0.1414 -0.7579 -0.4857
13972TIP3    H263408   5.517   1.935   1.431  1.4104 -1.1984  0.0235
13973TIP3   OH263409   2.909   1.613  12.699 -0.0439  0.4661  0.0593
13973TIP3    H163410   2.966   1.677  12.741  1.1013 -0.0742 -0.6145
13973TIP3    H263411   2.831   1.662  12.673  0.9104  1.6396 -0.6615
13974TIP3   OH263412   4.985   4.053   3.541 -0.1907  0.4830 -0.5805
13974TIP3    H163413   5.061   4.059   3.483 -0.6703 -1.1344 -1.4494
13974TIP3    H263414   4.932   3.982   3.503 -2.3571  1.8448 -0.2768
13975TIP3   OH263415   5.631   1.085   1.643  0.1842 -0.5087  0.4489
13975TIP3    H163416   5.694   1.025   1.604  0.1304 -0.8757  0.9151
13975TIP3    H263417   5.684   1.140   1.702 -0.0636 -1.4899  1.6234
13976TIP3   OH263418   2.506   0.972   2.882 -0.2004 -0.9176 -0.1634
13976TIP3    H163419   2.539   0.884   2.900 -0.7921 -0.8804  1.1606
13976TIP3    H263420   2.424   0.957   2.836 -0.3542 -1.0611  0.1552
13977TIP3   OH263421   6.384   0.427   0.887  0.4510 -0.2430  0.4112
13977TIP3    H163422   6.403   0.382   0.805  0.6129 -0.8944  0.7974
13977TIP3    H263423   6.463   0.478   0.906  0.1202  0.5420 -0.2286
13978TIP3   OH263424   6.783   4.242  10.935  0.0303 -0.3466 -0.1248
13978TIP3    H163425   6.735   4.255  10.853 -1.1091 -1.4071  0.3385
13978TIP3    H263426   6.806   4.149  10.934  0.5253 -0.2357  0.4959
13979TIP3   OH263427   4.390   0.948   0.948  0.0286  0.6941  0.2007
13979TIP3    H163428   4.391   0.976   0.856 -0.0524  2.5078  0.7318
13979TIP3    H263429   4.426   1.021   0.997  0.1800 -0.2912  1.6355
13980TIP3   OH263430   2.103   2.112   6.764  0.4232  0.1634 -0.4488
13980TIP3    H163431   2.016   2.090   6.731 -0.1176  2.0996 -0.4030
13980TIP3    H263432   2.089   2.131   6.857  0.4935  2.4387 -0.8623
13981TIP3   OH263433   0.722   3.478  15.336  0.0754 -0.0158  0.4656
13981TIP3    H163434   0.751   3.528  15.260  0.0230 -0.0585  0.4182
13981TIP3    H263435   0.660   3.535  15.380  2.1232  1.1625  1.9965
13982TIP3   OH263436   1.312   4.195   2.153  0.1287 -0.2379 -0.0156
13982TIP3    H163437   1.399   4.156   2.157 -0.2705 -1.0251  2.2663
13982TIP3    H263438   1.268   4.147   2.082  0.1862 -2.9698  1.6509
13983TIP3   OH263439   2.584   4.835   4.321  0.4576 -0.5149 -0.1771
13983TIP3    H163440   2.525   4.895   4.277 -0.6258  0.4827  2.4588
13983TIP3    H263441   2.671   4.870   4.304 -0.0241  0.6337 -0.3573
13984TIP3   OH263442   1.699   3.810   0.087  0.0158 -0.0346 -0.0469
13984TIP3    H163443   1.634   3.875   0.061  0.3889  0.4858  0.2791
13984TIP3    H263444   1.783   3.855   0.076  0.2229 -0.0648  1.2324
13985TIP3   OH263445   1.585   3.480   3.425 -0.5614 -0.3708  0.0223
13985TIP3    H163446   1.670   3.444   3.400  0.2937  1.1123  0.6041
13985TIP3    H263447   1.560   3.535   3.351 -0.5618 -0.0837  0.2334
13986TIP3   OH263448   6.296   0.918  14.707  0.4401 -0.4162  0.3288
13986TIP3    H163449   6.352   0.994  14.689  0.1309 -0.1742  0.3914
13986TIP3    H263450   6.348   0.843  14.677  0.3771 -0.1097 -0.5877
13987TIP3   OH263451   2.441   5.525  15.991  0.6314  0.5886  0.3562
13987TIP3    H163452   2.400   5.441  15.973  0.6856  0.1425  2.1175
13987TIP3    H263453   2.391   5.588  15.940  1.0543 -0.5682 -1.5897
13988TIP3   OH263454   5.321   2.876   2.397 -0.1881 -0.0709  0.1346
13988TIP3    H163455   5.410   2.847   2.418  0.3867  0.0731 -1.8732
13988TIP3    H263456   5.317   2.872   2.302 -1.2718  2.9299 -0.0604
13989TIP3   OH263457   3.878   4.077   1.142  0.0313  0.5675 -0.4643
13989TIP3    H163458   3.886   4.095   1.236  1.3780 -0.3781 -0.3652
13989TIP3    H263459   3.874   3.982   1.136  0.4535  0.5991 -1.3872
13990TIP3   OH263460   2.577   6.027   4.044 -0.4847 -0.1166 -0.0069
13990TIP3    H163461   2.499   6.036   4.100  0.1732  1.8795  0.6625
13990TIP3    H263462   2.575   6.104   3.988  0.3511 -0.7042 -0.8667
13991TIP3   OH263463   4.280   6.516  14.685 -0.0013  0.0994 -0.0728
13991TIP3    H163464   4.234   6.522  14.601 -1.1626 -1.2674  0.4025
13991TIP3    H263465   4.212   6.536  14.750  0.4895 -0.3509  0.5884
13992TIP3   OH263466   1.947   4.149   3.456 -0.7548  0.3879  0.5291
13992TIP3    H163467   1.990   4.182   3.377 -0.8166  0.6516  0.6038
13992TIP3    H263468   1.889   4.221   3.483 -1.9737 -0.3112 -0.1194
13993TIP3   OH263469   3.250   3.829  15.111  0.6939  0.1254  0.1451
13993TIP3    H163470   3.321   3.767  15.128  0.2493 -0.4676 -0.1295
13993TIP3    H263471   3.173   3.774  15.096  0.2473  0.7517  0.1073
13994TIP3   OH263472   0.235   4.220  11.547 -0.2167  0.4132  0.2707
13994TIP3    H163473   0.217   4.272  11.469  0.5820  0.1017 -0.1291
13994TIP3    H263474   0.319   4.251  11.579  0.2790 -0.6078  0.0211
13995TIP3   OH263475   3.715   5.251   2.463 -0.2094  0.2333 -0.1831
13995TIP3    H163476   3.753   5.194   2.396  0.2584  1.5382 -1.0454
13995TIP3    H263477   3.642   5.295   2.420  0.5257  1.6053 -0.0701
13996TIP3   OH263478   1.944   0.626   4.963 -0.0891 -0.3480  0.3031
13996TIP3    H163479   1.882   0.699   4.965 -0.1876 -0.4317  0.2848
13996TIP3    H263480   1.906   0.564   4.900  0.5271  0.0684 -0.5036
13997TIP3   OH263481   3.388   0.554   1.154 -0.1961 -0.0061 -0.0041
13997TIP3    H163482   3.457   0.620   1.159  0.4117 -0.5445 -0.9229
13997TIP3    H263483   3.434   0.474   1.127 -0.7996 -0.9992  1.7414
13998TIP3   OH263484   4.141   3.209  13.002 -0.1685 -0.0507  0.0644
13998TIP3    H163485   4.070   3.185  13.061  1.7908 -0.3787  2.4648
13998TIP3    H263486   4.203   3.257  13.058  2.8714 -2.3243 -1.0802
13999TIP3   OH263487   5.846   4.882   3.698  0.1575  0.5239 -0.0805
13999TIP3    H163488   5.867   4.955   3.757  0.0171  1.3472 -1.0201
13999TIP3    H263489   5.787   4.920   3.633 -1.7363 -0.9713  0.6685
14000TIP3   OH263490   0.711   2.624   5.386 -0.7419 -0.3984  0.0581
14000TIP3    H163491   0.726   2.679   5.309 -2.1575 -0.4366 -0.2815
14000TIP3    H263492   0.771   2.658   5.452 -0.3460  0.4084 -0.6956
14001TIP3   OH263493   6.340   0.448  10.947  0.6043  0.0956 -0.2612
14001TIP3    H163494   6.342   0.364  10.993  0.7381 -0.2233 -0.8308
14001TIP3    H263495   6.426   0.486  10.964  0.5999  0.0441 -0.1230
14002TIP3   OH263496   1.948   4.086   6.027  0.2605  0.5861 -0.0692
14002TIP3    H163497   2.000   4.122   6.099 -0.1980  0.5047  0.3160
14002TIP3    H263498   1.857   4.101   6.054  0.0863  1.3925 -1.0770
14003TIP3   OH263499   2.286   3.056   4.430 -0.4525  0.1496 -0.2582
14003TIP3    H163500   2.345   3.126   4.403 -0.8373  1.3653  1.8255
14003TIP3    H263501   2.310   2.982   4.375  0.2229  1.7752 -2.2972
14004TIP3   OH263502   5.891   5.039  10.732  0.9729 -0.0948  0.4472
14004TIP3    H163503   5.946   5.111  10.704  0.1082  0.7096  0.7383
14004TIP3    H263504   5.952   4.969  10.756  1.8737  0.9226  1.2025
14005TIP3   OH263505   3.395   2.452  11.796 -0.1082  0.4707 -0.0186
14005TIP3    H163506   3.452   2.500  11.736  0.1603  0.7931  0.4889
14005TIP3    H263507   3.451   2.428  11.869  0.1964 -2.0699 -0.9745
14006TIP3   OH263508   2.053   2.336   1.797  0.1266 -0.1371 -0.2350
14006TIP3    H163509   2.113   2.381   1.737  0.0755  0.3186  0.0591
14006TIP3    H263510   2.003   2.405   1.838 -0.1681 -0.4819 -0.0081
14007TIP3   OH263511   5.799   1.076   2.964  0.1797  0.1277 -0.5165
14007TIP3    H163512   5.747   1.016   2.909 -0.3513  1.3724 -1.4289
14007TIP3    H263513   5.747   1.086   3.043  0.0413 -0.2437 -0.5570
14008TIP3   OH263514   0.710   2.858  13.431  0.1600  0.1528  0.5665
14008TIP3    H163515   0.717   2.767  13.403  2.6156 -0.0685  1.7113
14008TIP3    H263516   0.689   2.854  13.524  0.9611  0.7303  0.7828
14009TIP3   OH263517   6.403   1.904  15.453 -0.3919 -0.2652 -0.1615
14009TIP3    H163518   6.442   1.911  15.540 -2.2819 -3.8236  1.1765
14009TIP3    H263519   6.308   1.907  15.468 -0.8627 -3.1280 -1.6461
14010TIP3   OH263520   3.107   2.624   3.995  0.6344 -0.3780  0.0197
14010TIP3    H163521   3.057   2.675   3.931  0.2233  1.1163  1.4659
14010TIP3    H263522   3.191   2.607   3.952 -0.3899 -1.3118 -1.7215
14011TIP3   OH263523   0.257   6.357   4.918 -0.1796  0.1587 -0.7311
14011TIP3    H163524   0.340   6.386   4.882 -0.0020  0.9822  0.2953
14011TIP3    H263525   0.212   6.314   4.844  1.9353 -2.1043 -0.8214
14012TIP3   OH263526   3.016   0.712  14.911  0.3005  0.2031 -0.3302
14012TIP3    H163527   2.961   0.777  14.867 -1.3332 -1.0296 -0.1998
14012TIP3    H263528   3.006   0.731  15.004  0.2587  0.1157 -0.3164
14013TIP3   OH263529   3.665   2.701   0.464  0.7723  0.4714 -0.4840
14013TIP3    H163530   3.720   2.773   0.494  0.1065  0.2944  1.2606
14013TIP3    H263531   3.613   2.677   0.541  0.8338 -1.7407 -1.0738
14014TIP3   OH263532   3.080   2.981  13.358  0.3513  0.3422  0.4772
14014TIP3    H163533   3.039   2.954  13.440  0.5715  2.1642  1.2306
14014TIP3    H263534   3.174   2.969  13.373  0.3630  0.1744  0.2830
14015TIP3   OH263535   3.656   0.340   2.089  0.1056 -0.4508 -0.2426
14015TIP3    H163536   3.664   0.296   2.005 -1.5858 -0.3398 -0.4983
14015TIP3    H263537   3.586   0.293   2.134  0.4737 -0.0350  0.8035
14016TIP3   OH263538   1.446   2.506  11.096 -0.0719  0.1325 -0.3586
14016TIP3    H163539   1.517   2.462  11.050  0.8943  2.6024 -1.4230
14016TIP3    H263540   1.366   2.473  11.055  0.6826  0.4816 -2.2039
14017TIP3   OH263541   4.322   0.631   1.177 -0.3383  0.9722  0.5495
14017TIP3    H163542   4.287   0.679   1.103  0.8107  1.0822  0.0562
14017TIP3    H263543   4.415   0.654   1.180  0.5726 -2.0430 -0.4341
14018TIP3   OH263544   5.332   5.233   5.320  0.2769  0.1775  0.2486
14018TIP3    H163545   5.276   5.208   5.247  1.4055  1.5727 -1.1441
14018TIP3    H263546   5.275   5.227   5.397 -1.8547  1.6066 -1.1130
14019TIP3   OH263547   5.711   2.410   1.342  0.6566 -0.3632 -0.0158
14019TIP3    H163548   5.679   2.479   1.284  2.4337  0.0846 -0.5333
14019TIP3    H263549   5.647   2.340   1.334  0.6882 -0.2076 -2.3477
14020TIP3   OH263550   6.069   1.753  15.274 -0.6038  0.2609  0.2961
14020TIP3    H163551   6.004   1.823  15.264 -1.6758 -0.6848  0.4385
14020TIP3    H263552   6.111   1.772  15.358 -0.5354  1.0022  0.1070
14021TIP3   OH263553   5.823   1.203   5.019 -0.1045  0.4693  0.4179
14021TIP3    H163554   5.783   1.285   5.045  1.7880  1.8445 -0.7819
14021TIP3    H263555   5.892   1.188   5.084 -0.3088 -0.0715  0.5143
14022TIP3   OH263556   6.129   3.409  13.744  0.4234  0.0378  0.0026
14022TIP3    H163557   6.114   3.376  13.832  0.6531 -0.5982 -0.1905
14022TIP3    H263558   6.065   3.364  13.690 -0.1810  0.9442 -0.0555
14023TIP3   OH263559   1.870   0.843   5.555  0.5002  0.2883  0.0991
14023TIP3    H163560   1.831   0.847   5.643  0.9395 -0.6939  0.3453
14023TIP3    H263561   1.798   0.866   5.496 -0.5912 -1.8448  0.5075
14024TIP3   OH263562   4.140   4.735   0.276  0.2955 -0.4171 -0.1731
14024TIP3    H163563   4.112   4.644   0.265 -1.2895  0.0685 -0.4824
14024TIP3    H263564   4.063   4.778   0.314  0.6699  1.0095 -0.9926
14025TIP3   OH263565   2.634   4.637  13.105  0.1723 -0.3158 -0.4211
14025TIP3    H163566   2.640   4.542  13.109  0.6117 -0.3743 -2.0007
14025TIP3    H263567   2.695   4.663  13.036 -1.4136  0.9462 -1.4249
14026TIP3   OH263568   2.788   3.307  13.551  0.0468  0.1959 -0.5912
14026TIP3    H163569   2.877   3.342  13.559 -0.2460  0.6800  0.8570
14026TIP3    H263570   2.800   3.213  13.535  0.8140  0.3987 -1.2578
14027TIP3   OH263571   3.517   0.469   6.163 -0.1784  0.0677 -0.1679
14027TIP3    H163572   3.489   0.549   6.206 -0.1514  0.4697 -0.8735
14027TIP3    H263573   3.482   0.399   6.218  3.1251  0.4399  2.7273
14028TIP3   OH263574   2.430   1.320   2.808 -0.4589  0.1898  0.1181
14028TIP3    H163575   2.509   1.325   2.862 -1.1110  2.6724  0.9966
14028TIP3    H263576   2.363   1.362   2.861 -1.9610 -0.3229 -1.3063
14029TIP3   OH263577   2.912   6.441  16.338 -0.1467 -0.2812 -0.5678
14029TIP3    H163578   2.986   6.473  16.390 -0.3511  1.6041 -1.3285
14029TIP3    H263579   2.949   6.375  16.281  0.4754 -0.9747  0.6001
14030TIP3   OH263580   1.958   4.971   5.519  0.3448 -0.4335 -0.5370
14030TIP3    H163581   1.894   4.900   5.527  0.3841 -0.4266 -0.1278
14030TIP3    H263582   1.918   5.044   5.567  2.3080 -1.5753  3.2341
14031TIP3   OH263583   2.969   3.907  16.476  0.4854  0.1642  0.3836
14031TIP3    H163584   2.879   3.876  16.465  0.3297  1.0456 -0.9956
14031TIP3    H263585   2.980   3.974  16.408  1.6317  1.2985  1.6220
14032TIP3   OH263586   3.931   6.273  11.571 -0.7767 -0.9403  0.2536
14032TIP3    H163587   3.900   6.185  11.552 -0.1824 -1.2194  0.5718
14032TIP3    H263588   3.987   6.296  11.497  0.5221 -1.5373  1.0373
14033TIP3   OH263589   5.085   1.069   0.141 -0.1681 -0.2146  0.3090
14033TIP3    H163590   5.130   1.017   0.208  0.1195 -0.0150  0.2708
14033TIP3    H263591   5.064   1.006   0.072  0.4860 -0.2163  0.1088
14034TIP3   OH263592   4.185   2.629  12.772 -0.1658  0.0296 -0.2040
14034TIP3    H163593   4.208   2.598  12.684 -2.8232 -3.7206  0.1881
14034TIP3    H263594   4.154   2.719  12.758 -1.2103 -0.6884 -3.3138
14035TIP3   OH263595   6.729   0.976  14.797  0.3829  0.2241  0.1389
14035TIP3    H163596   6.781   0.898  14.816  0.7111  0.3488 -0.2278
14035TIP3    H263597   6.780   1.048  14.833 -0.7489  0.1334  2.0613
14036TIP3   OH263598   0.551   3.594   4.607 -0.0371  0.1063 -0.4142
14036TIP3    H163599   0.585   3.563   4.523  0.8417 -1.2805  0.4089
14036TIP3    H263600   0.482   3.532   4.630 -1.3406  1.3614 -0.7948
14037TIP3   OH263601   1.953   1.305   2.813  0.1705  0.0524 -0.0049
14037TIP3    H163602   1.893   1.324   2.886 -0.3845 -0.5044 -0.3062
14037TIP3    H263603   1.909   1.342   2.736 -0.7671 -2.0367 -0.5500
14038TIP3   OH263604   5.764   5.996  12.853  0.2447 -0.0527  0.0594
14038TIP3    H163605   5.845   5.984  12.804  1.4098  0.6134  1.7421
14038TIP3    H263606   5.710   6.052  12.797  1.2517  0.1488 -0.7371
14039TIP3   OH263607   0.048   6.353   4.710 -0.3670  0.1560 -0.0759
14039TIP3    H163608   0.011   6.270   4.681 -1.4946  0.5115  0.2911
14039TIP3    H263609   0.053   6.406   4.630  0.4327 -0.2788 -0.3240
14040TIP3   OH263610   1.356   1.645   4.343  0.3343 -0.3595  0.3450
14040TIP3    H163611   1.304   1.599   4.408  0.3039 -0.2645  0.3889
14040TIP3    H263612   1.378   1.579   4.278 -0.0441 -0.3446  0.2021
14041TIP3   OH263613   5.916   2.370   6.984 -0.3362 -0.0653  0.3300
14041TIP3    H163614   5.905   2.445   7.043 -0.5974  1.2704 -1.3381
14041TIP3    H263615   5.854   2.305   7.016 -0.2750  0.5151  1.6880
14042TIP3   OH263616   5.445   3.804   5.441  0.0106 -0.3447 -0.5471
14042TIP3    H163617   5.465   3.834   5.352  0.6084 -0.1160 -0.3438
14042TIP3    H263618   5.525   3.760   5.470 -0.3472 -0.8250 -0.2940
14043TIP3   OH263619   0.521   6.670  17.024  0.1397 -0.5349 -0.0044
14043TIP3    H163620   0.511   6.590  17.076 -0.6496 -1.0524 -0.9286
14043TIP3    H263621   0.479   6.650  16.941 -1.3937  1.3642  0.2579
14044TIP3   OH263622   2.144   2.171  17.215  0.3326 -0.1152  0.1338
14044TIP3    H163623   2.176   2.258  17.236  1.8286 -0.3415 -1.0834
14044TIP3    H263624   2.058   2.186  17.176  1.1334  0.9604 -1.2969
14045TIP3   OH263625   4.692   2.457   5.693 -0.3891  0.2032  0.1239
14045TIP3    H163626   4.782   2.477   5.666  0.6343 -2.8288  0.8669
14045TIP3    H263627   4.695   2.457   5.788 -1.2104  0.2182  0.1572
14046TIP3   OH263628   3.390   4.349   3.863  0.2383  0.1286  0.0997
14046TIP3    H163629   3.455   4.281   3.846 -1.2951 -1.5828  0.7535
14046TIP3    H263630   3.357   4.373   3.776 -2.1241 -3.0467 -0.0797
14047TIP3   OH263631   3.840   3.299  16.265  0.2933  0.1435 -0.3097
14047TIP3    H163632   3.839   3.395  16.258  0.7164  0.1096 -0.8331
14047TIP3    H263633   3.880   3.269  16.183  0.3988 -0.4702 -0.0371
14048TIP3   OH263634   3.170   2.258  16.440  0.0662 -0.5960 -0.0069
14048TIP3    H163635   3.172   2.266  16.535 -1.3709  1.4698 -0.0865
14048TIP3    H263636   3.262   2.255  16.413  0.5466  1.1732  1.3092
14049TIP3   OH263637   6.400   4.536  13.218  0.7436  0.1233  0.4164
14049TIP3    H163638   6.456   4.459  13.217  0.3713 -0.1594  0.8612
14049TIP3    H263639   6.440   4.596  13.155  0.7054 -0.6684 -0.3893
14050TIP3   OH263640   3.188   5.246  13.873  0.0807 -0.7467  0.3255
14050TIP3    H163641   3.152   5.307  13.938  0.0557 -1.3714  0.9037
14050TIP3    H263642   3.257   5.297  13.830 -0.3226 -0.1166  0.3989
14051TIP3   OH263643   4.952   6.311   5.887  0.4151 -0.1521 -0.6534
14051TIP3    H163644   5.043   6.296   5.910  0.0897 -0.7874  0.2973
14051TIP3    H263645   4.924   6.383   5.944  0.9953  1.8537 -2.7400
14052TIP3   OH263646   6.736   4.936   0.365 -0.1766 -0.1142 -0.2607
14052TIP3    H163647   6.641   4.947   0.364 -0.1592  0.0901  0.2064
14052TIP3    H263648   6.759   4.918   0.274 -0.8252 -1.6202 -0.1542
14053TIP3   OH263649   3.159   4.781  15.541  0.3669 -0.7224  0.4734
14053TIP3    H163650   3.180   4.803  15.450  1.8251 -0.6526  0.7947
14053TIP3    H263651   3.231   4.724  15.569 -1.0346 -2.3025  1.0211
14054TIP3   OH263652   6.563   5.373  14.779 -0.3357 -0.6122 -0.2976
14054TIP3    H163653   6.575   5.434  14.851 -0.8244 -0.4202 -0.3734
14054TIP3    H263654   6.470   5.382  14.755  0.0573  0.1523 -1.6777
14055TIP3   OH263655   1.663   0.174   1.564 -0.0532  0.1370 -0.0124
14055TIP3    H163656   1.567   0.171   1.558 -0.0310  1.1468 -1.4192
14055TIP3    H263657   1.681   0.226   1.641 -0.6637  0.9910 -0.4313
14056TIP3   OH263658   2.968   3.068   4.542 -0.2214  0.5496 -0.0517
14056TIP3    H163659   3.049   3.093   4.585 -0.4519  0.7222  0.2894
14056TIP3    H263660   2.955   2.976   4.565 -1.0310  0.9875  1.3768
14057TIP3   OH263661   3.441   2.853   5.050  0.0767 -0.2857 -0.1416
14057TIP3    H163662   3.429   2.761   5.025  0.9289 -0.8387  1.3735
14057TIP3    H263663   3.506   2.851   5.119  0.0889  1.4790 -0.0540
14058TIP3   OH263664   5.675   0.461  15.785 -0.3455 -0.3787 -0.5796
14058TIP3    H163665   5.608   0.443  15.720 -1.3876  1.8341 -0.2186
14058TIP3    H263666   5.643   0.420  15.865 -1.6251  1.1428 -0.2644
14059TIP3   OH263667   2.513   3.374   3.283  0.4660  0.2053 -0.4284
14059TIP3    H163668   2.545   3.413   3.201  0.3966  0.3988 -0.3638
14059TIP3    H263669   2.498   3.449   3.341 -0.7531  0.1805 -0.6867
14060TIP3   OH263670   6.757   4.467   5.839  0.0836 -0.4895 -0.5417
14060TIP3    H163671   6.763   4.392   5.898  1.8537  0.2846  0.3187
14060TIP3    H263672   6.821   4.448   5.770  0.9647  0.4715 -0.0076
14061TIP3   OH263673   3.756   5.804   5.957  0.2490  0.5943  0.2598
14061TIP3    H163674   3.754   5.867   5.885 -0.2553 -2.4438 -2.6623
14061TIP3    H263675   3.665   5.776   5.966  0.7533 -1.4732 -0.3779
14062TIP3   OH263676   1.371   6.156  11.905 -0.1050  0.0748 -0.0260
14062TIP3    H163677   1.399   6.065  11.893 -0.5242  0.0425 -0.7986
14062TIP3    H263678   1.425   6.188  11.978  0.6996 -0.5143 -0.3493
14063TIP3   OH263679   5.256   4.755   2.843 -0.2864  0.1653  0.4078
14063TIP3    H163680   5.303   4.774   2.925 -1.6687 -0.5165  1.4064
14063TIP3    H263681   5.261   4.660   2.834 -0.6536  0.1782  0.0290
14064TIP3   OH263682   1.540   6.123   0.695 -0.1634 -0.2351  0.6678
14064TIP3    H163683   1.532   6.029   0.713  0.7983 -0.8020 -1.5298
14064TIP3    H263684   1.566   6.161   0.778 -0.6294 -1.8955  1.6333
14065TIP3   OH263685   4.896   0.456  14.966  0.3488 -0.3938 -0.0527
14065TIP3    H163686   4.874   0.429  14.877 -0.6303  0.4726 -0.0878
14065TIP3    H263687   4.826   0.421  15.020  0.7684 -0.6398  0.3416
14066TIP3   OH263688   5.831   0.899   1.629 -0.0197 -0.2658  0.6057
14066TIP3    H163689   5.924   0.898   1.650 -0.2796 -0.4454  1.8322
14066TIP3    H263690   5.797   0.817   1.665 -0.6017 -0.3408 -0.0892
14067TIP3   OH263691   5.529   5.614  15.849  0.5947  0.2479  0.3967
14067TIP3    H163692   5.444   5.630  15.810  0.0313 -1.0404  1.0272
14067TIP3    H263693   5.592   5.643  15.783 -0.3361 -0.0676 -0.6508
14068TIP3   OH263694   3.266   0.283   4.677 -0.0272 -0.2946 -0.0464
14068TIP3    H163695   3.179   0.322   4.666  0.6342  0.9023 -1.6136
14068TIP3    H263696   3.266   0.249   4.766 -1.7956  0.4557  0.2976
14069TIP3   OH263697   3.699   0.777  16.140  0.0496 -0.0711  0.0546
14069TIP3    H163698   3.775   0.829  16.165  0.0825  0.7525 -1.6200
14069TIP3    H263699   3.624   0.827  16.173  0.1818 -0.2486  0.6277
14070TIP3   OH263700   1.437   2.921  16.980  0.1083 -0.1059  0.1529
14070TIP3    H163701   1.393   2.874  17.050  0.6124  1.0778  1.2982
14070TIP3    H263702   1.387   2.900  16.901 -0.8535 -0.9384  0.9702
14071TIP3   OH263703   2.941   2.175   5.903  0.0500 -0.2200  0.0126
14071TIP3    H163704   2.977   2.195   5.817  0.6966 -0.8303  0.1318
14071TIP3    H263705   2.901   2.257   5.932 -2.4049 -0.6148 -1.9181
14072TIP3   OH263706   4.135   5.783   0.902 -0.3334 -0.0028  0.4982
14072TIP3    H163707   4.098   5.704   0.864 -0.3496  0.0203  0.4663
14072TIP3    H263708   4.160   5.837   0.827 -2.5237  1.0840  0.4715
14073TIP3   OH263709   0.100   5.903   2.333 -0.4652 -0.3693  0.0784
14073TIP3    H163710   0.084   5.810   2.318 -1.2559 -0.4079  1.0903
14073TIP3    H263711   0.030   5.948   2.285 -0.2257 -0.2991 -0.2094
14074TIP3   OH263712   4.685   4.882   3.130  0.1208  0.4629 -0.3514
14074TIP3    H163713   4.594   4.866   3.108  0.0021  0.4054  0.1539
14074TIP3    H263714   4.708   4.964   3.086 -0.0642  0.2873 -0.7744
14075TIP3   OH263715   6.543   1.824   5.738 -0.2715  0.2958  0.2519
14075TIP3    H163716   6.471   1.788   5.789  1.0134 -0.7450  1.4214
14075TIP3    H263717   6.592   1.879   5.798  1.6772 -1.5093  0.4821
14076TIP3   OH263718   4.209   0.246   5.932 -0.6825 -0.2769  0.0794
14076TIP3    H163719   4.161   0.278   5.856 -0.6836  1.1615  0.6567
14076TIP3    H263720   4.227   0.154   5.913 -1.7624 -0.2566 -1.1012
14077TIP3   OH263721   4.760   6.375   1.230  0.2462 -0.0002 -0.3310
14077TIP3    H163722   4.762   6.462   1.189 -1.3398  0.7711  1.0806
14077TIP3    H263723   4.788   6.391   1.320 -1.1475 -0.7455  0.2573
14078TIP3   OH263724   1.596   4.068  12.223  0.1901  0.5530  0.0950
14078TIP3    H163725   1.677   4.070  12.275 -0.3055 -0.1413  0.9282
14078TIP3    H263726   1.555   3.985  12.247  0.6042 -0.4563 -2.4688
14079TIP3   OH263727   1.958   0.877  13.876  0.2376  0.0227 -0.0858
14079TIP3    H163728   2.048   0.857  13.898  0.3298 -1.4666 -1.5657
14079TIP3    H263729   1.964   0.951  13.815  0.7041 -1.4998 -1.9842
14080TIP3   OH263730   6.654   5.568  16.928  0.2198 -0.5115 -0.2284
14080TIP3    H163731   6.570   5.533  16.955  1.3898 -3.0267  0.5161
14080TIP3    H263732   6.639   5.605  16.841 -1.9166  0.4313  0.4970
14081TIP3   OH263733   2.385   3.379  12.926 -0.5583 -0.0400 -0.4663
14081TIP3    H163734   2.406   3.289  12.901 -2.0081 -0.6814  0.4682
14081TIP3    H263735   2.293   3.376  12.951 -1.5124  2.3218 -3.1222
14082TIP3   OH263736   1.696   4.009  11.774  0.2570  0.1224 -0.0057
14082TIP3    H163737   1.769   4.007  11.835  1.0005  1.3553 -0.8048
14082TIP3    H263738   1.634   3.945  11.808  2.2458 -1.9149  0.0065
14083TIP3   OH263739   5.162   6.591   5.887  0.6426  0.1973  0.1817
14083TIP3    H163740   5.150   6.497   5.901  1.1447 -0.0303 -0.8338
14083TIP3    H263741   5.257   6.601   5.877  0.4915  0.6115 -0.9792
14084TIP3   OH263742   1.474   0.439   1.150  0.2118  0.0498  0.0330
14084TIP3    H163743   1.384   0.408   1.159  0.6080 -1.5789 -1.1820
14084TIP3    H263744   1.468   0.512   1.089 -0.4940  1.2239  1.4422
14085TIP3   OH263745   0.228   1.606   5.156 -0.3103 -0.4084 -0.2869
14085TIP3    H163746   0.157   1.645   5.207 -2.1208 -0.9903 -2.2108
14085TIP3    H263747   0.241   1.520   5.196  1.2924  0.7056  1.7837
14086TIP3   OH263748   2.693   5.358  10.943  0.0102  0.5265 -0.4068
14086TIP3    H163749   2.737   5.278  10.974  2.4786  1.7640 -0.4600
14086TIP3    H263750   2.600   5.341  10.957  0.4890 -2.0971  0.1749
14087TIP3   OH263751   2.408   4.235  11.206  0.3580 -0.1074 -0.2051
14087TIP3    H163752   2.411   4.147  11.168 -3.4775 -0.7075  0.4862
14087TIP3    H263753   2.480   4.282  11.164  1.8056 -3.2092 -1.4823
14088TIP3   OH263754   1.528   0.009   1.009  0.4732 -0.0893  0.3089
14088TIP3    H163755   1.439   0.003   1.045  0.1126 -0.1214 -0.5463
14088TIP3    H263756   1.545   0.103   1.002 -0.5101 -0.0032 -1.8461
14089TIP3   OH263757   0.061   5.461  15.013 -0.0529 -0.4268  0.6116
14089TIP3    H163758   0.141   5.514  15.018 -1.2005  1.6799 -1.4986
14089TIP3    H263759   0.093   5.371  15.007  2.1157  0.2716  0.8439
14090TIP3   OH263760   6.406   4.209   2.705  0.4719 -0.3120 -0.0756
14090TIP3    H163761   6.449   4.205   2.790  1.3820  1.0659 -0.4254
14090TIP3    H263762   6.441   4.134   2.656  0.4166 -0.7479  0.5508
14091TIP3   OH263763   5.432   0.003   1.096 -0.1958 -0.8713 -0.6060
14091TIP3    H163764   5.504  -0.056   1.074  0.7840  0.9260 -2.6472
14091TIP3    H263765   5.377   0.006   1.018 -1.8546 -1.2662  0.4899
14092TIP3   OH263766   1.433   1.809   1.358  0.7009  0.3665 -0.4182
14092TIP3    H163767   1.390   1.724   1.365  0.4912  0.6187  3.1138
14092TIP3    H263768   1.516   1.791   1.314  0.7228 -1.7195  0.3743
14093TIP3   OH263769   0.974   3.250  12.204  0.2270 -0.0364  0.3610
14093TIP3    H163770   0.901   3.206  12.161  0.6638 -0.3494 -0.0585
14093TIP3    H263771   1.042   3.184  12.212  0.4081  0.2081  0.9059
14094TIP3   OH263772   1.578   0.936  14.432  0.2902  0.4106  0.6019
14094TIP3    H163773   1.484   0.949  14.419  0.2930 -0.2360 -0.2040
14094TIP3    H263774   1.588   0.841  14.437  1.0636  0.3887 -0.7959
14095TIP3   OH263775   0.986   6.064   0.743  0.4081  0.2303 -0.0902
14095TIP3    H163776   1.066   6.012   0.736  0.5724  0.5887 -1.0458
14095TIP3    H263777   0.933   6.018   0.808  0.1015 -1.7331 -1.6237
14096TIP3   OH263778   2.357   5.838  16.238 -0.7887  0.7810  0.3344
14096TIP3    H163779   2.329   5.828  16.147 -1.1931 -1.1322  0.6321
14096TIP3    H263780   2.342   5.930  16.257 -0.2539  1.3526 -1.6673
14097TIP3   OH263781   4.888   1.659   5.070 -0.2905  0.2008  0.0352
14097TIP3    H163782   4.821   1.613   5.121  0.1163 -0.4912 -0.0475
14097TIP3    H263783   4.843   1.687   4.991 -0.3930 -0.6046 -0.1976
14098TIP3   OH263784   6.792   3.467   5.493 -0.2523  0.6754 -0.5031
14098TIP3    H163785   6.854   3.396   5.513 -2.5739 -2.0633 -2.2820
14098TIP3    H263786   6.847   3.545   5.487  2.5804 -1.0208  0.9007
14099TIP3   OH263787   5.671   2.703  15.810 -0.6070  0.3053  0.6107
14099TIP3    H163788   5.672   2.648  15.732  0.0048  0.6302  0.3846
14099TIP3    H263789   5.742   2.765  15.797 -1.3153  1.1935  0.8263
14100TIP3   OH263790   0.217   6.085  13.793  0.0987  0.0678 -0.9567
14100TIP3    H163791   0.301   6.062  13.752  2.2024  1.6748  2.0652
14100TIP3    H263792   0.195   6.170  13.757 -0.5123 -0.5185 -2.0338
14101TIP3   OH263793   0.157   1.331   0.081 -0.1315  0.4502  0.2121
14101TIP3    H163794   0.134   1.252   0.129 -0.9228 -0.6039 -1.7648
14101TIP3    H263795   0.241   1.311   0.039  0.0524  0.9661  0.3196
14102TIP3   OH263796   5.657   4.224  15.280 -0.5944  0.1053  0.1217
14102TIP3    H163797   5.613   4.200  15.198 -1.5756  0.1796  0.6134
14102TIP3    H263798   5.650   4.319  15.284 -1.2697  0.0426  0.6730
14103TIP3   OH263799   0.516   2.753   4.457 -0.1057  1.1311 -0.7323
14103TIP3    H163800   0.603   2.792   4.456 -0.4368  1.9132 -0.3318
14103TIP3    H263801   0.495   2.744   4.550  0.3579 -0.9714 -0.7786
14104TIP3   OH263802   4.436   5.156  14.228  0.3036  0.4271 -0.4476
14104TIP3    H163803   4.488   5.108  14.164 -0.1335  2.8821 -2.8487
14104TIP3    H263804   4.460   5.118  14.313  1.4254 -2.5354 -1.9606
14105TIP3   OH263805   6.387   6.065  12.355  0.2868  0.3447  0.1090
14105TIP3    H163806   6.325   6.114  12.300  0.7885 -0.3069 -1.0602
14105TIP3    H263807   6.473   6.101  12.333  0.5213 -0.1142  0.2609
14106TIP3   OH263808   1.861   2.078  16.401 -0.1396 -0.1050 -0.3038
14106TIP3    H163809   1.775   2.053  16.433 -0.8566 -0.4192 -2.3832
14106TIP3    H263810   1.875   2.025  16.323  1.6917  0.3631 -0.3404
14107TIP3   OH263811   0.905   1.507   1.026  0.1358 -0.1671  0.4261
14107TIP3    H163812   0.878   1.492   1.117 -2.2559 -1.7119 -0.4150
14107TIP3    H263813   0.878   1.597   1.008  0.7469  0.1995  1.2636
14108TIP3   OH263814   5.049   0.394   2.041  0.0883 -0.0226 -0.2297
14108TIP3    H163815   5.032   0.478   2.000 -0.5685  0.9617  1.9128
14108TIP3    H263816   5.117   0.412   2.106  0.7936 -1.4051 -0.5598
14109TIP3   OH263817   3.783   4.888  13.804 -0.4745 -0.1593 -0.1244
14109TIP3    H163818   3.726   4.932  13.867 -2.1355 -0.5668 -1.2926
14109TIP3    H263819   3.813   4.957  13.745 -1.1567 -0.2207 -0.5410
14110TIP3   OH263820   4.903   6.320  13.213 -0.2743 -0.1373 -0.1923
14110TIP3    H163821   4.912   6.350  13.303 -1.9119  2.4999 -0.7786
14110TIP3    H263822   4.831   6.256  13.216 -0.0998 -0.3070  0.4229
14111TIP3   OH263823   4.251   2.143   1.147 -0.1964  0.6334  0.0262
14111TIP3    H163824   4.330   2.165   1.196  0.0238  1.5763 -0.7181
14111TIP3    H263825   4.179   2.175   1.201  0.0101  1.0651  0.0488
14112TIP3   OH263826   6.767   6.565   2.476  0.1857  0.2323 -0.4662
14112TIP3    H163827   6.735   6.511   2.403 -1.1441  0.9184 -0.4254
14112TIP3    H263828   6.862   6.559   2.470  0.0897 -0.5940 -1.6032
14113TIP3   OH263829   6.287   4.008   2.373  0.1683 -0.3360 -0.6305
14113TIP3    H163830   6.207   4.059   2.384  0.9143  0.6599  0.2800
14113TIP3    H263831   6.351   4.070   2.337  1.1294 -0.5626  0.6251
14114TIP3   OH263832   3.894   1.242  16.973  0.1142  0.4185  0.2607
14114TIP3    H163833   3.974   1.204  16.937  0.3717  0.9817  0.2312
14114TIP3    H263834   3.920   1.328  17.006 -0.4653  0.5894  0.2983
14115TIP3   OH263835   1.961   1.777  16.741 -0.0109  0.5468 -0.2692
14115TIP3    H163836   1.944   1.705  16.802 -2.6269  0.4240 -0.9969
14115TIP3    H263837   1.940   1.741  16.655 -1.4245  2.1369 -0.6535
14116TIP3   OH263838   6.703   2.872   4.374  0.0273  0.1080 -0.0884
14116TIP3    H163839   6.617   2.859   4.334  1.5919 -0.7190 -3.5829
14116TIP3    H263840   6.716   2.796   4.431 -1.7053  0.5297  0.9343
14117TIP3   OH263841   2.155   6.003  11.448  0.3488  0.5028 -0.2568
14117TIP3    H163842   2.171   5.913  11.419  1.3593  0.6533 -0.1977
14117TIP3    H263843   2.233   6.026  11.500 -1.3599  0.2409  2.6168
14118TIP3   OH263844   5.873   5.235   4.359 -0.2229  0.2950  0.0924
14118TIP3    H163845   5.807   5.210   4.424 -0.3534 -0.6467 -0.3811
14118TIP3    H263846   5.952   5.252   4.411 -1.0431  2.3087  0.7501
14119TIP3   OH263847   4.539   2.788  14.627  0.7451 -0.1595  0.0806
14119TIP3    H163848   4.484   2.808  14.703 -0.0837 -1.9569  0.0362
14119TIP3    H263849   4.551   2.871  14.583 -2.7587  0.2733 -0.3875
14120TIP3   OH263850   5.549   5.736   4.331  0.4412 -0.2625 -0.0745
14120TIP3    H163851   5.457   5.711   4.342  0.3095  0.0604 -0.4040
14120TIP3    H263852   5.565   5.727   4.237  0.9509 -0.9882  0.0717
14121TIP3   OH263853   5.670   4.863  13.816  0.3353  0.0026 -0.0280
14121TIP3    H163854   5.674   4.823  13.729  1.8942  0.6965 -0.3115
14121TIP3    H263855   5.679   4.789  13.876  2.7401 -0.2346 -0.5454
14122TIP3   OH263856   5.431   4.946  10.982 -0.6661 -0.0509  0.4265
14122TIP3    H163857   5.503   4.963  10.922  0.5474 -0.3463  1.7445
14122TIP3    H263858   5.388   4.869  10.946  1.5886 -1.7937  1.1955
14123TIP3   OH263859   6.406   1.626   5.915  0.2041 -0.1793  0.1723
14123TIP3    H163860   6.410   1.531   5.904  3.3459 -0.1249  0.1891
14123TIP3    H263861   6.360   1.638   5.999  1.6762 -1.8146  1.2765
14124TIP3   OH263862   0.592   0.918  16.012  0.0168 -0.4560  0.1003
14124TIP3    H163863   0.525   0.874  15.958 -0.3031 -0.1643  0.2557
14124TIP3    H263864   0.668   0.860  16.007 -0.4035 -1.0377  0.3058
14125TIP3   OH263865   4.092   3.962  16.601 -0.3652  0.5220 -0.8595
14125TIP3    H163866   4.032   3.904  16.648  2.3026 -1.4637  0.4218
14125TIP3    H263867   4.096   3.926  16.513  0.1509 -0.3881 -0.4792
14126TIP3   OH263868   5.144   3.623  11.256 -0.0562  0.2975 -0.2106
14126TIP3    H163869   5.107   3.644  11.171 -0.6418 -2.0438 -0.6048
14126TIP3    H263870   5.214   3.561  11.237 -0.1733 -0.2322  0.9796
14127TIP3   OH263871   3.325   5.167   2.413 -0.2321  0.2516 -0.2036
14127TIP3    H163872   3.338   5.261   2.426  2.1987  0.1589 -1.4311
14127TIP3    H263873   3.274   5.139   2.489 -0.9159  2.5280  0.2472
14128TIP3   OH263874   5.967   0.902   4.899  0.4673  0.6422  0.2818
14128TIP3    H163875   6.055   0.869   4.914  1.9600  3.8151 -0.4888
14128TIP3    H263876   5.932   0.919   4.986  0.4398 -0.9568  0.6012
14129TIP3   OH263877   3.264   6.367  17.162 -0.6333 -0.3863 -0.4912
14129TIP3    H163878   3.207   6.337  17.234  0.9565 -1.6379  0.3180
14129TIP3    H263879   3.353   6.352  17.195  0.1637  0.8995 -1.9743
14130TIP3   OH263880   3.526   3.715  12.493 -0.7185  0.2808 -0.5944
14130TIP3    H163881   3.512   3.669  12.576  4.2986  0.9081  0.9277
14130TIP3    H263882   3.438   3.727  12.457 -2.8822 -3.4499  2.6744
14131TIP3   OH263883   1.930   1.559   1.401 -0.2625  0.1682  0.3568
14131TIP3    H163884   1.943   1.479   1.452  0.2157  0.0494  0.0503
14131TIP3    H263885   1.939   1.630   1.465 -3.3053 -0.0625  1.1908
14132TIP3   OH263886   6.076   4.170   4.145  0.1203  0.4731  0.4416
14132TIP3    H163887   6.065   4.154   4.239  0.0485  0.0069  0.3522
14132TIP3    H263888   6.166   4.204   4.137 -0.5664  2.5508  0.9385
14133TIP3   OH263889   0.986   5.369  16.128 -0.3957 -0.3513 -0.0122
14133TIP3    H163890   0.956   5.303  16.191 -0.7627 -0.3355 -0.1666
14133TIP3    H263891   0.988   5.323  16.044 -0.6595 -0.1699 -0.1216
14134TIP3   OH263892   2.432   3.094  10.894 -0.6234 -0.2582 -0.8680
14134TIP3    H163893   2.457   3.002  10.891 -3.1685 -1.1431  1.2047
14134TIP3    H263894   2.513   3.142  10.875  1.1977 -2.8681 -0.2149
14135TIP3   OH263895   5.847   1.687  16.500  0.0101 -0.2474  0.7818
14135TIP3    H163896   5.792   1.618  16.465  1.2125 -0.6155 -0.4863
14135TIP3    H263897   5.802   1.768  16.476 -0.1099 -0.5435 -0.0136
14136TIP3   OH263898   0.345   2.893  12.498 -0.5421  0.0804 -0.6750
14136TIP3    H163899   0.365   2.949  12.423  0.7629  0.6790  0.0893
14136TIP3    H263900   0.322   2.809  12.459 -1.8233  0.9264 -1.8154
14137TIP3   OH263901   5.794   0.359  13.960  0.4817  0.5218  0.0992
14137TIP3    H163902   5.712   0.319  13.990  1.1925  0.1493  1.6273
14137TIP3    H263903   5.830   0.295  13.899  0.9308 -0.5890  1.4801
14138TIP3   OH263904   0.088   3.896   4.625  0.2101 -0.2227 -0.2535
14138TIP3    H163905   0.001   3.907   4.587 -0.1525  0.6773  0.7925
14138TIP3    H263906   0.095   3.802   4.642 -2.0010  0.0319  2.8642
14139TIP3   OH263907   5.513   4.624   2.249 -0.0656 -0.0689 -0.1118
14139TIP3    H163908   5.476   4.607   2.162  2.1246  1.4497 -1.4481
14139TIP3    H263909   5.503   4.719   2.261  2.0008  0.1670  0.0739
14140TIP3   OH263910   2.983   0.783  12.970  0.3986  0.4576 -0.0775
14140TIP3    H163911   3.015   0.814  13.055  0.0819  0.8247 -0.0914
14140TIP3    H263912   2.891   0.808  12.968  0.8996  2.5151 -1.4554
14141TIP3   OH263913   5.264   5.408   4.348  0.1254  0.4850 -0.2164
14141TIP3    H163914   5.245   5.498   4.375  0.4309  0.7013 -0.7055
14141TIP3    H263915   5.349   5.388   4.388  0.0187  0.3847 -0.0396
14142TIP3   OH263916   1.655   3.684   3.737  0.2971  0.3492  0.1517
14142TIP3    H163917   1.617   3.729   3.813 -1.5615  0.5344 -0.8317
14142TIP3    H263918   1.613   3.598   3.737  1.4754 -0.2372  0.2159
14143TIP3   OH263919   5.495   1.261   0.883 -0.1194 -0.0979  0.3236
14143TIP3    H163920   5.435   1.301   0.946 -2.1752 -2.1976 -0.1981
14143TIP3    H263921   5.471   1.300   0.799 -0.5982 -0.7574  0.1509
14144TIP3   OH263922   0.027   3.688   1.099 -0.2479  0.2502  0.0481
14144TIP3    H163923   0.013   3.594   1.115  0.3251 -0.1698 -1.7096
14144TIP3    H263924   0.104   3.692   1.043 -0.8636  1.6984 -0.7559
14145TIP3   OH263925   1.498   6.183  15.816  0.2828  0.0971 -0.4409
14145TIP3    H163926   1.431   6.169  15.883  0.7990  1.2174  0.3340
14145TIP3    H263927   1.488   6.109  15.757 -2.4696  0.7881 -1.0239
14146TIP3   OH263928   2.090   2.849   3.196  0.0766  0.1346  0.2313
14146TIP3    H163929   2.056   2.840   3.107 -0.1767 -0.5141  0.3899
14146TIP3    H263930   2.160   2.913   3.188 -0.0743  0.2285 -0.4018
14147TIP3   OH263931   4.484   5.211  16.292  0.3562 -0.2267 -0.2132
14147TIP3    H163932   4.467   5.298  16.256 -2.3207  0.0520  1.4519
14147TIP3    H263933   4.462   5.151  16.222  0.6937  0.4006 -0.8661
14148TIP3   OH263934   2.059   1.908   5.099  0.0982 -0.0075 -0.1186
14148TIP3    H163935   2.041   1.831   5.045  1.0789 -1.0986  1.0371
14148TIP3    H263936   2.017   1.890   5.182  0.8300  0.4285  0.3632
14149TIP3   OH263937   6.497   4.692  16.623  0.4227 -0.6095 -0.6192
14149TIP3    H163938   6.442   4.764  16.592 -1.1912 -0.2168  2.6936
14149TIP3    H263939   6.436   4.618  16.631  0.2159 -0.1983  3.0050
14150TIP3   OH263940   2.906   4.424  13.827 -0.8543 -0.2245 -0.0040
14150TIP3    H163941   2.857   4.505  13.815  0.4619  0.3626 -1.6707
14150TIP3    H263942   2.911   4.385  13.740  0.5448 -0.9065  0.3468
14151TIP3   OH263943   6.310   5.929   6.631 -0.2306 -0.3042 -0.4185
14151TIP3    H163944   6.375   5.986   6.673 -1.0883  0.2498  0.1831
14151TIP3    H263945   6.307   5.851   6.686  0.1030 -0.4475 -0.5965
14152TIP3   OH263946   6.749   1.866  13.585 -0.0662  0.1938  0.4490
14152TIP3    H163947   6.693   1.893  13.657 -1.8493  1.8557 -1.4257
14152TIP3    H263948   6.688   1.849  13.512  1.5737 -2.0987 -0.5313
14153TIP3   OH263949   0.179   5.884   0.730 -0.5365 -0.4861 -0.1068
14153TIP3    H163950   0.135   5.813   0.776 -1.4376 -0.9096 -1.5571
14153TIP3    H263951   0.271   5.858   0.727  0.2927  1.0274  4.1536
14154TIP3   OH263952   4.574   0.058  11.954  0.3795  0.3766  0.3706
14154TIP3    H163953   4.588   0.047  12.048  0.6139 -2.3721  0.0897
14154TIP3    H263954   4.658   0.036  11.914  0.2067  1.2437 -0.5233
14155TIP3   OH263955   5.062   0.844   5.842  0.3930  0.7428 -0.2543
14155TIP3    H163956   5.023   0.832   5.928 -0.4463  2.0780 -0.4181
14155TIP3    H263957   5.155   0.826   5.855  0.1006 -0.2009  0.6537
14156TIP3   OH263958   3.745   2.274  16.773 -0.1358  0.1803  0.3887
14156TIP3    H163959   3.832   2.308  16.792  0.3492 -0.7818 -0.0139
14156TIP3    H263960   3.761   2.188  16.734 -1.2237  0.4159 -0.6513
14157TIP3   OH263961   5.443   3.727   0.776 -0.0950 -0.1054  0.2904
14157TIP3    H163962   5.364   3.780   0.762 -0.0140  0.0945  0.5766
14157TIP3    H263963   5.435   3.656   0.713 -0.3743  0.0605  0.1343
14158TIP3   OH263964   5.013   5.761  13.940 -0.0460  0.4526  0.6057
14158TIP3    H163965   5.078   5.831  13.943  0.8887 -0.4399  2.3375
14158TIP3    H263966   4.958   5.776  14.018  0.0242 -0.5891  0.8704
14159TIP3   OH263967   0.376   3.416   1.268  0.6510 -0.1804  0.0517
14159TIP3    H163968   0.428   3.387   1.193 -0.2625 -0.1229 -0.6238
14159TIP3    H263969   0.437   3.468   1.320  1.6546 -1.2951  0.0403
14160TIP3   OH263970   3.246   5.304   5.263 -0.3738 -0.2021  0.4433
14160TIP3    H163971   3.249   5.384   5.210 -0.4275  0.3171  1.2042
14160TIP3    H263972   3.164   5.310   5.310  0.0395 -0.2658  1.1824
14161TIP3   OH263973   1.008   1.623  15.502  0.3916  0.2752 -0.0947
14161TIP3    H163974   1.046   1.614  15.590  0.8708  0.1315 -0.3187
14161TIP3    H263975   1.049   1.701  15.465  1.8123 -0.8732 -1.0164
14162TIP3   OH263976   2.335   4.415  15.863 -0.6107 -0.2494  0.4383
14162TIP3    H163977   2.375   4.363  15.794  0.0288 -1.9521  2.0332
14162TIP3    H263978   2.298   4.491  15.817 -0.7216 -1.5955 -1.8272
14163TIP3   OH263979   0.927   3.539  13.600  0.3091 -0.9223  0.2444
14163TIP3    H163980   0.916   3.570  13.690 -0.6013 -1.0298  0.1764
14163TIP3    H263981   0.965   3.614  13.554 -0.2634 -0.4895  0.4701
14164TIP3   OH263982   2.644   0.918  11.400  0.2730  0.0638  0.0483
14164TIP3    H163983   2.735   0.909  11.430  0.3732  3.6995  1.4104
14164TIP3    H263984   2.651   0.946  11.309  0.4173 -1.0044 -0.2818
14165TIP3   OH263985   6.515   3.373   1.848 -0.1413 -0.2880 -0.0558
14165TIP3    H163986   6.591   3.401   1.797  1.3115 -1.8015  1.1870
14165TIP3    H263987   6.542   3.380   1.939 -1.0484 -1.9826  0.3911
14166TIP3   OH263988   0.025   2.877   1.391 -0.3791 -0.6024  0.5205
14166TIP3    H163989  -0.016   2.942   1.335 -2.1855 -1.0546  1.2466
14166TIP3    H263990   0.043   2.923   1.473 -1.8742 -1.0191  1.1190
14167TIP3   OH263991   1.566   6.343  17.088 -0.3660 -0.4835 -0.7293
14167TIP3    H163992   1.657   6.312  17.087  0.5706  1.9798 -0.6733
14167TIP3    H263993   1.549   6.361  17.181 -0.6775 -0.3151 -0.8205
14168TIP3   OH263994   4.078   1.360  12.072 -0.1444  0.2988  0.1947
14168TIP3    H163995   4.105   1.277  12.031 -0.3221  0.8940 -1.1842
14168TIP3    H263996   4.161   1.405  12.091 -0.0415 -0.2258  1.0676
14169TIP3   OH263997   0.398   4.320  17.078 -0.8187  0.0335  0.4677
14169TIP3    H163998   0.435   4.305  16.991  1.1143  1.0584  1.0470
14169TIP3    H263999   0.331   4.386  17.066 -1.8467 -1.1541 -0.4889
14170TIP3   OH264000   3.783   2.137  17.139 -0.0809 -0.0289 -0.3401
14170TIP3    H164001   3.871   2.175  17.133 -0.0816  0.0634  0.1814
14170TIP3    H264002   3.732   2.204  17.184 -0.8867  0.7076 -2.2308
14171TIP3   OH264003   1.572   1.301  11.622  0.0959 -0.1489  0.5308
14171TIP3    H164004   1.508   1.243  11.663 -1.6904  0.1641 -1.6483
14171TIP3    H264005   1.563   1.285  11.528  1.3705  1.8228  0.0141
14172TIP3   OH264006   5.713   4.349   0.083 -0.1027  0.2523  0.0584
14172TIP3    H164007   5.733   4.299   0.004 -1.9968 -0.3016 -0.1301
14172TIP3    H264008   5.630   4.311   0.114 -1.0907  2.5962  0.4656
14173TIP3   OH264009   5.832   5.963   1.256 -0.5579 -0.8233 -0.4652
14173TIP3    H164010   5.802   6.051   1.280 -0.9636 -1.2195  0.5537
14173TIP3    H264011   5.899   5.978   1.190 -2.3108  0.1483 -2.1423
14174TIP3   OH264012   1.132   0.652  15.283  0.2706  0.4043 -0.3438
14174TIP3    H164013   1.044   0.617  15.293  0.5708  0.0327  1.1606
14174TIP3    H264014   1.164   0.612  15.202 -0.8371  0.3456 -0.7706
14175TIP3   OH264015   3.449   5.277   2.771 -0.0269  0.0110  0.4873
14175TIP3    H164016   3.451   5.235   2.857 -0.0655 -3.0088 -0.8437
14175TIP3    H264017   3.368   5.328   2.771 -0.5086 -0.6926  1.9354
14176TIP3   OH264018   2.485   1.100   1.487 -0.2022 -0.3829 -0.6130
14176TIP3    H164019   2.500   1.006   1.494  1.3277 -0.0736  0.7072
14176TIP3    H264020   2.418   1.119   1.553 -0.1558 -0.4632 -0.5432
14177TIP3   OH264021   6.712   2.581   6.052  0.0739 -0.1570 -0.1624
14177TIP3    H164022   6.760   2.603   6.133 -0.8341  0.1161  0.3134
14177TIP3    H264023   6.701   2.487   6.056 -1.2480  0.0178  0.7772
14178TIP3   OH264024   0.678   6.303   3.667 -0.4224 -0.3767  0.0105
14178TIP3    H164025   0.773   6.307   3.658 -0.5764  2.2349 -1.6433
14178TIP3    H264026   0.654   6.217   3.633  1.3565 -1.3910  1.1522
14179TIP3   OH264027   3.005   4.085   0.820 -0.0997 -0.3841 -0.2527
14179TIP3    H164028   3.083   4.097   0.766  1.7719  1.3115  2.5482
14179TIP3    H264029   2.971   4.174   0.834 -0.7990 -0.7988  0.9014
14180TIP3   OH264030   5.900   0.134   1.563  0.2093  0.0158  0.3119
14180TIP3    H164031   5.847   0.105   1.638  0.8059  0.3342  0.8584
14180TIP3    H264032   5.977   0.175   1.602  2.1531 -2.6614 -0.4443
14181TIP3   OH264033   2.974   0.570   1.937 -0.2274  0.1141  0.3403
14181TIP3    H164034   2.988   0.478   1.916  1.9363  0.5916 -0.5752
14181TIP3    H264035   3.057   0.612   1.916 -1.3011  2.3593  0.3242
14182TIP3   OH264036   2.588   5.239   4.391  0.6493 -0.1047 -1.1133
14182TIP3    H164037   2.624   5.163   4.438  2.4447  1.6724  0.6019
14182TIP3    H264038   2.660   5.271   4.338  0.4009  1.2180 -0.6924
14183TIP3   OH264039   0.235   3.312  14.995  0.1052  0.5290  0.0639
14183TIP3    H164040   0.236   3.217  15.009  3.7745  0.4497  0.3164
14183TIP3    H264041   0.277   3.348  15.073 -3.8276  2.8033  1.4101
14184TIP3   OH264042   6.411   0.558   3.680 -0.7940  0.5019  0.4380
14184TIP3    H164043   6.367   0.568   3.764 -1.2122 -0.2186  0.3135
14184TIP3    H264044   6.340   0.551   3.616 -0.6034 -2.0811  0.3882
14185TIP3   OH264045   3.377   6.080   0.273 -0.0436 -0.0948  0.2692
14185TIP3    H164046   3.360   6.173   0.258  1.8495  0.2053 -0.3032
14185TIP3    H264047   3.325   6.058   0.350 -2.0831  0.9221 -0.7325
14186TIP3   OH264048   5.331   0.672  10.414 -0.5447  0.1185 -0.4238
14186TIP3    H164049   5.319   0.619  10.493  3.1331  0.8727  0.8606
14186TIP3    H264050   5.257   0.733  10.414 -0.6398  0.1523  2.5429
14187TIP3   OH264051   0.922   2.513   2.369  0.4206  0.0265 -0.1024
14187TIP3    H164052   0.870   2.472   2.301  0.5539  0.9848 -0.8038
14187TIP3    H264053   0.879   2.597   2.385  1.4890  0.6425 -0.3785
14188TIP3   OH264054   3.350   3.972   4.899 -0.5232  0.1630 -0.2276
14188TIP3    H164055   3.311   3.918   4.830 -0.5013  0.3139 -0.3588
14188TIP3    H264056   3.381   3.909   4.964  1.8206 -0.1610 -1.5470
14189TIP3   OH264057   4.627   2.425   2.578 -0.5246 -0.0956  0.4616
14189TIP3    H164058   4.696   2.365   2.550 -1.5079 -0.4812 -1.3042
14189TIP3    H264059   4.666   2.512   2.573  0.8274 -0.4822  2.7631
14190TIP3   OH264060   3.413   3.450   4.396 -0.7836  0.2007  0.3785
14190TIP3    H164061   3.468   3.376   4.420 -0.9040 -0.0326 -0.0671
14190TIP3    H264062   3.356   3.417   4.327  0.0243  1.0377 -0.7392
14191TIP3   OH264063   5.906   3.010   1.712  0.3043 -0.2756 -0.9044
14191TIP3    H164064   5.906   2.915   1.727 -0.0355 -0.4088 -1.6787
14191TIP3    H264065   5.834   3.024   1.650 -0.2430  0.6127 -0.0835
14192TIP3   OH264066   1.400   0.823   5.656 -0.2119  0.4049  0.1501
14192TIP3    H164067   1.343   0.800   5.729 -0.4093 -2.4420 -0.7715
14192TIP3    H264068   1.350   0.889   5.607 -1.1972  0.4825  1.2122
14193TIP3   OH264069   2.901   2.419   1.350  0.2093  0.5135 -0.3102
14193TIP3    H164070   2.831   2.376   1.400  0.1917  0.8435 -0.0426
14193TIP3    H264071   2.976   2.419   1.410  0.1756  0.9544 -0.2656
14194TIP3   OH264072   5.375   2.734  15.376  0.0594  0.0667  0.2029
14194TIP3    H164073   5.286   2.700  15.377 -0.1275  0.4519 -1.2202
14194TIP3    H264074   5.372   2.810  15.318  1.2329  0.3182  0.4320
14195TIP3   OH264075   0.714   3.418  15.839 -0.2080  0.4340  0.6359
14195TIP3    H164076   0.646   3.463  15.890  0.5285  0.2669  1.7958
14195TIP3    H264077   0.791   3.474  15.847  0.0464  0.1747  0.0615
14196TIP3   OH264078   0.361   1.719  12.469 -0.0406  0.0357  0.2894
14196TIP3    H164079   0.283   1.749  12.515  0.2504 -0.4351  1.1156
14196TIP3    H264080   0.344   1.627  12.451  0.2579 -0.0283  0.3346
14197TIP3   OH264081   3.520   2.613  12.446  1.0731 -0.4376 -0.6048
14197TIP3    H164082   3.433   2.585  12.474  0.8973 -0.1111 -0.8213
14197TIP3    H264083   3.569   2.531  12.435  0.5494 -0.6739 -1.2778
14198TIP3   OH264084   4.171   3.983   2.047 -0.0533  0.4842  0.4810
14198TIP3    H164085   4.135   3.984   1.958 -1.8729 -0.1460  1.1720
14198TIP3    H264086   4.202   4.072   2.061  1.2616  0.3441 -1.1326
14199TIP3   OH264087   0.196   4.168   1.698 -0.2480  0.1227  0.1441
14199TIP3    H164088   0.150   4.244   1.662 -0.6448 -0.1602  0.0413
14199TIP3    H264089   0.176   4.097   1.636 -1.0267 -0.3963  0.9739
14200TIP3   OH264090   2.933   2.284   5.330  0.4758  0.2490 -0.4235
14200TIP3    H164091   2.907   2.376   5.324  2.7350  0.9230 -1.0705
14200TIP3    H264092   2.922   2.249   5.242 -2.8126 -0.9325  0.3157
14201TIP3   OH264093   3.455   4.799   1.380 -0.1125  0.1744 -0.0786
14201TIP3    H164094   3.463   4.885   1.339 -0.1716  0.5432  0.6652
14201TIP3    H264095   3.375   4.805   1.432  1.4587  0.7541  2.4550
14202TIP3   OH264096   0.140   6.769   2.269  0.0869  0.6084  0.4233
14202TIP3    H164097   0.213   6.712   2.291  1.7093  2.0258 -0.9245
14202TIP3    H264098   0.063   6.713   2.272  1.2986 -1.0713  1.3792
14203TIP3   OH264099   1.583   2.764   1.572 -0.2830  0.7007  0.0590
14203TIP3    H164100   1.549   2.849   1.543 -1.0225  0.1250 -0.8308
14203TIP3    H264101   1.528   2.700   1.528  0.7708 -0.2589  0.0840
14204TIP3   OH264102   5.748   1.657  14.007 -0.0147  0.0203  0.2785
14204TIP3    H164103   5.742   1.658  13.912 -0.0967  0.3332  0.2875
14204TIP3    H264104   5.687   1.724  14.036 -0.7973 -0.8070  0.6028
14205TIP3   OH264105   5.743   6.511   2.466 -0.1609 -0.0910  0.9178
14205TIP3    H164106   5.712   6.424   2.441  0.0447 -0.1616  0.9082
14205TIP3    H264107   5.815   6.494   2.527  0.1102  0.0678  0.6428
14206TIP3   OH264108   5.307   2.935   6.445 -0.0997  0.1097  0.5720
14206TIP3    H164109   5.385   2.880   6.453 -0.1861 -0.0562  0.2589
14206TIP3    H264110   5.234   2.878   6.471 -0.2951 -0.2014 -0.6024
14207TIP3   OH264111   5.008   0.700   5.361 -0.0477 -0.0547 -0.4767
14207TIP3    H164112   5.076   0.695   5.427  0.4450  0.2574 -0.9562
14207TIP3    H264113   4.961   0.617   5.369 -1.1470  0.6970  1.4682
14208TIP3   OH264114   1.192   6.203  15.184 -0.6185  0.3869 -0.2569
14208TIP3    H164115   1.252   6.194  15.110 -0.8022 -1.5584 -0.2210
14208TIP3    H264116   1.104   6.201  15.144 -0.7174  1.7278 -0.1690
14209TIP3   OH264117   2.282   4.977   1.668  0.4780 -0.2086  0.9375
14209TIP3    H164118   2.304   4.884   1.678  0.6807 -0.0903  1.6235
14209TIP3    H264119   2.348   5.023   1.719  0.8480  0.3678 -0.0330
14210TIP3   OH264120   4.414   4.806  16.566  0.3451 -0.8033  0.2640
14210TIP3    H164121   4.420   4.881  16.626  1.1136  0.2633 -1.0892
14210TIP3    H264122   4.470   4.740  16.606  0.0559 -0.4863  1.2320
14211TIP3   OH264123   4.278   0.829   5.502  0.2614 -0.4741  0.2071
14211TIP3    H164124   4.203   0.889   5.500  0.2011 -0.5675 -0.5261
14211TIP3    H264125   4.350   0.882   5.537 -0.1993 -0.4561  1.1657
14212TIP3   OH264126   0.737   5.130  12.911 -0.6899  0.0525 -0.1412
14212TIP3    H164127   0.794   5.091  12.845 -0.0631  0.6070  0.0597
14212TIP3    H264128   0.762   5.223  12.912 -1.9177  0.3940 -0.3763
14213TIP3   OH264129   4.440   1.848  11.339 -0.0754  0.3514 -0.4254
14213TIP3    H164130   4.422   1.874  11.248  1.6888 -0.6682 -1.1184
14213TIP3    H264131   4.395   1.764  11.349  1.2561 -0.4730 -1.0201
14214TIP3   OH264132   4.336   6.714  10.890 -0.7802 -0.3564 -0.1899
14214TIP3    H164133   4.303   6.770  10.819  0.3967  1.7739  0.8231
14214TIP3    H264134   4.393   6.651  10.847 -1.1676  0.0086 -1.2751
14215TIP3   OH264135   4.479   2.190   1.290 -0.5898  0.4845  0.2066
14215TIP3    H164136   4.552   2.252   1.303  1.1904 -1.4394 -0.0084
14215TIP3    H264137   4.504   2.113   1.341 -1.5546 -0.9502 -1.3762
14216TIP3   OH264138   2.079   2.541   1.198 -0.6525  0.6316 -0.2746
14216TIP3    H164139   2.041   2.462   1.235 -1.0947  0.5418 -0.8988
14216TIP3    H264140   2.052   2.611   1.258 -0.4303  0.3402  0.1651
14217TIP3   OH264141   2.681   1.698  17.236  0.2114  0.1838  0.0595
14217TIP3    H164142   2.768   1.713  17.275  0.4240  0.3178 -0.4552
14217TIP3    H264143   2.622   1.749  17.291  0.2532 -0.9563  1.2280
14218TIP3   OH264144   4.067   3.024  14.389  0.4309 -0.1833 -0.1219
14218TIP3    H164145   4.116   2.996  14.466  1.0439 -0.3197 -0.5474
14218TIP3    H264146   3.994   3.075  14.424 -0.1863 -1.5311  0.6192
14219TIP3   OH264147   2.607   6.236  16.850 -0.5748 -0.2793 -0.3890
14219TIP3    H164148   2.600   6.331  16.850  1.7581  0.0361  2.2177
14219TIP3    H264149   2.649   6.214  16.767  0.9578  1.2560 -0.0660
14220TIP3   OH264150   5.060   6.299   0.380  0.3316  0.0902  0.0546
14220TIP3    H164151   4.995   6.310   0.449  0.3670 -1.0320  0.2998
14220TIP3    H264152   5.131   6.250   0.423  1.0533  0.7496 -0.3725
14221TIP3   OH264153   1.772   2.476   3.515 -0.0111 -0.1529 -0.4180
14221TIP3    H164154   1.681   2.503   3.528 -0.8489 -3.0924  0.4845
14221TIP3    H264155   1.779   2.459   3.421  0.3888  2.3314 -0.9211
14222TIP3   OH264156   1.972   5.532   3.258  0.4405  0.1662 -0.8490
14222TIP3    H164157   1.905   5.511   3.323  1.9827  1.4390  1.2389
14222TIP3    H264158   1.967   5.460   3.195 -0.0607 -2.0026  1.5133
14223TIP3   OH264159   6.358   2.888   0.000 -0.2722  0.1840 -0.2036
14223TIP3    H164160   6.403   2.855   0.078  1.6028 -0.4871 -1.4922
14223TIP3    H264161   6.421   2.875  -0.071 -1.8259  0.9958 -1.8040
14224TIP3   OH264162   1.547   4.712   5.309  0.0539  0.1073  0.7626
14224TIP3    H164163   1.554   4.716   5.405 -1.2460  2.2715  0.8438
14224TIP3    H264164   1.453   4.701   5.293  0.3432 -1.0977 -0.3029
14225TIP3   OH264165   1.285   6.438   3.328  0.0498 -0.3589  0.2589
14225TIP3    H164166   1.380   6.433   3.339  0.4517  0.2507 -2.2603
14225TIP3    H264167   1.273   6.449   3.234 -2.5102  0.1417  0.5868
14226TIP3   OH264168   6.048   3.289  17.155 -0.4015  0.9145  0.2461
14226TIP3    H164169   5.971   3.232  17.155 -1.6267  2.4995  0.0260
14226TIP3    H264170   6.111   3.245  17.211 -1.5203 -0.3697  0.5317
14227TIP3   OH264171   4.030   4.887  13.089  0.2112  0.0391 -0.2864
14227TIP3    H164172   4.057   4.810  13.139 -1.0436 -0.0941  0.2285
14227TIP3    H264173   4.112   4.927  13.061  0.9148 -2.3806 -2.0021
14228TIP3   OH264174   5.076   2.753  13.270  0.0829 -1.1934 -0.4830
14228TIP3    H164175   5.168   2.767  13.290 -0.2990  2.2547 -0.5582
14228TIP3    H264176   5.051   2.678  13.324  1.9000  0.4899  3.0366
14229TIP3   OH264177   2.790   0.836   6.483  0.2091 -0.2394 -0.3049
14229TIP3    H164178   2.828   0.924   6.483  0.5991 -0.4083  0.2465
14229TIP3    H264179   2.705   0.847   6.527 -0.8434  0.3158 -2.3265
14230TIP3   OH264180   6.819   3.269   5.210  0.0038  0.1111 -0.1617
14230TIP3    H164181   6.767   3.234   5.282 -1.7599  0.3760 -1.2257
14230TIP3    H264182   6.894   3.310   5.252  0.5992 -2.2847  1.3083
14231TIP3   OH264183   3.966   5.056   1.027 -0.5886 -0.2128 -0.1915
14231TIP3    H164184   3.900   4.989   1.008  0.8146 -1.7146 -0.0660
14231TIP3    H264185   4.009   5.026   1.107 -0.7654  1.5570  0.6108
14232TIP3   OH264186   3.948   6.074  14.655  0.5883 -0.0892  0.1856
14232TIP3    H164187   3.877   6.031  14.608  2.0058 -0.3553 -1.8712
14232TIP3    H264188   3.992   6.127  14.589  0.7270  2.1790  1.9901
14233TIP3   OH264189   4.878   0.889   1.218 -0.9073 -0.2342 -0.2236
14233TIP3    H164190   4.907   0.955   1.281  0.5189 -0.3002 -0.7901
14233TIP3    H264191   4.830   0.825   1.272 -0.4318  0.1345  0.6627
14234TIP3   OH264192   6.789   2.115   1.975 -0.2694  0.4361 -0.2992
14234TIP3    H164193   6.728   2.077   1.913  0.1041 -1.0372  0.2066
14234TIP3    H264194   6.844   2.042   2.004 -0.2724  1.1060  1.5748
14235TIP3   OH264195   0.989   0.235   5.181  0.3707 -0.0139 -0.3552
14235TIP3    H164196   1.031   0.149   5.185  0.1055 -0.3557 -2.9530
14235TIP3    H264197   1.055   0.292   5.142  0.4200  0.9077  1.0245
14236TIP3   OH264198   6.778   1.412   6.565  0.7805 -0.0222 -0.3280
14236TIP3    H164199   6.858   1.455   6.592 -0.0384  0.5172  1.3542
14236TIP3    H264200   6.755   1.354   6.638 -0.5986  0.2029 -0.5414
14237TIP3   OH264201   2.018   0.739  10.614 -0.4515 -0.0664 -0.1026
14237TIP3    H164202   1.957   0.711  10.546  0.0664 -0.4070 -0.4391
14237TIP3    H264203   2.096   0.685  10.599 -0.3813 -0.2369  0.8456
14238TIP3   OH264204   1.909   0.394  16.571 -0.2584  0.1465  0.3678
14238TIP3    H164205   1.861   0.322  16.532 -0.0715 -0.7059  1.6431
14238TIP3    H264206   2.000   0.381  16.543 -0.7471  2.0453 -2.4663
14239TIP3   OH264207   5.271   1.865  15.394 -0.4059 -0.6167  0.1480
14239TIP3    H164208   5.227   1.786  15.364 -2.8360 -0.1316  2.1035
14239TIP3    H264209   5.292   1.913  15.313  0.2010 -2.7296 -1.0191
14240TIP3   OH264210   3.080   0.863  16.514  0.2772 -0.3863 -0.5668
14240TIP3    H164211   3.149   0.797  16.524  0.3662 -0.3452 -0.9058
14240TIP3    H264212   3.037   0.842  16.431  1.8468  1.3960 -1.9161
14241TIP3   OH264213   0.912   1.008   0.584  0.2648 -0.3837  0.0520
14241TIP3    H164214   0.933   0.915   0.576  1.3407 -0.2596  1.2361
14241TIP3    H264215   0.982   1.052   0.536 -0.5951 -0.1723 -1.0734
14242TIP3   OH264216   2.728   3.898   1.823  0.4152 -0.2225 -0.9765
14242TIP3    H164217   2.783   3.974   1.842  0.1271  0.5374 -2.9757
14242TIP3    H264218   2.787   3.823   1.831  1.0212  0.3148 -0.2672
14243TIP3   OH264219   1.914   5.826  17.222  0.1147 -0.2201  0.0004
14243TIP3    H164220   1.904   5.891  17.292  1.9728 -0.2853  0.3877
14243TIP3    H264221   1.957   5.873  17.151 -3.3365  0.3315 -1.9368
14244TIP3   OH264222   6.049   4.125  15.262  0.2152  0.1784 -1.0478
14244TIP3    H164223   6.038   4.207  15.309  2.3034  1.0928 -2.0134
14244TIP3    H264224   5.971   4.118  15.207 -1.1194  0.2712  0.7427
14245TIP3   OH264225   5.258   0.813  11.794 -0.5072 -0.0164  0.3958
14245TIP3    H164226   5.183   0.825  11.737 -1.4477  0.9607  1.7925
14245TIP3    H264227   5.313   0.890  11.778 -0.2369 -0.2796  0.0383
14246TIP3   OH264228   1.761   0.873  15.175 -0.5133 -0.2996 -0.1498
14246TIP3    H164229   1.838   0.901  15.224 -0.2890 -1.1805  0.0243
14246TIP3    H264230   1.700   0.947  15.180 -0.1443 -0.0446  0.7068
14247TIP3   OH264231   6.639   5.895   3.804  0.0303 -0.1284  0.0656
14247TIP3    H164232   6.645   5.845   3.886 -0.8183  1.5335  1.2025
14247TIP3    H264233   6.696   5.970   3.818  0.2986 -0.0997 -1.1071
14248TIP3   OH264234   3.607   5.709  15.757  0.4357  0.2292 -0.1499
14248TIP3    H164235   3.583   5.712  15.849 -0.6779 -1.2666 -0.3432
14248TIP3    H264236   3.699   5.735  15.755  0.2665  1.0120  1.2797
14249TIP3   OH264237   1.374   6.751  12.145 -0.1750  0.9517  0.1775
14249TIP3    H164238   1.332   6.671  12.114 -0.2808  1.6988 -1.7259
14249TIP3    H264239   1.398   6.732  12.236 -0.0419 -1.2823 -0.2699
14250TIP3   OH264240   6.547   6.291  14.336  0.1511  0.0955  0.3647
14250TIP3    H164241   6.617   6.231  14.312 -0.5460 -1.0414  1.0958
14250TIP3    H264242   6.554   6.299  14.432  0.8184  1.9482  0.2201
14251TIP3   OH264243   0.138   5.690  16.762  0.1924  0.3220 -0.1849
14251TIP3    H164244   0.223   5.652  16.787 -0.4558 -0.5307  0.7794
14251TIP3    H264245   0.161   5.757  16.696  1.5061 -0.6568 -0.7817
14252TIP3   OH264246   0.947   3.111   0.928  0.0401 -0.3639  0.3436
14252TIP3    H164247   1.007   3.143   0.861  0.0508 -0.8198  0.1361
14252TIP3    H264248   0.947   3.180   0.995 -0.1403  0.2020 -0.2258
14253TIP3   OH264249   0.981   3.064  11.596  0.2790  0.3251 -0.3672
14253TIP3    H164250   0.974   3.158  11.581 -1.1189  0.4154  0.6701
14253TIP3    H264251   0.942   3.050  11.683  0.6604 -1.1861 -0.4033
14254TIP3   OH264252   3.051   1.921   2.054  0.2526 -0.4057 -0.3514
14254TIP3    H164253   2.964   1.900   2.088 -0.1507  0.0364 -1.0664
14254TIP3    H264254   3.112   1.872   2.110 -0.4621 -0.8390  0.0632
14255TIP3   OH264255   1.971   2.406   4.117 -1.1672 -0.3764 -0.1782
14255TIP3    H164256   1.950   2.448   4.200  2.6827  0.9361  0.3341
14255TIP3    H264257   2.027   2.469   4.071 -2.4624 -1.3904 -3.4802
14256TIP3   OH264258   0.539   1.228  16.608 -0.3111 -0.7393  0.6732
14256TIP3    H164259   0.498   1.244  16.522 -1.0969 -1.5800  0.8690
14256TIP3    H264260   0.521   1.307  16.658  2.9225  1.1907 -0.8861
14257TIP3   OH264261   6.635   6.614   3.916 -0.1825  0.2096 -0.5644
14257TIP3    H164262   6.562   6.676   3.923  0.9328  1.4529  0.9918
14257TIP3    H264263   6.669   6.627   3.828 -0.3041  1.4695 -0.4494
14258TIP3   OH264264   4.878   3.499   1.946  0.0204  0.5158  0.6680
14258TIP3    H164265   4.849   3.588   1.924 -1.0041 -0.2142 -1.0485
14258TIP3    H264266   4.807   3.464   2.000 -0.3057  0.1991  0.0330
14259TIP3   OH264267   3.030   5.683  15.148 -0.4155  0.0933 -0.3514
14259TIP3    H164268   3.109   5.736  15.139 -0.5228  0.3490  0.1741
14259TIP3    H264269   3.026   5.632  15.068  1.1128 -1.0389  0.2521
14260TIP3   OH264270   1.696   6.236  14.950  0.1635 -0.1818 -0.4924
14260TIP3    H164271   1.641   6.218  15.026 -1.4153  0.2888 -1.4778
14260TIP3    H264272   1.768   6.174  14.957  0.8058  0.7313  2.0959
14261TIP3   OH264273   4.776   6.584   1.072  0.1686  0.0120 -0.4378
14261TIP3    H164274   4.709   6.608   1.008  1.3628  2.4881 -0.8749
14261TIP3    H264275   4.858   6.617   1.035  1.3191 -1.0169  1.0641
14262TIP3   OH264276   5.485   2.379  13.625  0.1602 -0.2520 -0.4101
14262TIP3    H164277   5.398   2.342  13.615  0.7204 -1.1628 -2.4195
14262TIP3    H264278   5.479   2.466  13.584  0.2196 -0.3963 -0.7347
14263TIP3   OH264279   4.178   1.986   6.138 -0.3010 -0.5144 -0.4129
14263TIP3    H164280   4.119   2.045   6.185  2.4994  0.4963  2.1058
14263TIP3    H264281   4.167   2.010   6.046 -2.1687  1.1106  0.1613
14264TIP3   OH264282   3.847   1.168   5.307  0.0878  0.2723  0.1727
14264TIP3    H164283   3.753   1.155   5.302  0.1263  0.2961 -3.3476
14264TIP3    H264284   3.858   1.263   5.315 -0.1423  0.1867  1.7532
14265TIP3   OH264285   4.811   4.623  17.153 -0.9926  0.1119 -0.2221
14265TIP3    H164286   4.777   4.683  17.220 -1.3250  2.6714 -2.4940
14265TIP3    H264287   4.733   4.583  17.115 -0.8367 -0.9667  0.5754
14266TIP3   OH264288   2.456   1.026  17.007  0.0491 -0.3305 -0.1199
14266TIP3    H164289   2.491   0.952  16.958 -2.0743 -1.2539 -0.3263
14266TIP3    H264290   2.500   1.102  16.969  1.8054 -1.3840 -0.3327
14267TIP3   OH264291   4.437   5.443   5.282  0.0002 -0.1944 -0.1009
14267TIP3    H164292   4.350   5.412   5.257  0.5893 -1.2541 -0.9304
14267TIP3    H264293   4.421   5.525   5.328 -1.4695 -0.5998  0.1629
14268TIP3   OH264294   4.946   3.978  11.660 -0.5210  0.1554 -1.0781
14268TIP3    H164295   4.912   3.970  11.749  0.4054 -0.2002 -0.7484
14268TIP3    H264296   5.022   4.036  11.668 -2.8843  3.8347 -2.3171
14269TIP3   OH264297   1.174   6.108  16.223 -0.1264 -0.2711  0.1739
14269TIP3    H164298   1.119   6.032  16.206  0.3191 -0.6656  0.4642
14269TIP3    H264299   1.192   6.105  16.317  0.5252 -0.2497  0.0609
14270TIP3   OH264300   3.456   0.268  16.130 -0.3904  0.7349  0.1755
14270TIP3    H164301   3.381   0.211  16.115 -0.3070  0.7109 -0.1569
14270TIP3    H264302   3.498   0.232  16.208 -0.7470  0.7734  0.3873
14271TIP3   OH264303   3.481   1.056   5.772  0.5545  0.0318 -0.8418
14271TIP3    H164304   3.484   1.113   5.849 -3.3010 -1.2561  0.5117
14271TIP3    H264305   3.482   1.116   5.697 -2.3182  1.9441  0.4953
14272TIP3   OH264306   6.203   3.261   5.461 -0.4161  0.1654  0.2117
14272TIP3    H164307   6.157   3.345   5.460 -0.0094  0.4113 -1.6170
14272TIP3    H264308   6.290   3.283   5.495  0.3717  0.9352 -2.1297
14273TIP3   OH264309   1.309   3.961  16.348  0.6945 -0.2593 -0.2049
14273TIP3    H164310   1.266   4.046  16.338 -0.2625 -0.1901  3.1942
14273TIP3    H264311   1.238   3.897  16.341  1.1522 -0.6739 -1.1585
14274TIP3   OH264312   3.679   4.440   4.774 -0.3749 -0.6271 -0.4581
14274TIP3    H164313   3.683   4.363   4.718  1.9270 -1.8862  1.2619
14274TIP3    H264314   3.637   4.409   4.855  0.2166  0.0064  0.1023
14275TIP3   OH264315   5.549   0.512   1.153 -0.2623 -0.2640  0.0834
14275TIP3    H164316   5.557   0.569   1.077  1.7237  0.0944  0.5025
14275TIP3    H264317   5.608   0.438   1.135  0.3944 -0.0769  1.3209
14276TIP3   OH264318   0.977   3.512  12.105  0.4376  0.6910  0.5434
14276TIP3    H164319   0.884   3.489  12.108  0.2384  1.4344  0.3767
14276TIP3    H264320   1.022   3.432  12.130 -0.0458 -0.8973 -3.0698
14277TIP3   OH264321   4.493   4.202  15.442 -0.0656 -0.1376 -0.1353
14277TIP3    H164322   4.517   4.254  15.519 -0.5101  0.4215 -0.3622
14277TIP3    H264323   4.575   4.164  15.412  0.5696  1.7033 -0.8838
14278TIP3   OH264324   2.557   1.432  11.826  0.1835  0.0401 -0.3408
14278TIP3    H164325   2.480   1.375  11.830 -0.1920  0.4994 -0.8752
14278TIP3    H264326   2.619   1.385  11.770 -0.1497  0.1787 -0.8305
14279TIP3   OH264327   3.973   6.782  11.305 -0.1546 -0.0534  0.4238
14279TIP3    H164328   3.936   6.864  11.338  0.1678  0.3254 -0.1354
14279TIP3    H264329   3.926   6.714  11.352 -1.3831  0.4228 -0.0554
14280TIP3   OH264330   5.011   1.965  15.300  0.1924  0.6132  0.1716
14280TIP3    H164331   4.975   1.878  15.283  1.1523  0.5072 -1.6309
14280TIP3    H264332   4.995   1.980  15.393 -2.3225 -0.3700 -0.0230
14281TIP3   OH264333   1.671   4.444  15.023  0.0561 -0.5155  0.0745
14281TIP3    H164334   1.737   4.506  15.056  0.1420 -0.6811  0.2183
14281TIP3    H264335   1.601   4.499  14.990 -0.6764 -0.3393  1.8119
14282TIP3   OH264336   0.350   6.572  13.026 -0.6543 -0.3617 -0.5190
14282TIP3    H164337   0.305   6.628  12.963 -2.0620  1.0006  1.5948
14282TIP3    H264338   0.295   6.494  13.035 -1.2555  0.1315  0.1321
14283TIP3   OH264339   3.312   5.390   5.566  0.0529 -0.8435  0.4105
14283TIP3    H164340   3.294   5.460   5.504  1.4554 -0.0584  0.8580
14283TIP3    H264341   3.339   5.435   5.646  0.4600 -1.8830  0.8716
14284TIP3   OH264342   0.161   2.519  13.094  0.0840  0.1894 -0.3881
14284TIP3    H164343   0.148   2.580  13.166  1.3861  0.0802 -0.0351
14284TIP3    H264344   0.096   2.546  13.028  1.9770  3.3990 -1.1767
14285TIP3   OH264345   4.841   2.621  14.160 -0.3248 -0.2467 -0.2341
14285TIP3    H164346   4.811   2.711  14.175  1.6869  0.4878 -0.2995
14285TIP3    H264347   4.786   2.567  14.218 -1.0341  1.1081  0.4011
14286TIP3   OH264348   4.892   0.876  12.344  0.3416 -0.5885 -0.0121
14286TIP3    H164349   4.894   0.831  12.428 -2.9723 -0.7789  0.0993
14286TIP3    H264350   4.893   0.969  12.366  2.5729 -0.5585 -0.0087
14287TIP3   OH264351   1.715   6.438  12.679  0.2660  0.4753  0.1551
14287TIP3    H164352   1.735   6.487  12.759 -0.7486  0.2713  0.5432
14287TIP3    H264353   1.687   6.506  12.617 -1.3131  0.3847  0.7485
14288TIP3   OH264354   5.781   0.371   3.742  0.0815 -0.0455 -0.0060
14288TIP3    H164355   5.753   0.400   3.828 -1.0145  3.3639 -1.3452
14288TIP3    H264356   5.712   0.312   3.713  0.0064 -0.4995  1.0494
14289TIP3   OH264357   2.389   2.725  14.441  0.0093  0.1800  0.0782
14289TIP3    H164358   2.353   2.669  14.373 -3.1798 -0.4643  2.1179
14289TIP3    H264359   2.337   2.805  14.436 -0.7339 -0.1249  2.0778
14290TIP3   OH264360   0.086   3.228   3.874 -0.2723  0.2403 -0.0862
14290TIP3    H164361   0.028   3.300   3.847  0.0895  0.2687 -0.8096
14290TIP3    H264362   0.027   3.156   3.895 -0.5850  0.3298 -0.6372
14291TIP3   OH264363   2.630   4.512   5.416  0.2281 -0.6137  0.2945
14291TIP3    H164364   2.589   4.433   5.381  2.0596 -1.2152 -0.6228
14291TIP3    H264365   2.678   4.549   5.343  1.1918  0.1329  1.2689
14292TIP3   OH264366   6.542   6.326   5.800 -0.2538 -0.2817 -0.8584
14292TIP3    H164367   6.636   6.342   5.789 -0.1149 -1.7123 -2.1420
14292TIP3    H264368   6.504   6.347   5.715 -1.3509  1.6039  0.0401
14293TIP3   OH264369   0.320   2.253  16.300 -0.4186 -0.1986  0.0542
14293TIP3    H164370   0.378   2.248  16.376  1.4527 -0.6376 -1.3149
14293TIP3    H264371   0.271   2.334  16.311  0.7545  0.3901  1.0873
14294TIP3   OH264372   0.919   5.905  12.089  0.7065  0.4972  0.4009
14294TIP3    H164373   0.905   5.867  12.002  0.5114 -0.1500  0.7067
14294TIP3    H264374   0.930   5.999  12.073  0.1858  0.4514 -0.2728
14295TIP3   OH264375   2.619   5.639  15.768  0.0942  0.1037  0.1598
14295TIP3    H164376   2.652   5.679  15.687  0.2842  1.4513  0.8937
14295TIP3    H264377   2.524   5.635  15.755  0.2740 -1.6581 -0.9896
14296TIP3   OH264378   3.547   2.908  15.240 -0.2338  0.3762 -0.2715
14296TIP3    H164379   3.627   2.857  15.252  0.1168  0.9325 -0.1938
14296TIP3    H264380   3.480   2.861  15.290  0.0616 -0.0505 -0.2749
14297TIP3   OH264381   4.132   2.251   1.540  0.4307 -0.5063 -0.6669
14297TIP3    H164382   4.107   2.282   1.627 -0.3968 -1.9013 -0.3827
14297TIP3    H264383   4.183   2.172   1.557 -0.0111 -0.9684 -1.4507
14298TIP3   OH264384   1.243   1.948   2.153 -0.1231  0.6613  0.6257
14298TIP3    H164385   1.314   1.992   2.107 -0.2599  0.0656 -0.1720
14298TIP3    H264386   1.176   2.015   2.163  0.3050  1.0634  0.8489
14299TIP3   OH264387   6.268   4.153   2.073 -0.8846  0.1178 -0.2717
14299TIP3    H164388   6.350   4.114   2.103 -1.0151  0.3728  0.4562
14299TIP3    H264389   6.281   4.170   1.980  1.2757  3.5256  0.4823
14300TIP3   OH264390   2.674   2.751   6.151  0.3280 -0.4878 -0.4130
14300TIP3    H164391   2.591   2.790   6.122  0.3721  1.1054  1.3956
14300TIP3    H264392   2.651   2.704   6.231  1.1707  0.1008  0.1954
14301TIP3   OH264393   6.296   2.573  16.197 -0.0570 -0.0230 -0.1728
14301TIP3    H164394   6.294   2.520  16.117 -0.8398 -0.8938  0.3939
14301TIP3    H264395   6.249   2.653  16.173 -0.7393 -0.4921 -0.4552
14302TIP3   OH264396   4.317   1.192   4.484 -0.1132 -0.2167  0.4117
14302TIP3    H164397   4.389   1.213   4.424 -1.4192 -1.5978 -1.8045
14302TIP3    H264398   4.307   1.097   4.478 -1.1810 -0.2239  1.7938
14303TIP3   OH264399   1.276   4.662   4.876  0.4383 -0.3446 -0.3536
14303TIP3    H164400   1.291   4.598   4.806  0.5931 -0.0670 -0.5787
14303TIP3    H264401   1.256   4.610   4.953  0.4603 -0.6615 -0.5628
14304TIP3   OH264402   6.083   0.509   2.039  0.0424 -0.0677  0.1544
14304TIP3    H164403   6.137   0.430   2.040 -0.9732 -0.7718  0.9585
14304TIP3    H264404   6.130   0.570   2.096 -0.0674 -0.7204  0.9577
14305TIP3   OH264405   2.465   2.397  15.524 -0.0550 -0.4882 -0.3466
14305TIP3    H164406   2.430   2.342  15.594  0.9022 -0.8995 -0.1820
14305TIP3    H264407   2.514   2.465  15.570 -0.1226 -0.2720 -0.5934
14306TIP3   OH264408   1.400   3.696  16.395 -0.7111 -0.2008  0.1301
14306TIP3    H164409   1.378   3.604  16.382 -2.3944  0.0518  0.8896
14306TIP3    H264410   1.431   3.725  16.310 -1.7284 -1.0780 -0.5785
14307TIP3   OH264411   0.887   5.611  12.892  0.2101 -0.4256  0.2732
14307TIP3    H164412   0.805   5.571  12.866 -1.3143  2.8049 -0.3983
14307TIP3    H264413   0.862   5.682  12.951  2.3480  1.4090 -0.8609
14308TIP3   OH264414   5.457   5.789  16.204  0.8793 -0.2736 -0.2111
14308TIP3    H164415   5.486   5.876  16.178 -0.2477  0.3779  0.6055
14308TIP3    H264416   5.493   5.776  16.292 -1.0420  0.4744  0.7404
14309TIP3   OH264417   3.776   1.734  10.850 -0.0135  0.2165  0.4658
14309TIP3    H164418   3.806   1.723  10.940 -1.3031  2.2701  1.2084
14309TIP3    H264419   3.821   1.812  10.818  0.0487 -0.2035 -0.5078
14310TIP3   OH264420   1.079   3.045  13.118  0.0477  0.0617  0.1436
14310TIP3    H164421   1.148   3.102  13.153  0.1310 -0.3731  0.6982
14310TIP3    H264422   1.016   3.106  13.079  0.2063  0.5274  0.6002
14311TIP3   OH264423   5.489   5.965  14.053 -0.5466  0.2036  0.6209
14311TIP3    H164424   5.419   5.973  14.117 -0.8343  0.0299  0.3312
14311TIP3    H264425   5.570   5.962  14.105 -0.6418  1.8041  0.9016
14312TIP3   OH264426   2.112   4.335  13.130  0.8285  0.0133 -0.1107
14312TIP3    H164427   2.160   4.417  13.119  0.0625  0.6724  1.2588
14312TIP3    H264428   2.132   4.307  13.219  0.3223 -0.8023 -0.2395
14313TIP3   OH264429   1.740   6.740  16.201 -0.4535 -0.5680  0.1302
14313TIP3    H164430   1.663   6.720  16.147 -0.0608 -4.1956  0.6497
14313TIP3    H264431   1.724   6.695  16.284  2.1517 -1.3957  0.2787
14314TIP3   OH264432   4.059   4.844   0.602  0.8339  0.0427  0.7486
14314TIP3    H164433   4.044   4.938   0.602  0.9373  0.0794 -0.5623
14314TIP3    H264434   3.990   4.809   0.544  0.4505 -0.7501  1.6665
14315TIP3   OH264435   0.621   6.189  14.619 -0.3869  0.2365  0.2230
14315TIP3    H164436   0.647   6.221  14.532  0.4898  0.4397  0.5502
14315TIP3    H264437   0.649   6.097  14.620 -0.7815  0.1140  0.1395
14316TIP3   OH264438   1.432   4.107   5.153 -0.3843  0.1979 -0.1509
14316TIP3    H164439   1.346   4.149   5.144 -1.4335 -2.2548 -3.8518
14316TIP3    H264440   1.413   4.019   5.183  1.1626  0.3196  1.3295
14317TIP3   OH264441   1.432   4.232   0.354 -0.5898  0.1357 -0.0670
14317TIP3    H164442   1.445   4.168   0.425 -1.2972 -0.4036 -0.4065
14317TIP3    H264443   1.337   4.233   0.341 -0.3713 -1.5070 -2.5450
14318TIP3   OH264444   5.391   4.969   3.563  0.1350 -0.1599  0.4382
14318TIP3    H164445   5.377   4.893   3.506  0.8790 -0.8919  1.1929
14318TIP3    H264446   5.311   5.021   3.554  0.0894 -0.4388 -0.9819
14319TIP3   OH264447   2.899   6.321  15.104 -0.2396  0.0604  0.0585
14319TIP3    H164448   2.896   6.290  15.014 -0.0776 -1.8403  0.6601
14319TIP3    H264449   2.807   6.329  15.130 -0.3115 -0.9736  0.1942
14320TIP3   OH264450   1.595   0.583   0.229 -0.5760 -0.6895 -0.2453
14320TIP3    H164451   1.512   0.561   0.271  0.4975 -2.6904  1.0154
14320TIP3    H264452   1.625   0.500   0.192  2.0358 -0.6570  1.5530
14321TIP3   OH264453   0.955   0.664  13.585  0.2199 -0.7680  0.0289
14321TIP3    H164454   0.862   0.682  13.593  0.0435 -1.4964 -0.3009
14321TIP3    H264455   0.994   0.703  13.663 -0.3120 -0.1600 -0.0042
14322TIP3   OH264456   6.244   0.185  11.944 -0.5038 -0.6781 -0.5461
14322TIP3    H164457   6.182   0.206  11.874 -1.3963 -2.9860 -0.5519
14322TIP3    H264458   6.200   0.116  11.994  0.3377  0.5325  2.0072
14323TIP3   OH264459   3.327   6.141  11.614  0.4041 -0.1386  0.0584
14323TIP3    H164460   3.234   6.124  11.596  0.3223 -0.2895  0.6035
14323TIP3    H264461   3.341   6.230  11.582  0.1189 -0.1853 -0.2048
14324TIP3   OH264462   3.246   4.676   0.960  0.0978  0.0810  0.3258
14324TIP3    H164463   3.330   4.661   0.916 -0.1265 -0.6186  0.1332
14324TIP3    H264464   3.209   4.752   0.914  0.5780  0.3347  0.3494
14325TIP3   OH264465   2.823   3.800   6.280 -0.3277  0.4350 -0.3039
14325TIP3    H164466   2.861   3.852   6.209 -0.0269 -1.0214 -1.2598
14325TIP3    H264467   2.883   3.813   6.354  0.6029  0.2006 -1.0071
14326TIP3   OH264468   1.078   0.784  11.125 -0.3414  0.1111 -0.1743
14326TIP3    H164469   0.996   0.762  11.082  0.4098 -2.7537 -0.3478
14326TIP3    H264470   1.059   0.777  11.219 -0.5484  0.5657 -0.1792
14327TIP3   OH264471   6.130   5.132   2.102 -0.0849  0.0721  0.3560
14327TIP3    H164472   6.188   5.183   2.158  0.1016 -1.7103  1.8748
14327TIP3    H264473   6.181   5.055   2.078 -1.2092 -0.6477  0.2061
14328TIP3   OH264474   3.498   4.529  16.871 -0.5652  0.6266 -0.1210
14328TIP3    H164475   3.406   4.551  16.859 -1.7062 -3.5639 -1.0161
14328TIP3    H264476   3.540   4.559  16.791 -1.1717  2.3341  0.1656
14329TIP3   OH264477   1.777   0.179   5.881 -0.2879 -0.2349  0.0881
14329TIP3    H164478   1.778   0.158   5.975 -0.2405  0.1618  0.1792
14329TIP3    H264479   1.741   0.101   5.839  2.2243 -1.5222  0.1474
14330TIP3   OH264480   2.889   3.655   2.814  0.1341  0.2711  0.0442
14330TIP3    H164481   2.918   3.572   2.775 -1.8577 -0.5793  0.2382
14330TIP3    H264482   2.877   3.634   2.907  0.9363  1.1760  0.3666
14331TIP3   OH264483   5.353   4.249  11.467  0.1494  0.2781 -0.4386
14331TIP3    H164484   5.284   4.270  11.529  1.7005 -0.1194  1.5354
14331TIP3    H264485   5.415   4.321  11.475  0.9751 -0.3982 -0.5966
14332TIP3   OH264486   5.278   6.457   1.740 -0.2111  0.2738  0.4372
14332TIP3    H164487   5.318   6.528   1.689  0.3461 -0.6086 -0.4021
14332TIP3    H264488   5.348   6.391   1.747 -1.1341 -0.7750  0.0080
14333TIP3   OH264489   1.739   1.379   6.625  0.0570  0.1060  0.3368
14333TIP3    H164490   1.728   1.448   6.691  0.8707  0.7080 -0.1477
14333TIP3    H264491   1.811   1.409   6.570  0.9022 -1.4450  0.5197
14334TIP3   OH264492   2.198   0.037  15.436  0.5304  0.6887  0.3789
14334TIP3    H164493   2.202  -0.048  15.392  0.6878  0.5696  0.6177
14334TIP3    H264494   2.226   0.100  15.370 -0.5680  0.6774 -0.1182
14335TIP3   OH264495   0.651   1.860   3.384  0.1699 -0.2328 -1.3519
14335TIP3    H164496   0.668   1.769   3.359  0.1950  0.2331 -3.1874
14335TIP3    H264497   0.588   1.854   3.455 -0.0273 -1.6771 -1.6196
14336TIP3   OH264498   4.910   6.682   5.163  0.3592  0.3078 -0.4944
14336TIP3    H164499   4.840   6.715   5.107 -0.1029  1.0290  0.4706
14336TIP3    H264500   4.899   6.587   5.162 -1.6232  0.4582  0.8358
14337TIP3   OH264501   1.581   0.498   3.146 -0.0216 -0.3155  0.5746
14337TIP3    H164502   1.558   0.508   3.054  0.6703 -1.2291  0.2945
14337TIP3    H264503   1.657   0.556   3.158  2.3988 -3.0547 -0.4377
14338TIP3   OH264504   4.787   0.607   3.475  0.4816 -0.4901 -0.0947
14338TIP3    H164505   4.776   0.666   3.400  0.9095 -1.5781 -1.0501
14338TIP3    H264506   4.702   0.564   3.484  0.2740  0.0158  0.3804
14339TIP3   OH264507   2.131   2.096  11.231  0.2882 -0.1165 -0.4668
14339TIP3    H164508   2.097   2.073  11.145  2.2443  0.0446 -1.3431
14339TIP3    H264509   2.225   2.076  11.226  0.7631  1.4710  1.0572
14340TIP3   OH264510   1.404   4.830   0.011 -0.7604 -0.0922  0.1706
14340TIP3    H164511   1.399   4.916   0.052  1.3767  0.5896 -0.8347
14340TIP3    H264512   1.397   4.768   0.084  1.1709  1.0281  1.3896
14341TIP3   OH264513   2.830   4.593  14.485  0.0160 -0.0181  0.7543
14341TIP3    H164514   2.912   4.643  14.481  0.0669 -0.1083  0.6789
14341TIP3    H264515   2.801   4.602  14.576  1.1930 -1.7180  1.3426
14342TIP3   OH264516   6.579   4.257   3.604  0.2411  0.4746  0.2439
14342TIP3    H164517   6.510   4.319   3.628 -0.7809 -0.9143  1.0220
14342TIP3    H264518   6.588   4.267   3.509 -1.4694  0.2783  0.0277
14343TIP3   OH264519   5.012   0.908   3.809 -0.5851  0.0660  0.0220
14343TIP3    H164520   4.959   0.988   3.809 -2.4095 -0.9756 -3.1574
14343TIP3    H264521   4.949   0.837   3.824  0.3860 -1.0053 -0.7524
14344TIP3   OH264522   0.395   2.806   0.908  0.0942  0.0599 -0.9680
14344TIP3    H164523   0.389   2.880   0.969  1.2651 -0.0515 -0.6877
14344TIP3    H264524   0.378   2.844   0.822 -1.3172  0.2673 -0.6222
14345TIP3   OH264525   1.236   5.890   2.324  0.3449  0.4149 -0.8454
14345TIP3    H164526   1.189   5.969   2.297 -2.5410 -0.9260 -0.0912
14345TIP3    H264527   1.185   5.855   2.396  3.2315 -0.5811  0.8778
14346TIP3   OH264528   0.383   5.906   3.326  0.3644  0.3164  0.3653
14346TIP3    H164529   0.370   5.962   3.249  1.8823  0.3768  0.1351
14346TIP3    H264530   0.322   5.833   3.313 -1.3240  1.6386  0.4391
14347TIP3   OH264531   0.640   5.262   5.301 -0.3045 -0.1054  0.0627
14347TIP3    H164532   0.642   5.323   5.227 -0.1186  0.4021  0.4841
14347TIP3    H264533   0.732   5.249   5.324 -0.3527 -0.3974  0.1001
14348TIP3   OH264534   5.096   4.142   0.177 -0.0813 -0.3048  0.0819
14348TIP3    H164535   5.052   4.199   0.113 -1.4807 -0.5930  0.7405
14348TIP3    H264536   5.141   4.077   0.124 -0.0910  0.2553 -0.6377
14349TIP3   OH264537   1.738   5.198   1.677 -0.0815  0.3288 -0.0092
14349TIP3    H164538   1.718   5.236   1.763 -0.0040  0.3005  0.0205
14349TIP3    H264539   1.701   5.261   1.614 -1.6826 -0.4858  0.0640
14350TIP3   OH264540   6.149   0.365   4.153 -0.3729 -0.2890 -0.1457
14350TIP3    H164541   6.145   0.337   4.245  1.1107  1.0975  0.3851
14350TIP3    H264542   6.140   0.460   4.157 -1.4428 -0.3032 -1.5694
14351TIP3   OH264543   6.747   6.583   2.180  0.1482 -0.4341  0.0904
14351TIP3    H164544   6.702   6.605   2.098  1.0203 -0.5528 -0.4356
14351TIP3    H264545   6.751   6.488   2.181 -0.0587 -0.4410  0.3860
14352TIP3   OH264546   4.596   1.627   1.670  1.1747 -0.3530  0.1415
14352TIP3    H164547   4.585   1.702   1.728 -0.4473 -0.6724  0.2963
14352TIP3    H264548   4.507   1.595   1.655  1.7662 -1.7597 -0.5678
14353TIP3   OH264549   6.294   4.215  14.835 -0.0108  0.2310 -0.1435
14353TIP3    H164550   6.261   4.162  14.908  0.0868  1.4206  0.7942
14353TIP3    H264551   6.388   4.195  14.831  0.1537  0.7763  0.6284
14354TIP3   OH264552   2.250   1.506  16.242 -0.2139  0.0311  0.4829
14354TIP3    H164553   2.304   1.480  16.317 -0.6627 -0.9528  0.4818
14354TIP3    H264554   2.167   1.534  16.282 -1.4744 -3.0167  0.3075
14355TIP3   OH264555   4.310   1.046  16.436  0.4288  0.0096  0.1154
14355TIP3    H164556   4.261   1.116  16.394 -0.5952 -0.3959  0.6119
14355TIP3    H264557   4.381   1.027  16.374  0.8570  1.6084  0.0720
14356TIP3   OH264558   2.831   0.042  14.497 -0.0418  0.3657  0.1086
14356TIP3    H164559   2.897  -0.027  14.488  0.0862  0.5056 -0.0301
14356TIP3    H264560   2.758   0.014  14.442  0.4940  0.9277 -0.9003
14357TIP3   OH264561   5.657   0.612  12.431 -0.0356 -0.0456 -0.2547
14357TIP3    H164562   5.750   0.587  12.426  0.3342  0.9005  1.2102
14357TIP3    H264563   5.654   0.700  12.393 -0.0478  0.5290  1.0349
14358TIP3   OH264564   3.331   4.585   6.457 -0.1404 -0.1342  0.7822
14358TIP3    H164565   3.283   4.665   6.476  0.9541  0.8949 -0.5668
14358TIP3    H264566   3.300   4.558   6.370 -0.3822 -1.1094  1.1514
14359TIP3   OH264567   1.468   2.120   5.660 -0.2021 -0.2249 -0.2268
14359TIP3    H164568   1.393   2.109   5.719  0.0170  0.2253  0.1371
14359TIP3    H264569   1.442   2.192   5.602  0.1399  0.2571  0.2111
14360TIP3   OH264570   6.092   4.756   3.404  0.1958 -0.0572 -0.4066
14360TIP3    H164571   6.051   4.693   3.463  1.0125  1.0360  1.3882
14360TIP3    H264572   6.173   4.714   3.376  0.9495  0.3220  1.1228
14361TIP3   OH264573   4.461   0.939   0.394 -0.4729 -0.2559  0.3377
14361TIP3    H164574   4.556   0.937   0.382 -0.3234  0.2782  1.3917
14361TIP3    H264575   4.442   0.860   0.445 -0.2261  1.0145  2.5046
14362TIP3   OH264576   1.406   1.878   2.547 -0.0167  0.0825 -0.0506
14362TIP3    H164577   1.392   1.800   2.601 -0.4253 -0.0744 -0.3791
14362TIP3    H264578   1.500   1.876   2.527  0.2519  0.4250  1.0733
14363TIP3   OH264579   2.546   3.673   2.686 -0.3591  0.7653  0.4884
14363TIP3    H164580   2.632   3.711   2.671  0.6583 -0.6910  2.1678
14363TIP3    H264581   2.544   3.595   2.631 -0.0606  0.1245  1.3500
14364TIP3   OH264582   1.032   6.710   0.895 -0.5747 -0.0080  0.8859
14364TIP3    H164583   1.117   6.672   0.914 -1.0798 -1.8185 -0.1496
14364TIP3    H264584   0.969   6.652   0.939 -1.3368  0.3967  0.3622
14365TIP3   OH264585   1.136   0.005   6.219 -0.1367  0.1031 -0.4795
14365TIP3    H164586   1.050   0.016   6.179 -0.4974  0.2026  0.2981
14365TIP3    H264587   1.172  -0.074   6.179 -0.1826  0.5824 -1.5036
14366TIP3   OH264588   1.823   4.620   6.645  0.8499 -0.1918  0.6536
14366TIP3    H164589   1.738   4.576   6.645  0.7248 -0.1714  3.5162
14366TIP3    H264590   1.808   4.699   6.697  2.3713  0.3886  0.2488
14367TIP3   OH264591   4.974   6.184  15.187 -0.0233 -0.0242 -0.1034
14367TIP3    H164592   4.941   6.156  15.101  1.2329  2.4329 -1.4920
14367TIP3    H264593   5.066   6.156  15.187  0.2665  0.9218 -0.0195
14368TIP3   OH264594   4.147   2.559  13.156  0.3073  0.3592  0.1453
14368TIP3    H164595   4.211   2.519  13.098  1.0201  1.0013  0.4630
14368TIP3    H264596   4.106   2.628  13.103 -0.4689 -0.3579 -0.2034
14369TIP3   OH264597   6.234   3.865   4.188  0.8411 -0.0795  0.2019
14369TIP3    H164598   6.211   3.782   4.148  1.4549  0.1006 -0.5469
14369TIP3    H264599   6.170   3.877   4.258 -0.6618 -0.1106 -1.1101
14370TIP3   OH264600   2.238   0.512  12.226 -0.0161  0.2168 -0.0154
14370TIP3    H164601   2.145   0.499  12.212 -0.2610  1.0231  0.7540
14370TIP3    H264602   2.267   0.559  12.148 -0.0638 -0.7751 -0.6470
14371TIP3   OH264603   4.914   2.812  16.833 -0.1951 -0.3149 -0.0809
14371TIP3    H164604   4.883   2.743  16.891 -2.0872 -0.0206 -0.6923
14371TIP3    H264605   4.949   2.767  16.756  0.3830 -0.6315  0.3625
14372TIP3   OH264606   1.749   4.994   4.763  0.4480  0.0520 -0.2603
14372TIP3    H164607   1.663   4.961   4.790  0.4099  0.5778  0.2709
14372TIP3    H264608   1.785   5.035   4.842  0.3126  1.6624 -0.9910
14373TIP3   OH264609   2.456   6.314   4.541  0.5407  0.3304 -0.2256
14373TIP3    H164610   2.493   6.365   4.469 -0.3952  0.6737 -0.4872
14373TIP3    H264611   2.467   6.370   4.618  2.3851 -0.4273  0.0935
14374TIP3   OH264612   0.215   4.056   5.106 -0.2754 -0.0468 -0.5465
14374TIP3    H164613   0.224   3.964   5.082 -0.9229 -0.2049 -0.2160
14374TIP3    H264614   0.124   4.064   5.136 -1.3869  1.4383 -3.8451
14375TIP3   OH264615   1.135   1.237   1.696  0.0255  0.2108 -0.1740
14375TIP3    H164616   1.173   1.316   1.658  1.6557  0.3776  1.6529
14375TIP3    H264617   1.112   1.262   1.786 -0.2623 -1.1569  0.1533
14376TIP3   OH264618   2.462   3.239  13.293  0.0796 -0.2902 -0.2397
14376TIP3    H164619   2.454   3.191  13.375  2.3816 -0.9991 -0.3805
14376TIP3    H264620   2.555   3.257  13.284 -0.3630  1.6365 -1.6802
14377TIP3   OH264621   4.447   5.220  11.398 -0.4218 -0.0072  0.4827
14377TIP3    H164622   4.389   5.296  11.408  0.5382  1.0650 -1.5715
14377TIP3    H264623   4.388   5.146  11.388 -1.3838  0.5793  1.5104
14378TIP3   OH264624   4.170   3.748  11.873 -0.0069  0.1224 -0.1574
14378TIP3    H164625   4.143   3.782  11.787  0.2709 -1.2051 -0.7910
14378TIP3    H264626   4.171   3.825  11.929  1.3772  1.3378 -1.7291
14379TIP3   OH264627   4.812   0.857  11.456  0.2244 -0.5839  0.0972
14379TIP3    H164628   4.754   0.848  11.532 -2.4761  0.1355 -1.7071
14379TIP3    H264629   4.849   0.770  11.443 -1.6249 -1.4988  0.5491
14380TIP3   OH264630   1.313   1.149   0.640  0.4855  0.1489  0.2656
14380TIP3    H164631   1.257   1.226   0.627  0.9551  0.3264 -0.8404
14380TIP3    H264632   1.390   1.182   0.687  1.4426  0.7343 -1.6044
14381TIP3   OH264633   3.170   6.726   2.799  0.1697  0.4392 -0.0910
14381TIP3    H164634   3.095   6.666   2.794  0.5857  0.0374 -2.6054
14381TIP3    H264635   3.130   6.813   2.802 -0.4211  0.1674  2.7848
14382TIP3   OH264636   0.271   3.944  16.072 -0.3687 -0.1757 -0.6509
14382TIP3    H164637   0.177   3.937  16.087 -0.5720 -2.0933 -2.3137
14382TIP3    H264638   0.279   3.995  15.992 -0.1248 -1.3796 -1.4194
14383TIP3   OH264639   5.079   0.657  16.282 -0.0557  0.5011 -0.0968
14383TIP3    H164640   5.020   0.611  16.342  0.7485  1.3178  1.3909
14383TIP3    H264641   5.163   0.612  16.292  0.7432  2.1779  1.3720
14384TIP3   OH264642   3.301   3.396  16.693 -0.3863 -0.8053  0.0887
14384TIP3    H164643   3.246   3.363  16.622 -2.1119  2.5815 -0.3327
14384TIP3    H264644   3.244   3.396  16.770 -0.8949  2.0528 -0.1898
14385TIP3   OH264645   0.906   0.195   4.866 -0.2989 -0.4044 -0.5696
14385TIP3    H164646   0.891   0.210   4.959  0.0278  0.8258 -0.7024
14385TIP3    H264647   0.872   0.107   4.850  0.9868 -1.2309  1.0174
14386TIP3   OH264648   5.862   5.665   4.148  0.0660 -0.3556  0.9485
14386TIP3    H164649   5.800   5.737   4.142 -0.0789 -0.5797 -2.2053
14386TIP3    H264650   5.814   5.589   4.118  1.4213 -0.8026 -0.2351
14387TIP3   OH264651   5.975   2.495  13.945 -0.5402  0.4035  0.4741
14387TIP3    H164652   5.938   2.431  14.006  0.0098 -0.3160  0.0804
14387TIP3    H264653   6.042   2.541  13.995 -2.1238  1.9031  1.2690
14388TIP3   OH264654   0.546   6.213  12.709 -0.3730  0.0404 -0.0018
14388TIP3    H164655   0.528   6.153  12.637 -0.6142  1.0160 -0.7745
14388TIP3    H264656   0.462   6.221  12.755 -0.1872 -0.6829  0.4839
14389TIP3   OH264657   5.622   0.727  14.415  0.0052  0.4858 -0.5177
14389TIP3    H164658   5.625   0.633  14.398  2.2457  0.4414 -0.1151
14389TIP3    H264659   5.609   0.734  14.510 -3.5718  0.6900 -0.8760
14390TIP3   OH264660   6.352   6.339  16.497  0.1005  0.1213  0.0440
14390TIP3    H164661   6.384   6.428  16.510  0.4262 -0.1681  1.3026
14390TIP3    H264662   6.413   6.284  16.545 -2.0585 -0.4779  2.2790
14391TIP3   OH264663   0.548   3.609  15.485 -0.2801  0.1310 -0.2639
14391TIP3    H164664   0.475   3.579  15.538 -0.5715  0.7915 -0.2810
14391TIP3    H264665   0.510   3.626  15.399  0.3380 -1.6944 -0.9480
14392TIP3   OH264666   2.380   3.880   3.774 -0.4070  0.2198 -0.2511
14392TIP3    H164667   2.363   3.923   3.690 -1.4253  0.5650  0.1164
14392TIP3    H264668   2.350   3.790   3.761  0.8646 -0.1635 -0.7250
14393TIP3   OH264669   6.654   0.163  13.996 -0.4162 -0.4005 -0.0624
14393TIP3    H164670   6.623   0.090  13.942 -0.5338 -1.3409  1.2360
14393TIP3    H264671   6.599   0.161  14.074  0.0037  0.6830  0.2820
14394TIP3   OH264672   1.362   4.064  14.021  0.2689  0.0671 -0.6085
14394TIP3    H164673   1.271   4.049  13.995  0.2755  0.1706 -0.6912
14394TIP3    H264674   1.365   4.041  14.114 -0.3349  2.0731 -0.0417
14395TIP3   OH264675   0.583   6.576   3.685  0.0289  0.1944  0.4881
14395TIP3    H164676   0.488   6.563   3.694 -0.2742  1.1376 -1.0923
14395TIP3    H264677   0.619   6.487   3.690 -1.0474 -0.2933 -0.0544
14396TIP3   OH264678   1.599   2.748   1.163 -0.2559 -0.0822 -0.6121
14396TIP3    H164679   1.537   2.732   1.093 -0.2075  1.5543 -1.0786
14396TIP3    H264680   1.586   2.676   1.224 -2.0475 -0.2108 -1.0873
14397TIP3   OH264681   6.052   0.053   0.807  0.0744 -0.5717 -0.2401
14397TIP3    H164682   6.143   0.027   0.818  0.0982 -0.1074  0.8147
14397TIP3    H264683   6.056   0.136   0.760  0.4177  1.0080  2.3829
14398TIP3   OH264684   2.811   3.335   4.442 -0.3825  0.2677  0.3067
14398TIP3    H164685   2.901   3.305   4.435 -0.6034 -0.0623 -1.6918
14398TIP3    H264686   2.811   3.422   4.401 -0.3713  1.7863  3.2451
14399TIP3   OH264687   3.046   3.984  11.855  0.1853  0.6613  0.5349
14399TIP3    H164688   2.971   4.003  11.798 -0.2643  1.0766  1.2422
14399TIP3    H264689   3.021   3.904  11.901  1.0635 -0.3694 -0.7024
14400TIP3   OH264690   2.687   3.543   3.589 -0.1090  0.1300 -0.2658
14400TIP3    H164691   2.689   3.613   3.654  1.5715  1.2728 -1.4813
14400TIP3    H264692   2.774   3.543   3.551 -0.5910 -1.5238 -1.4892
14401TIP3   OH264693   2.926   1.703   1.657 -0.5663  0.1897 -0.0487
14401TIP3    H164694   2.853   1.656   1.618 -1.3000  1.2333  0.0134
14401TIP3    H264695   2.971   1.744   1.583 -1.1616  1.0655  0.0557
14402TIP3   OH264696   0.578   0.578  15.467  0.6694 -0.4345  0.5780
14402TIP3    H164697   0.622   0.605  15.548  0.2764 -0.2077  0.7205
14402TIP3    H264698   0.536   0.495  15.489  0.2277 -0.1763  0.7324
14403TIP3   OH264699   3.418   2.630  13.212  0.2311 -0.0728  0.2417
14403TIP3    H164700   3.362   2.554  13.229  0.5045 -0.6171 -1.1468
14403TIP3    H264701   3.367   2.683  13.151  0.6353  0.1244  0.0720
14404TIP3   OH264702   0.755   4.431  13.099  0.0172  0.0798  0.5187
14404TIP3    H164703   0.846   4.460  13.100  0.4716 -1.2097 -0.2609
14404TIP3    H264704   0.703   4.511  13.098  1.1039  0.8503  2.0791
14405TIP3   OH264705   5.220   6.517  12.676 -0.1640 -0.0548 -0.0898
14405TIP3    H164706   5.290   6.529  12.741 -0.4451  0.4729  0.1180
14405TIP3    H264707   5.187   6.429  12.693 -1.4897  0.7278  1.7333
14406TIP3   OH264708   5.811   3.240   4.558  0.1728 -0.2821 -0.1892
14406TIP3    H164709   5.897   3.246   4.600  0.5134 -0.5935 -0.8246
14406TIP3    H264710   5.824   3.277   4.470 -0.7529  1.2489  0.2701
14407TIP3   OH264711   2.287   0.501  17.133  0.5040 -0.1518  0.3688
14407TIP3    H164712   2.264   0.451  17.055 -0.1529 -0.1714  0.5683
14407TIP3    H264713   2.375   0.471  17.156  0.2300 -1.0114  0.3320
14408TIP3   OH264714   1.812   0.950   4.779  0.4663  0.4327  0.0675
14408TIP3    H164715   1.735   0.906   4.817  1.4201 -0.6619  0.8221
14408TIP3    H264716   1.814   1.036   4.821  0.5517 -0.1433  1.3060
14409TIP3   OH264717   4.081   5.844   5.646  0.2867  0.2057  0.6949
14409TIP3    H164718   4.071   5.892   5.729 -2.3115 -2.3940  2.0929
14409TIP3    H264719   4.149   5.779   5.663  0.7791  0.5899  0.2471
14410TIP3   OH264720   0.156   2.195   1.666  0.0091 -0.2491  0.7766
14410TIP3    H164721   0.071   2.215   1.705  0.3121 -0.8111  1.7607
14410TIP3    H264722   0.137   2.123   1.604 -0.4153  0.4238  0.1045
14411TIP3   OH264723   3.076   6.723   2.465  0.3739 -0.1123  0.2736
14411TIP3    H164724   3.050   6.704   2.375 -0.4039  0.2511  0.4158
14411TIP3    H264725   3.015   6.673   2.519  1.0346 -0.5767  0.6023
14412TIP3   OH264726   5.590   3.859   3.043  0.5373 -0.1119  0.3315
14412TIP3    H164727   5.502   3.831   3.018 -0.3551  2.8167 -0.1858
14412TIP3    H264728   5.614   3.801   3.115 -1.9925 -0.7805  0.7386
14413TIP3   OH264729   3.113   6.684   5.290 -0.7423 -0.2551  0.0715
14413TIP3    H164730   3.025   6.700   5.325 -0.8699  1.4358 -0.9056
14413TIP3    H264731   3.159   6.639   5.361 -2.5446 -1.7156  0.4025
14414TIP3   OH264732   5.040   1.745   6.148  0.5172 -0.1817  0.3397
14414TIP3    H164733   4.974   1.749   6.217 -1.0350 -2.6360 -0.8615
14414TIP3    H264734   5.120   1.715   6.192 -0.3013 -1.1805  1.1960
14415TIP3   OH264735   2.872   0.792  14.471  0.6031  0.1055 -0.1437
14415TIP3    H164736   2.787   0.748  14.459 -0.1393  1.1116  1.1474
14415TIP3    H264737   2.849   0.884  14.482  1.4877  0.0240  3.7785
14416TIP3   OH264738   1.958   4.622   0.202  0.0994  0.5969 -0.3629
14416TIP3    H164739   1.985   4.610   0.293  0.3611 -4.0209 -0.8474
14416TIP3    H264740   2.040   4.618   0.153 -0.3350 -1.1500 -1.0054
14417TIP3   OH264741   1.418   3.351  14.486 -0.1319  0.6450 -0.1014
14417TIP3    H164742   1.436   3.411  14.559 -0.0908  2.9955 -1.9368
14417TIP3    H264743   1.326   3.326  14.498 -0.1030  0.9182  0.7895
14418TIP3   OH264744   0.695   4.939   3.711 -0.0754  0.5199 -0.3034
14418TIP3    H164745   0.711   4.954   3.805  0.8882  0.4238 -0.4417
14418TIP3    H264746   0.759   4.993   3.667  0.3621 -0.4481 -0.8818
14419TIP3   OH264747   5.504   3.872   5.188 -0.0228 -0.3031  0.1689
14419TIP3    H164748   5.596   3.856   5.166  0.1363  1.8335 -1.0559
14419TIP3    H264749   5.495   3.967   5.182 -2.6796 -0.5519 -1.4027
14420TIP3   OH264750   0.791   6.797   4.810  0.2505  0.0762 -0.4079
14420TIP3    H164751   0.820   6.727   4.867 -0.7042  0.2101  0.2773
14420TIP3    H264752   0.696   6.799   4.821  0.1586  0.8090 -1.1929
14421TIP3   OH264753   6.198   0.191  13.877  0.0356 -0.0289  0.3072
14421TIP3    H164754   6.247   0.250  13.935  0.8458 -0.3026 -0.0874
14421TIP3    H264755   6.110   0.190  13.914  0.0253  1.3391  0.3894
14422TIP3   OH264756   6.597   0.427  15.312  0.3268  0.5350  0.0753
14422TIP3    H164757   6.578   0.371  15.387  0.5722  0.0736 -0.2021
14422TIP3    H264758   6.516   0.429  15.262  0.6603 -0.5711 -0.5508
14423TIP3   OH264759   0.907   4.508  12.170 -0.0078  0.2049 -0.3824
14423TIP3    H164760   0.887   4.476  12.082 -0.7454 -0.1621 -0.0934
14423TIP3    H264761   0.889   4.602  12.166  0.0157  0.1984 -0.6423
14424TIP3   OH264762   4.154   5.236   2.016 -0.4602 -0.6894  0.1741
14424TIP3    H164763   4.197   5.222   2.100  0.3050 -2.0212 -0.4143
14424TIP3    H264764   4.226   5.239   1.952 -1.1718 -2.5760 -0.7810
14425TIP3   OH264765   0.245   0.367   5.269 -0.5310 -0.8117  0.2436
14425TIP3    H164766   0.316   0.424   5.299 -1.0746 -0.0022  0.0420
14425TIP3    H264767   0.286   0.282   5.256  0.4493 -0.3075 -0.0866
14426TIP3   OH264768   1.680   3.007   1.102 -0.0619 -0.1194 -0.2871
14426TIP3    H164769   1.606   3.063   1.126 -0.0336  0.1361 -0.7875
14426TIP3    H264770   1.659   2.922   1.140 -0.1152  0.2192  0.4651
14427TIP3   OH264771   0.673   0.292   4.611 -0.2688 -0.8735  0.3573
14427TIP3    H164772   0.644   0.368   4.662 -0.2667 -0.8134  0.2680
14427TIP3    H264773   0.726   0.241   4.672  2.9495  1.0591 -0.5757
14428TIP3   OH264774   3.333   5.595  16.984 -0.0628 -0.0215  0.5414
14428TIP3    H164775   3.357   5.504  17.002 -1.2799 -0.4169  0.2029
14428TIP3    H264776   3.391   5.646  17.042 -0.6596 -1.0792  2.1419
14429TIP3   OH264777   1.451   6.337   5.122 -0.2070 -0.2866 -0.2020
14429TIP3    H164778   1.392   6.317   5.195 -0.8098  1.6938 -0.0745
14429TIP3    H264779   1.396   6.381   5.057  1.2137  2.7327  0.4199
14430TIP3   OH264780   0.603   3.722   3.355  0.5584 -0.6279  0.7198
14430TIP3    H164781   0.587   3.815   3.369 -0.3328 -0.8115  0.9989
14430TIP3    H264782   0.563   3.703   3.270 -0.0550 -0.9333  1.0697
14431TIP3   OH264783   4.939   0.106   2.520 -0.3511 -0.3616  0.1569
14431TIP3    H164784   4.969   0.153   2.442  0.3489  0.5874  0.9755
14431TIP3    H264785   4.844   0.113   2.517 -0.2997  0.2126 -0.2850
14432TIP3   OH264786   4.026   3.589   5.308  0.4228  0.0456  0.3007
14432TIP3    H164787   4.096   3.639   5.350  2.4001 -2.2607 -0.0732
14432TIP3    H264788   4.042   3.601   5.214 -0.5852  0.6623  0.1969
14433TIP3   OH264789   6.387   5.527  11.626  0.7479 -0.5372  0.3162
14433TIP3    H164790   6.396   5.536  11.531 -1.9598 -0.0026  0.0194
14433TIP3    H264791   6.295   5.505  11.639  1.4029 -2.3002  2.7593
14434TIP3   OH264792   2.551   4.323   1.274 -0.2616 -0.6282 -0.4580
14434TIP3    H164793   2.519   4.259   1.337 -0.0071 -0.7207 -0.4225
14434TIP3    H264794   2.516   4.293   1.190  0.7122 -1.4036 -0.6008
14435TIP3   OH264795   4.072   2.026   1.913  0.1785  0.5302 -0.0974
14435TIP3    H164796   4.021   1.956   1.870  0.7942  0.7003 -1.1274
14435TIP3    H264797   4.046   2.021   2.005  0.2144 -1.0684 -0.1480
14436TIP3   OH264798   6.351   5.795   1.908  0.3280  0.0908  0.0517
14436TIP3    H164799   6.374   5.765   1.996 -3.6387 -0.4612  1.1110
14436TIP3    H264800   6.399   5.736   1.849  0.5356 -1.7250  1.9254
14437TIP3   OH264801   2.150   4.458   4.215  0.1040 -0.2383  0.0995
14437TIP3    H164802   2.193   4.509   4.146 -0.8471 -1.2497 -1.2949
14437TIP3    H264803   2.173   4.367   4.196 -1.2062 -0.6435  0.3443
14438TIP3   OH264804   6.456   0.545   1.646 -0.6926  0.6312  0.0463
14438TIP3    H164805   6.469   0.581   1.733 -0.5345 -0.5329  0.5202
14438TIP3    H264806   6.414   0.616   1.597  0.9045  1.9720  0.5031
14439TIP3   OH264807   2.744   1.913  12.483 -0.0184  0.5502  0.6218
14439TIP3    H164808   2.791   1.941  12.404 -1.2927  0.4238 -0.2194
14439TIP3    H264809   2.676   1.979  12.496 -0.8136 -0.2518  0.6790
14440TIP3   OH264810   3.481   1.733   4.612 -0.1089 -0.1035  0.5098
14440TIP3    H164811   3.386   1.742   4.609 -0.1055 -0.4369 -1.7629
14440TIP3    H264812   3.514   1.794   4.546  1.1835 -0.8948  0.3814
14441TIP3   OH264813   4.085   0.979   0.250 -0.4788  0.2902 -0.2582
14441TIP3    H164814   4.018   1.047   0.257 -0.6594  0.1053 -0.2055
14441TIP3    H264815   4.132   0.983   0.333 -2.5398 -1.8197  1.1200
14442TIP3   OH264816   3.913   0.871  14.541  0.0342  0.6656  0.2500
14442TIP3    H164817   3.853   0.894  14.471  0.9703  0.6310 -0.5814
14442TIP3    H264818   3.935   0.779  14.525  0.5539  0.7667  0.3526
14443TIP3   OH264819   0.539   4.129  11.994 -0.0458  0.0103 -0.1685
14443TIP3    H164820   0.600   4.202  11.987 -1.2715  1.2575  1.2756
14443TIP3    H264821   0.553   4.095  12.082  1.5067 -2.5074 -1.2798
14444TIP3   OH264822   4.823   1.986   0.488  0.0419  0.5568  0.0812
14444TIP3    H164823   4.749   1.974   0.428 -0.2013 -0.1233  0.5135
14444TIP3    H264824   4.785   2.026   0.566  0.5766  2.7892 -0.6995
14445TIP3   OH264825   3.794   5.512  17.163  0.1941  0.1057 -0.0830
14445TIP3    H164826   3.761   5.598  17.138 -0.9779 -0.3144 -0.0913
14445TIP3    H264827   3.850   5.528  17.239  0.2659  0.9136 -0.3061
14446TIP3   OH264828   3.684   1.781   4.789  0.3582 -0.3090  0.0470
14446TIP3    H164829   3.778   1.773   4.772  0.4083  0.9832 -0.4059
14446TIP3    H264830   3.642   1.742   4.712  0.5267 -0.2311 -0.0848
14447TIP3   OH264831   3.595   4.231   0.252  0.1500  1.1863  0.3914
14447TIP3    H164832   3.534   4.267   0.188  2.2255  0.6149 -2.0900
14447TIP3    H264833   3.550   4.154   0.287 -1.3919  2.0036  0.2963
14448TIP3   OH264834   3.083   5.191   1.843 -0.1153  0.0071 -0.2455
14448TIP3    H164835   3.068   5.285   1.850  0.3603  0.1001 -0.4475
14448TIP3    H264836   3.013   5.159   1.786 -1.0498  0.0262  0.8455
14449TIP3   OH264837   4.174   0.609  15.537 -0.0604  0.5994 -0.1048
14449TIP3    H164838   4.094   0.659  15.554 -0.7639 -0.5784  0.1524
14449TIP3    H264839   4.231   0.670  15.491 -1.4831  1.1931 -1.1637
14450TIP3   OH264840   1.415   0.342  16.092 -0.0530 -0.2910 -0.3040
14450TIP3    H164841   1.330   0.302  16.074  0.6882 -1.1292 -2.2658
14450TIP3    H264842   1.448   0.293  16.168 -1.9950  1.2311  1.6264
14451TIP3   OH264843   2.362   0.171   3.489 -0.3633  0.1623 -0.8177
14451TIP3    H164844   2.398   0.169   3.400  0.0841 -2.7501 -0.6683
14451TIP3    H264845   2.432   0.210   3.542  0.5552 -0.6949 -1.3426
14452TIP3   OH264846   5.006   1.801  14.881  0.0574  0.0421 -0.0240
14452TIP3    H164847   4.993   1.736  14.812 -0.0181 -0.7650  0.7443
14452TIP3    H264848   5.057   1.870  14.839 -0.9153  0.0873 -1.1947
14453TIP3   OH264849   2.609   0.720   2.092 -0.8347  0.3105 -0.0426
14453TIP3    H164850   2.652   0.707   2.176  1.2970  0.1388 -1.0871
14453TIP3    H264851   2.633   0.642   2.041 -1.3170  0.8320 -1.0956
14454TIP3   OH264852   1.881   0.706  14.921 -0.4972  0.6761  0.2802
14454TIP3    H164853   1.891   0.786  14.870 -0.5905  1.0892  0.9088
14454TIP3    H264854   1.899   0.732  15.011 -0.8475  0.0603  0.5324
14455TIP3   OH264855   6.632   4.607  10.886  0.2782 -0.2589  0.3548
14455TIP3    H164856   6.714   4.563  10.910  0.1005 -0.3347  0.8493
14455TIP3    H264857   6.626   4.680  10.948 -0.1198 -0.3645  0.4412
14456TIP3   OH264858   6.561   5.290   0.183  0.3941 -0.2305 -0.1906
14456TIP3    H164859   6.628   5.338   0.232 -1.5579  1.8778  0.6083
14456TIP3    H264860   6.601   5.273   0.098  1.5687  2.0670 -0.1886
14457TIP3   OH264861   6.624   4.471  12.857  0.1711  0.1550 -0.0877
14457TIP3    H164862   6.713   4.470  12.824  0.4032 -0.0278  0.5247
14457TIP3    H264863   6.614   4.387  12.903  0.4986  1.1668  1.9240
14458TIP3   OH264864   1.135   5.106   1.391  0.5078  0.3772  0.2700
14458TIP3    H164865   1.084   5.156   1.327 -0.9757 -1.1827  0.1439
14458TIP3    H264866   1.081   5.105   1.470  1.1097  0.0910  0.6836
14459TIP3   OH264867   0.993   1.897  14.319 -0.9303 -0.5507 -0.2009
14459TIP3    H164868   1.007   1.873  14.228  0.6132  0.4612 -0.2748
14459TIP3    H264869   0.907   1.940  14.320 -0.8145 -0.2779 -1.2467
14460TIP3   OH264870   1.278   0.997  13.689  0.2765  0.4900 -0.8997
14460TIP3    H164871   1.278   1.064  13.758  2.7349 -1.8353  1.6536
14460TIP3    H264872   1.351   1.022  13.632  1.4108 -0.0741  0.2416
14461TIP3   OH264873   0.319   0.242   3.095  0.8604  0.2930  0.3727
14461TIP3    H164874   0.328   0.337   3.099 -0.1886  0.3736  1.5305
14461TIP3    H264875   0.336   0.219   3.004 -1.8793  1.9343 -0.6305
14462TIP3   OH264876   3.772   5.751  11.575  0.4200  0.1898 -0.5299
14462TIP3    H164877   3.824   5.687  11.528 -1.3431 -1.1853 -0.7240
14462TIP3    H264878   3.684   5.742  11.539  0.0697  2.6737 -0.4864
14463TIP3   OH264879   1.560   3.769  15.377 -0.4192 -0.3062 -0.2174
14463TIP3    H164880   1.591   3.820  15.452 -1.4114  0.4716 -0.3140
14463TIP3    H264881   1.636   3.762  15.320 -0.4579  1.8991 -0.6356
14464TIP3   OH264882   5.008   1.146  13.626 -0.0581 -0.0136 -0.3172
14464TIP3    H164883   5.022   1.149  13.532  0.2850 -1.5751 -0.3439
14464TIP3    H264884   5.028   1.235  13.656  1.0114  0.1932 -1.5538
14465TIP3   OH264885   1.079   1.886   3.314 -0.2802  0.4625 -0.6943
14465TIP3    H164886   1.020   1.885   3.239 -0.9881  1.3923 -0.1758
14465TIP3    H264887   1.166   1.879   3.276 -0.6920 -1.0652 -1.4710
14466TIP3   OH264888   0.791   0.711  15.650 -0.2477 -0.4702  0.6126
14466TIP3    H164889   0.823   0.757  15.728  0.2197  0.1387  0.0849
14466TIP3    H264890   0.837   0.754  15.577 -0.8050 -0.9048 -0.0100
14467TIP3   OH264891   1.313   4.122  15.154 -0.1761  0.0498 -0.1976
14467TIP3    H164892   1.397   4.157  15.122 -0.2624  0.1445 -0.3223
14467TIP3    H264893   1.312   4.031  15.125 -1.2535  0.7199 -2.4701
14468TIP3   OH264894   3.550   0.989   2.722 -0.3713 -0.6135 -0.1063
14468TIP3    H164895   3.475   1.047   2.736 -0.6983 -0.8642 -0.7738
14468TIP3    H264896   3.557   0.938   2.803  0.6860  1.1910  0.9970
14469TIP3   OH264897   0.040   4.533  14.032 -0.3443 -0.2040 -0.6874
14469TIP3    H164898  -0.009   4.475  14.090  0.6007  0.3877  0.7563
14469TIP3    H264899   0.070   4.604  14.089  1.7654 -0.2877 -1.6101
14470TIP3   OH264900   5.125   3.501   1.731  0.9402 -0.1433  0.8086
14470TIP3    H164901   5.102   3.574   1.790 -0.7389 -0.2054  0.2678
14470TIP3    H264902   5.109   3.423   1.783 -0.5893 -0.1996  0.2910
14471TIP3   OH264903   6.117   2.024  12.195 -0.4735 -0.1653 -0.5522
14471TIP3    H164904   6.205   1.997  12.168 -0.0886  1.0220 -0.5272
14471TIP3    H264905   6.111   1.995  12.287  0.4895  1.0695 -0.0621
14472TIP3   OH264906   0.450   4.911   3.897  0.3856  0.0629 -0.3581
14472TIP3    H164907   0.536   4.927   3.934 -0.4379  0.4838  1.4910
14472TIP3    H264908   0.426   4.824   3.929  0.5919 -0.5647 -1.8488
14473TIP3   OH264909   1.690   4.531  10.971 -0.3583  0.0838  0.1669
14473TIP3    H164910   1.718   4.553  11.060  0.6543  0.5951 -0.2623
14473TIP3    H264911   1.603   4.570  10.963 -1.2643 -1.5113  1.5253
14474TIP3   OH264912   0.406   2.390   5.979  0.1597  0.4144 -0.1230
14474TIP3    H164913   0.322   2.353   6.009  0.4909  1.0561  1.6972
14474TIP3    H264914   0.429   2.336   5.903 -1.6455 -0.1035 -0.3644
14475TIP3   OH264915   2.548   5.652  10.819  0.2466  0.2785 -0.0333
14475TIP3    H164916   2.481   5.683  10.759  0.3423  2.2012  0.7848
14475TIP3    H264917   2.625   5.636  10.764  0.6837  3.0791 -0.3636
14476TIP3   OH264918   0.282   0.841  11.902  0.0481  0.0140 -0.2052
14476TIP3    H164919   0.341   0.813  11.972  2.5524  1.1712 -1.6932
14476TIP3    H264920   0.226   0.765  11.887  0.9977 -1.0923  1.4661
14477TIP3   OH264921   6.579   2.037  13.933  0.8909 -0.2702 -0.3195
14477TIP3    H164922   6.557   2.122  13.972  4.1230  0.7744 -0.4977
14477TIP3    H264923   6.565   1.975  14.004 -2.8920  0.0363 -0.5757
14478TIP3   OH264924   5.229   0.463  14.287 -0.1587 -0.3506 -0.0701
14478TIP3    H164925   5.212   0.470  14.381  2.0071  0.3124  0.3130
14478TIP3    H264926   5.323   0.476  14.278 -0.5248  1.3920 -2.5129
14479TIP3   OH264927   5.676   4.993   0.304  0.2025  0.0320  0.4129
14479TIP3    H164928   5.622   4.922   0.338  0.2558  0.0556  0.5493
14479TIP3    H264929   5.728   5.022   0.380  0.6764 -0.2421  0.1998
14480TIP3   OH264930   4.367   2.048  15.282 -0.4214  0.3527 -0.1037
14480TIP3    H164931   4.453   2.034  15.242 -0.8749  0.3960 -1.1264
14480TIP3    H264932   4.343   2.138  15.259 -0.9304  0.1999 -0.1942
14481TIP3   OH264933   2.791   5.963  16.372  0.3049  0.6353 -0.6852
14481TIP3    H164934   2.718   5.902  16.384  0.4139  0.6785  0.2910
14481TIP3    H264935   2.751   6.050  16.375  0.0144  0.6342 -3.0343
14482TIP3   OH264936   2.974   2.216   2.108 -1.0034 -0.2774  0.0499
14482TIP3    H164937   3.002   2.143   2.163 -0.0934  0.5466  0.7054
14482TIP3    H264938   2.958   2.176   2.022  2.0739 -0.8511 -0.3786
14483TIP3   OH264939   4.588   3.925  16.087  0.1212 -0.1348 -0.2096
14483TIP3    H164940   4.673   3.896  16.120  0.2268  1.6071  1.1937
14483TIP3    H264941   4.601   3.939  15.993  0.6955 -2.1618 -0.4714
14484TIP3   OH264942   2.930   0.871  15.474  0.1264  0.0042 -0.2150
14484TIP3    H164943   2.889   0.785  15.475 -2.6153  1.1442 -2.3205
14484TIP3    H264944   2.993   0.867  15.402  0.2578 -0.3357 -0.0830
14485TIP3   OH264945   5.244   3.247   0.802  0.2662  0.0396  0.2399
14485TIP3    H164946   5.270   3.315   0.865  0.4406  2.6644 -2.4468
14485TIP3    H264947   5.152   3.265   0.784  0.0042 -1.1778  0.2952
14486TIP3   OH264948   0.255   5.867  10.815  0.3578 -0.4982 -0.7271
14486TIP3    H164949   0.177   5.894  10.864  0.0069 -1.7877 -0.5367
14486TIP3    H264950   0.239   5.896  10.725 -0.2428 -0.5447 -0.6373
14487TIP3   OH264951   5.074   2.330   0.751  0.5940  0.5250  0.3867
14487TIP3    H164952   5.155   2.349   0.799  1.2966 -0.8815 -0.1597
14487TIP3    H264953   5.104   2.310   0.662 -0.3606 -0.0166  0.1780
14488TIP3   OH264954   0.725   5.280  15.024  0.0181  0.0601 -0.0404
14488TIP3    H164955   0.654   5.285  14.960  1.8980  0.0416 -2.2427
14488TIP3    H264956   0.784   5.213  14.990  1.8657  1.1273  0.9156
14489TIP3   OH264957   2.346   0.574  15.869 -0.5939 -0.6049  0.4451
14489TIP3    H164958   2.333   0.659  15.911 -1.1560 -0.1527 -0.6349
14489TIP3    H264959   2.407   0.528  15.928 -1.2048  0.0769  1.6593
14490TIP3   OH264960   0.994   3.520   1.949 -0.2400 -0.0379 -0.4085
14490TIP3    H164961   1.026   3.591   2.004 -1.4145 -1.4958  2.3843
14490TIP3    H264962   1.057   3.449   1.963 -0.3838 -0.3418 -1.2543
14491TIP3   OH264963   4.037   5.311  16.340 -0.9887 -0.4466  0.3184
14491TIP3    H164964   4.009   5.400  16.361 -2.4240 -0.8052  0.0291
14491TIP3    H264965   4.109   5.294  16.400 -0.2415  1.1356 -0.0613
14492TIP3   OH264966   3.824   6.303  15.368  0.8154  0.3025 -0.4218
14492TIP3    H164967   3.775   6.254  15.434  0.5481  0.0882 -0.7758
14492TIP3    H264968   3.890   6.351  15.418  0.8402 -0.1281 -0.0307
14493TIP3   OH264969   5.118   4.929  10.859  0.4233  0.4372 -0.1197
14493TIP3    H164970   5.201   4.893  10.829  0.2077  0.2425 -0.4801
14493TIP3    H264971   5.096   4.997  10.795  0.0051  0.0778 -0.3615
14494TIP3   OH264972   5.839   1.789  16.149 -0.7201  1.0873 -0.2533
14494TIP3    H164973   5.926   1.782  16.109 -1.2494 -0.7173 -1.2617
14494TIP3    H264974   5.846   1.861  16.211  1.4431  1.0860 -0.4169
14495TIP3   OH264975   2.565   4.731   1.878  0.1192  0.8291 -0.3345
14495TIP3    H164976   2.563   4.784   1.798 -0.4128  0.1314 -0.7955
14495TIP3    H264977   2.485   4.679   1.874 -0.7436  1.9369  1.4691
14496TIP3   OH264978   6.135   5.366  13.939  0.1044  0.0607  0.4125
14496TIP3    H164979   6.060   5.398  13.890  0.2381  1.0413  0.8327
14496TIP3    H264980   6.097   5.328  14.018  0.0052 -0.0581  0.3080
14497TIP3   OH264981   4.116   5.026  14.061  0.5637 -0.2432 -0.0068
14497TIP3    H164982   4.106   5.090  13.990 -1.0467 -0.0978  0.3314
14497TIP3    H264983   4.086   4.943  14.023 -1.9782  0.1587  0.9546
14498TIP3   OH264984   1.018   6.795   2.416  0.3242  0.1349  0.1995
14498TIP3    H164985   0.926   6.799   2.393  0.3754 -1.8566 -0.5896
14498TIP3    H264986   1.057   6.740   2.348  1.7664 -0.4133  1.4188
14499TIP3   OH264987   0.205   0.229  12.740  0.2165  0.1485  0.2666
14499TIP3    H164988   0.133   0.230  12.677 -0.8561 -1.9064  1.3562
14499TIP3    H264989   0.162   0.231  12.826  1.3668 -1.9027  0.9644
14500TIP3   OH264990   3.083   6.772   0.581 -0.6397  0.2546  0.7197
14500TIP3    H164991   3.123   6.730   0.505 -0.2282  0.4855  0.8056
14500TIP3    H264992   3.029   6.704   0.620 -0.1302 -0.1377  0.7464
14501TIP3   OH264993   4.303   0.346  16.782  0.1556 -0.0506  0.0940
14501TIP3    H164994   4.397   0.348  16.799  0.6426 -2.3029 -1.6770
14501TIP3    H264995   4.267   0.292  16.852  0.2070  0.5923  0.6222
14502TIP3   OH264996   0.181   4.358   5.757  0.7171  0.4279  0.2689
14502TIP3    H164997   0.214   4.279   5.801 -0.2872  0.5584  1.2841
14502TIP3    H264998   0.220   4.431   5.805 -1.3076  0.5925  1.7564
14503TIP3   OH264999   0.024   2.534  10.680 -0.4166 -0.7139 -0.5769
14503TIP3    H165000  -0.021   2.487  10.751 -0.7858 -0.2237 -0.4794
14503TIP3    H265001   0.012   2.478  10.603 -0.1003 -1.2022 -0.2770
14504TIP3   OH265002   4.548   3.382  14.641 -0.4002 -0.4641 -0.1405
14504TIP3    H165003   4.596   3.320  14.696 -0.1580  1.6730  2.2547
14504TIP3    H265004   4.461   3.344  14.632 -0.5148 -0.7928  1.9767
14505TIP3   OH265005   6.169   2.610   3.213 -0.3064 -0.2257 -0.2340
14505TIP3    H165006   6.142   2.654   3.132 -0.1410 -2.0097 -1.2938
14505TIP3    H265007   6.087   2.579   3.252 -0.6068  2.1637  1.3181
14506TIP3   OH265008   3.267   0.126  13.905  0.1180 -0.3179  0.4007
14506TIP3    H165009   3.194   0.150  13.848  0.3973  0.8620  0.5225
14506TIP3    H265010   3.317   0.062  13.855 -0.6208 -0.6295  0.0431
14507TIP3   OH265011   2.432   6.644   0.380  0.0371 -0.1369 -0.0033
14507TIP3    H165012   2.377   6.707   0.332 -1.7568 -1.6449 -0.0432
14507TIP3    H265013   2.435   6.568   0.323 -0.7229 -1.3422  1.5079
14508TIP3   OH265014   0.963   1.322  11.398 -0.1706 -0.2397  0.1304
14508TIP3    H165015   0.900   1.395  11.400 -0.0415 -0.1013 -0.5452
14508TIP3    H265016   0.966   1.296  11.306  1.1098  0.0557  0.0730
14509TIP3   OH265017   0.940   6.441  13.294  0.3881  0.7414  0.4253
14509TIP3    H165018   0.946   6.449  13.199 -0.1117 -0.3299  0.2933
14509TIP3    H265019   1.025   6.473  13.326  0.1420  2.1814 -0.2918
14510TIP3   OH265020   1.864   6.531   4.608 -0.4794  0.4176 -0.6107
14510TIP3    H165021   1.895   6.587   4.680 -0.5819  0.6129 -0.7177
14510TIP3    H265022   1.905   6.569   4.530 -0.1723  0.0594 -0.6282
14511TIP3   OH265023   2.737   1.066  15.487 -0.6943 -0.2262 -0.5982
14511TIP3    H165024   2.790   0.989  15.467  0.9306  0.6982 -0.0821
14511TIP3    H265025   2.757   1.085  15.579 -0.3745  1.3024 -0.9591
14512TIP3   OH265026   5.208   6.665  11.169  0.4810 -0.0903 -0.1631
14512TIP3    H165027   5.215   6.633  11.080  1.2683  0.3817 -0.2814
14512TIP3    H265028   5.198   6.586  11.222  0.5736 -0.4098 -0.6179
14513TIP3   OH265029   1.608   1.997   3.266 -0.0230 -0.3574  0.4179
14513TIP3    H165030   1.571   2.084   3.276  0.0129 -0.3123  0.1587
14513TIP3    H265031   1.542   1.938   3.303  0.0949 -0.1971  0.8928
14514TIP3   OH265032   3.470   3.556   5.221  0.0752 -0.1869  0.1568
14514TIP3    H165033   3.460   3.504   5.301 -0.0885 -2.1892 -1.0809
14514TIP3    H265034   3.550   3.521   5.180 -1.2722 -1.1307 -1.8304
14515TIP3   OH265035   6.558   4.090   0.306  0.0692  0.1454  0.6752
14515TIP3    H165036   6.573   4.184   0.311  0.1495  0.1692  0.0752
14515TIP3    H265037   6.571   4.059   0.395 -0.2531  0.7450  0.9400
14516TIP3   OH265038   3.588   6.642  14.979 -0.2403 -0.2413  0.2975
14516TIP3    H165039   3.504   6.616  15.017 -0.0001  0.7065  1.5498
14516TIP3    H265040   3.653   6.590  15.026 -0.1699 -1.9521 -1.5822
14517TIP3   OH265041   2.791   2.883   2.966 -0.5605 -0.2113 -0.2139
14517TIP3    H165042   2.788   2.829   2.886 -2.3038 -0.7254  0.1503
14517TIP3    H265043   2.719   2.945   2.955 -0.1485  0.4083  0.5141
14518TIP3   OH265044   4.198   5.856   1.953 -0.1921 -0.0904  0.3645
14518TIP3    H165045   4.158   5.769   1.952 -1.3478  0.4111 -0.9319
14518TIP3    H265046   4.276   5.846   2.007  1.4127 -2.6937 -2.1197
14519TIP3   OH265047   1.918   2.079   1.874  0.2145 -0.2475  0.6155
14519TIP3    H165048   1.986   2.140   1.846 -0.8104  0.4599 -0.4302
14519TIP3    H265049   1.944   2.053   1.962  2.3959 -0.8285 -0.1234
14520TIP3   OH265050   3.395   0.294   5.673  0.1924  0.4346 -0.2520
14520TIP3    H165051   3.444   0.350   5.733 -1.4991  1.6874  0.0119
14520TIP3    H265052   3.315   0.342   5.655 -0.7701 -1.3639 -1.0138
14521TIP3   OH265053   4.826   2.169  13.415  0.1688  0.4238 -0.2635
14521TIP3    H165054   4.754   2.190  13.475  1.1677  0.9999  0.7748
14521TIP3    H265055   4.893   2.128  13.471  0.5875 -0.2790 -1.2411
14522TIP3   OH265056   6.497   6.276   5.147 -0.3436  0.3326 -0.2030
14522TIP3    H165057   6.568   6.249   5.089 -1.5372  0.6385 -1.8927
14522TIP3    H265058   6.541   6.314   5.223  1.2888  0.2523 -1.0618
14523TIP3   OH265059   5.533   1.700  10.518  0.0578  0.2878 -0.3141
14523TIP3    H165060   5.472   1.741  10.457  0.8930  0.9707 -0.7011
14523TIP3    H265061   5.493   1.615  10.539 -1.1962  0.8752 -0.2724
14524TIP3   OH265062   4.294   0.390   0.634  0.0305 -0.0699  0.6502
14524TIP3    H165063   4.323   0.464   0.581  1.0521 -0.3432  0.7997
14524TIP3    H265064   4.318   0.414   0.724 -3.1232  1.1167  1.3132
14525TIP3   OH265065   5.849   1.343  12.770  0.6450  0.0676  0.2880
14525TIP3    H165066   5.758   1.359  12.747  0.3870  0.2353  1.3837
14525TIP3    H265067   5.891   1.318  12.688 -0.6111 -1.0210 -0.0376
14526TIP3   OH265068   2.533   1.519   6.059  0.2586  0.2864  0.0536
14526TIP3    H165069   2.536   1.555   5.971  0.1512  1.1894  0.4052
14526TIP3    H265070   2.477   1.442   6.053  1.4067 -0.5035 -0.9528
14527TIP3   OH265071   2.581   2.650  11.515 -0.3744  0.7955  0.1994
14527TIP3    H165072   2.527   2.726  11.535 -1.3776 -0.0105  0.6000
14527TIP3    H265073   2.525   2.594  11.462  0.5368  0.5519 -0.5520
14528TIP3   OH265074   6.410   6.375   2.200 -0.0047 -0.0326  0.2500
14528TIP3    H165075   6.484   6.320   2.173  0.4233  0.2821  0.7505
14528TIP3    H265076   6.347   6.367   2.129  0.4608 -0.4072 -0.1311
14529TIP3   OH265077   4.245   4.664  14.170  0.3506  0.3168 -0.0768
14529TIP3    H165078   4.262   4.735  14.232  2.5032  0.9557 -1.2944
14529TIP3    H265079   4.273   4.699  14.085  0.8763 -1.7413 -0.8163
14530TIP3   OH265080   2.225   0.801   1.000 -0.0564 -0.0662 -0.3524
14530TIP3    H165081   2.186   0.717   0.979  0.5165 -0.5909  0.6116
14530TIP3    H265082   2.224   0.806   1.095 -0.7480  1.3545 -0.4032
14531TIP3   OH265083   5.398   1.994   4.743 -0.6860  0.4086  0.1357
14531TIP3    H165084   5.315   1.947   4.751  1.1113 -3.1527 -0.1480
14531TIP3    H265085   5.395   2.033   4.656 -1.7265 -0.3679 -0.1992
14532TIP3   OH265086   2.167   0.860  14.975  0.3511 -0.1197 -0.6472
14532TIP3    H165087   2.225   0.930  15.004 -0.0423  0.1559 -0.5138
14532TIP3    H265088   2.088   0.905  14.945  0.4065 -0.4549 -1.3276
14533TIP3   OH265089   1.553   1.920   4.033 -0.2504  0.2794 -0.1077
14533TIP3    H165090   1.556   1.878   3.947 -1.0768 -1.8750  0.8383
14533TIP3    H265091   1.608   1.998   4.023  0.8650 -0.6651 -2.1632
14534TIP3   OH265092   3.138   0.908   0.865 -0.3821 -0.3145  0.0388
14534TIP3    H165093   3.098   0.948   0.787  0.8413 -0.5493 -0.7428
14534TIP3    H265094   3.065   0.899   0.927 -1.7643 -1.5448 -1.6352
14535TIP3   OH265095   2.510   4.852  14.844  0.1592 -0.4301  0.3237
14535TIP3    H165096   2.578   4.901  14.891  0.6854 -1.6715  0.9077
14535TIP3    H265097   2.462   4.918  14.794 -0.3587  0.9613  2.5347
14536TIP3   OH265098   5.158   4.291   3.668  0.3277  0.1155  0.0088
14536TIP3    H165099   5.243   4.283   3.625  0.1234  0.7693 -0.5407
14536TIP3    H265100   5.163   4.373   3.717  0.1149  0.0078  0.2159
14537TIP3   OH265101   0.421   2.822   2.975 -0.5643  0.1020  0.3925
14537TIP3    H165102   0.369   2.742   2.967 -0.9022  0.4855 -2.1232
14537TIP3    H265103   0.403   2.870   2.894  1.6689  1.4946  0.6456
14538TIP3   OH265104   0.237   5.195   2.875 -0.5559  0.0126  0.1315
14538TIP3    H165105   0.284   5.243   2.807  0.8844 -1.4916 -0.0156
14538TIP3    H265106   0.150   5.234   2.877 -0.4821  0.4408 -2.2119
14539TIP3   OH265107   2.275   3.077   4.685 -0.0214  0.1168 -0.1010
14539TIP3    H165108   2.239   2.992   4.711 -0.1550  0.1815 -0.0715
14539TIP3    H265109   2.272   3.076   4.589 -2.5419  1.1238 -0.1280
14540TIP3   OH265110   3.173   2.736  16.263  0.4695  0.0250  0.2312
14540TIP3    H165111   3.090   2.743  16.311 -0.0527  0.3046 -0.6913
14540TIP3    H265112   3.181   2.643  16.244  0.4353 -0.0200  0.4305
14541TIP3   OH265113   2.192   6.256   3.036  0.6409  1.3489  0.2349
14541TIP3    H165114   2.260   6.212   3.086 -0.8844 -2.0904 -0.4028
14541TIP3    H265115   2.119   6.265   3.098 -0.4403 -0.8261 -0.6144
14542TIP3   OH265116   2.686   1.078   2.679 -0.3550 -0.6104 -0.5521
14542TIP3    H165117   2.635   1.045   2.753 -0.7586  0.3969 -0.3641
14542TIP3    H265118   2.647   1.035   2.602 -1.8025  0.4481 -0.4587
14543TIP3   OH265119   6.155   0.908   5.348 -0.0417  0.3503  0.5282
14543TIP3    H165120   6.222   0.843   5.329 -1.4575 -1.1978  0.6826
14543TIP3    H265121   6.138   0.899   5.442 -1.7908 -0.6470  0.1679
14544TIP3   OH265122   1.109   4.166   5.933  0.3279 -0.2487  0.3669
14544TIP3    H165123   1.189   4.123   5.965 -1.2460 -1.7936  2.4614
14544TIP3    H265124   1.088   4.120   5.852  2.7679  1.7851 -1.6250
14545TIP3   OH265125   4.606   3.885  11.676 -0.4707 -0.2267 -0.3575
14545TIP3    H165126   4.613   3.865  11.770 -0.1376 -0.7259 -0.4901
14545TIP3    H265127   4.583   3.802  11.635 -0.0855 -0.1250 -0.7879
14546TIP3   OH265128   0.818   6.091  14.088 -0.4168 -0.0742  0.3732
14546TIP3    H165129   0.825   6.103  14.182 -1.8605 -1.9633  0.7858
14546TIP3    H265130   0.725   6.073  14.073 -0.1041 -0.4335 -1.3268
14547TIP3   OH265131   1.974   6.289   3.211 -0.0178 -0.0318  0.0212
14547TIP3    H165132   1.886   6.259   3.189 -0.2479  0.8422 -0.3041
14547TIP3    H265133   1.965   6.328   3.298 -0.2678  1.2619 -0.5523
14548TIP3   OH265134   3.041   4.368   5.457 -0.4187 -0.6752  0.3471
14548TIP3    H165135   3.012   4.331   5.374 -0.5408 -2.1512  1.0124
14548TIP3    H265136   3.128   4.330   5.471 -0.2888 -0.2352  0.7606
14549TIP3   OH265137   5.841   3.027   5.313 -0.8159 -0.2853  0.3887
14549TIP3    H165138   5.911   2.980   5.357 -0.0094  1.2210  0.7692
14549TIP3    H265139   5.808   3.088   5.378 -1.3500  0.1840 -0.3033
14550TIP3   OH265140   4.243   4.122  13.329 -0.6107  0.2324  0.0365
14550TIP3    H165141   4.169   4.080  13.373  0.5877 -1.5171  0.4683
14550TIP3    H265142   4.209   4.148  13.244 -1.5590 -1.1159 -0.0261
14551TIP3   OH265143   1.960   0.737   0.561 -0.6000 -0.6871 -0.4586
14551TIP3    H165144   1.986   0.735   0.469 -1.4483  2.1931 -0.8566
14551TIP3    H265145   2.042   0.750   0.609 -0.4388  0.9973 -1.1139
14552TIP3   OH265146   3.328   6.148  14.991  0.2370 -0.3856  0.0681
14552TIP3    H165147   3.299   6.239  14.992 -1.2868 -0.8472 -0.0824
14552TIP3    H265148   3.307   6.117  14.903  0.1063 -1.0788  0.3369
14553TIP3   OH265149   1.488   2.963  15.489 -0.5290 -0.4281  0.6356
14553TIP3    H165150   1.394   2.976  15.493 -0.2258  2.4554  0.3114
14553TIP3    H265151   1.525   3.026  15.550  1.2317 -1.2799  0.5393
14554TIP3   OH265152   0.600   1.363  17.095  0.4900 -0.1286 -0.0433
14554TIP3    H165153   0.689   1.334  17.076  1.3616  1.3009  1.5442
14554TIP3    H265154   0.601   1.386  17.188 -1.5194  0.0322 -0.0093
14555TIP3   OH265155   6.789   4.595  13.464 -0.5692  0.7901  0.3660
14555TIP3    H165156   6.844   4.555  13.531  0.5810  0.7141 -0.5778
14555TIP3    H265157   6.729   4.525  13.437  0.8426 -0.1000 -0.6527
14556TIP3   OH265158   3.723   4.530  14.932  0.2196 -0.6455  0.1073
14556TIP3    H165159   3.725   4.579  15.015 -1.1126  0.2164 -0.3380
14556TIP3    H265160   3.814   4.503  14.918  0.4328 -1.0898  1.9981
14557TIP3   OH265161   2.942   0.845   3.512  0.0410  0.0498  0.5533
14557TIP3    H165162   2.956   0.786   3.439  0.7713  0.2880  0.4929
14557TIP3    H265163   3.010   0.822   3.576 -0.8978 -0.4961  1.3813
14558TIP3   OH265164   1.515   1.849   2.979  0.6658  0.5201  0.0356
14558TIP3    H165165   1.602   1.883   3.000 -0.3765  2.8420  0.9957
14558TIP3    H265166   1.484   1.904   2.908 -0.1771 -0.0204 -0.0315
14559TIP3   OH265167   3.818   0.120   3.183 -0.1684 -0.2179 -0.2598
14559TIP3    H165168   3.789   0.068   3.257 -0.3646  1.1346  0.6620
14559TIP3    H265169   3.743   0.122   3.123 -0.4967 -0.2114  0.1474
14560TIP3   OH265170   1.092   0.061  13.889  0.0139  0.4639 -0.9002
14560TIP3    H165171   1.018   0.112  13.923  1.1806  1.8351 -0.3016
14560TIP3    H265172   1.054   0.007  13.820 -1.7482  0.2983  0.1268
14561TIP3   OH265173   0.825   0.085   4.260 -0.6093  0.0277 -0.5782
14561TIP3    H165174   0.748   0.039   4.225 -0.4326 -0.3403 -0.4838
14561TIP3    H265175   0.823   0.067   4.354 -0.3321 -0.0947 -0.5967
14562TIP3   OH265176   4.916   2.365  12.700  0.1035  0.5548 -0.1621
14562TIP3    H165177   4.991   2.358  12.760 -1.4108 -0.6692  1.7143
14562TIP3    H265178   4.913   2.458  12.677  0.7252  1.1020  1.7492
14563TIP3   OH265179   5.464   4.029  13.378 -0.4155  0.4897  0.2370
14563TIP3    H165180   5.529   4.028  13.307 -0.4318 -0.3929  0.2256
14563TIP3    H265181   5.462   3.939  13.410 -0.3677  0.8875  1.4050
14564TIP3   OH265182   5.208   6.672  16.905  0.1706 -0.2269  0.0049
14564TIP3    H165183   5.243   6.759  16.887 -0.2406  0.0514  0.5294
14564TIP3    H265184   5.282   6.624  16.943  0.0964  0.2459  0.7646
14565TIP3   OH265185   2.898   1.675   1.199 -0.7153 -0.0285 -0.0957
14565TIP3    H165186   2.953   1.617   1.250  0.5669  0.3627 -0.9953
14565TIP3    H265187   2.953   1.704   1.127 -1.7081  1.3406 -0.3496
14566TIP3   OH265188   5.834   2.621   3.886  0.1326 -0.2068 -0.2863
14566TIP3    H165189   5.758   2.666   3.850 -0.9196 -3.7635 -3.0877
14566TIP3    H265190   5.908   2.653   3.834 -0.2214 -0.1629 -0.7616
14567TIP3   OH265191   0.991   4.900   0.673 -0.5720  0.3026 -0.1798
14567TIP3    H165192   0.984   4.901   0.769  1.4997 -0.3611  0.0269
14567TIP3    H265193   1.079   4.868   0.656 -0.5968  1.2205 -2.3175
14568TIP3   OH265194   0.160   1.202   1.250  0.0811 -0.2282  0.5985
14568TIP3    H165195   0.168   1.246   1.334 -0.0688  0.2459  0.3707
14568TIP3    H265196   0.089   1.249   1.205 -0.3885 -0.9925  0.5235
14569TIP3   OH265197   3.627   6.555  13.998 -0.2652 -0.0962  0.0029
14569TIP3    H165198   3.635   6.484  13.934 -1.8341 -0.5693  0.3032
14569TIP3    H265199   3.581   6.515  14.072  0.9332  0.6157  1.1726
14570TIP3   OH265200   2.966   6.317  10.430  0.1501 -0.6445 -0.2933
14570TIP3    H165201   2.883   6.315  10.478 -0.2050 -1.5047 -0.8992
14570TIP3    H265202   2.988   6.224  10.417 -0.6406 -0.5363 -3.1888
14571TIP3   OH265203   0.587   1.564  16.298  0.1354  0.2622  0.8510
14571TIP3    H165204   0.681   1.572  16.284 -0.2606  1.6734 -1.5411
14571TIP3    H265205   0.571   1.608  16.382  1.6501 -0.6769  1.6749
14572TIP3   OH265206   1.686   1.880   2.560  0.1252 -0.0484  0.4232
14572TIP3    H165207   1.722   1.965   2.584  1.1591 -0.7998  1.6830
14572TIP3    H265208   1.755   1.836   2.512  0.7801 -1.2779  2.3584
14573TIP3   OH265209   3.930   2.855  11.374  0.4388  0.0312  0.4589
14573TIP3    H165210   3.992   2.912  11.328  1.6475 -0.5778  1.2708
14573TIP3    H265211   3.964   2.851  11.463  0.5597 -2.1691  0.3658
14574TIP3   OH265212   0.549   5.076   3.483  0.1038 -0.4692 -0.6919
14574TIP3    H165213   0.633   5.119   3.500  0.3986 -1.3183  0.0605
14574TIP3    H265214   0.505   5.134   3.420  0.4610  0.9472  0.3096
14575TIP3   OH265215   3.669   3.431   6.040  0.0833  0.1345 -0.3435
14575TIP3    H165216   3.718   3.368   6.094  1.3081  1.4927  0.1874
14575TIP3    H265217   3.721   3.511   6.044  0.2947  0.2848 -3.6524
14576TIP3   OH265218   1.616   3.855   0.353 -0.1866  0.4715 -0.2802
14576TIP3    H165219   1.605   3.922   0.286  0.8412 -1.0863 -2.1016
14576TIP3    H265220   1.707   3.864   0.381  0.3470 -0.9156 -1.4592
14577TIP3   OH265221   3.516   6.096   4.573 -0.2815  0.8619  0.0700
14577TIP3    H165222   3.568   6.015   4.569 -0.3333  0.8114  0.3800
14577TIP3    H265223   3.581   6.166   4.568 -0.2431  0.8020 -0.2893
14578TIP3   OH265224   3.096   6.120   3.062  0.1516 -0.8377 -0.3935
14578TIP3    H165225   3.128   6.158   2.980  1.7192  0.7635  0.8660
14578TIP3    H265226   3.003   6.140   3.062  0.7365  2.5937 -0.1721
14579TIP3   OH265227   6.679   0.982   3.851 -0.2139 -0.2015 -0.6957
14579TIP3    H165228   6.730   0.908   3.818 -1.7838 -1.8449  0.3593
14579TIP3    H265229   6.600   0.982   3.797 -1.2886 -0.8359  0.7886
14580TIP3   OH265230   0.376   5.713   5.056 -0.6581  0.4612  0.8277
14580TIP3    H165231   0.296   5.744   5.098 -1.3272 -1.6013  1.1934
14580TIP3    H265232   0.423   5.667   5.126  0.4001  0.8163  0.3775
14581TIP3   OH265233   4.268   6.242   3.087 -0.1431 -0.5215 -0.1517
14581TIP3    H165234   4.228   6.156   3.072  2.0300 -1.2770 -2.1382
14581TIP3    H265235   4.353   6.223   3.126  0.6733  0.6610 -1.2729
14582TIP3   OH265236   2.976   5.908   0.275 -0.1062  0.3034  0.3677
14582TIP3    H165237   3.017   5.992   0.255  2.9823 -0.8921  0.9966
14582TIP3    H265238   3.024   5.876   0.351 -1.7797 -1.6621  0.6906
14583TIP3   OH265239   1.402   5.216  16.227 -0.7593  0.1869 -0.0676
14583TIP3    H165240   1.385   5.211  16.321 -0.0535 -0.5906  0.0269
14583TIP3    H265241   1.351   5.144  16.190 -0.5074  0.0764 -0.2009
14584TIP3   OH265242   4.725   2.390   1.007 -0.4239  0.2595 -0.7235
14584TIP3    H165243   4.782   2.446   1.061 -0.8475  0.6437 -0.6714
14584TIP3    H265244   4.639   2.432   1.011 -0.4696  0.2807 -1.6900
14585TIP3   OH265245   0.572   4.918  16.299  0.0685 -0.2468  0.3618
14585TIP3    H165246   0.624   4.977  16.354 -2.4238  0.2480  2.3245
14585TIP3    H265247   0.526   4.977  16.238 -1.6635 -0.1719  1.6784
14586TIP3   OH265248   3.404   0.059  15.689  0.2339  0.0402  0.2723
14586TIP3    H165249   3.447  -0.004  15.748  2.8127  1.3808 -0.0407
14586TIP3    H265250   3.355   0.005  15.628  1.9183 -1.6649  0.3411
14587TIP3   OH265251   4.796   5.250   5.461  0.4719 -0.7626  0.5699
14587TIP3    H165252   4.702   5.237   5.445 -0.0308 -0.2624  2.7737
14587TIP3    H265253   4.805   5.345   5.472  0.7486 -1.0104  2.8296
14588TIP3   OH265254   1.138   6.792  10.764  0.0958 -0.5652 -0.4322
14588TIP3    H165255   1.098   6.730  10.704 -2.5052 -2.8131  3.1787
14588TIP3    H265256   1.092   6.874  10.749 -2.6001 -1.8415  0.2836
14589TIP3   OH265257   0.685   0.700  13.645  0.4003 -0.0752  0.0511
14589TIP3    H165258   0.606   0.742  13.611 -0.8639 -2.7126 -0.5726
14589TIP3    H265259   0.679   0.710  13.740 -0.4315  0.2066 -0.0249
14590TIP3   OH265260   6.466   1.760  16.129 -0.1533 -0.3890 -0.1488
14590TIP3    H165261   6.416   1.822  16.076  0.9212 -0.3569 -1.1713
14590TIP3    H265262   6.400   1.707  16.173 -1.0783  0.0872 -0.9284
14591TIP3   OH265263   2.005   4.080  14.841  0.6718 -0.1234  0.2888
14591TIP3    H165264   2.051   4.111  14.919  0.6045  0.7435 -0.0053
14591TIP3    H265265   2.065   4.017  14.801  0.7186 -0.5568  1.0177
14592TIP3   OH265266   2.282   0.097  10.617 -0.1483 -0.3831 -0.2663
14592TIP3    H165267   2.368   0.058  10.604 -0.0316  0.0570 -0.8327
14592TIP3    H265268   2.278   0.169  10.555 -0.2658  0.6993  0.9616
14593TIP3   OH265269   3.187   5.852  16.457 -0.1950  0.0802 -0.2096
14593TIP3    H165270   3.235   5.802  16.523 -1.3103 -0.2622  0.3673
14593TIP3    H265271   3.253   5.909  16.418  0.8163 -0.8556  0.0777
14594TIP3   OH265272   5.162   1.385  13.965  0.6866  0.1325 -0.2250
14594TIP3    H165273   5.068   1.391  13.946  1.0722 -0.8713 -2.8283
14594TIP3    H265274   5.174   1.297  13.999  0.7127  0.2086 -0.0361
14595TIP3   OH265275   0.625   5.751   2.932  0.5727  0.0165 -0.0665
14595TIP3    H165276   0.645   5.828   2.986  0.8170  0.1923 -0.3997
14595TIP3    H265277   0.533   5.761   2.910  0.4082 -0.1799  0.5106
14596TIP3   OH265278   4.977   1.788  12.618 -0.5039 -0.4380 -0.2607
14596TIP3    H165279   4.893   1.825  12.645 -0.8288 -1.9460  0.9336
14596TIP3    H265280   5.043   1.847  12.655 -1.0056  0.6815 -1.1013
14597TIP3   OH265281   1.190   5.903  15.930  0.1424 -0.5949  1.2555
14597TIP3    H165282   1.204   5.811  15.951  1.0101 -1.0526 -1.0073
14597TIP3    H265283   1.127   5.901  15.858  0.6301  0.5323  0.7773
14598TIP3   OH265284   6.399   3.409  13.181 -0.0479  0.0175  0.4563
14598TIP3    H165285   6.459   3.440  13.113  0.7780 -0.0781  1.1232
14598TIP3    H265286   6.440   3.437  13.263 -1.9824  1.8730  0.8778
14599TIP3   OH265287   5.332   5.699  14.067  0.0851  0.7669 -0.0623
14599TIP3    H165288   5.311   5.645  14.143  1.4986  0.1983 -0.0522
14599TIP3    H265289   5.293   5.784  14.087 -1.4727  0.0110  0.2821
14600TIP3   OH265290   0.959   2.122   4.945 -0.5112 -0.3663  0.2830
14600TIP3    H165291   0.922   2.062   5.010  0.6773  0.2389  1.5879
14600TIP3    H265292   0.927   2.208   4.972  0.5182 -0.0316  0.4741
14601TIP3   OH265293   4.384   4.255  17.093  0.3380 -0.3228 -0.3391
14601TIP3    H165294   4.308   4.231  17.040 -0.1171  1.0761 -0.3813
14601TIP3    H265295   4.367   4.216  17.178 -0.8776  0.6477 -0.0997
14602TIP3   OH265296   2.401   6.342  13.424 -0.2144  0.1183  0.1184
14602TIP3    H165297   2.383   6.421  13.374 -0.0546 -1.0044 -1.7875
14602TIP3    H265298   2.404   6.272  13.359  3.0169 -1.0036  1.3003
14603TIP3   OH265299   4.770   6.450  14.740  0.0286  0.4492  0.2467
14603TIP3    H165300   4.701   6.421  14.800  0.4729 -0.3602  0.3871
14603TIP3    H265301   4.851   6.428  14.786  0.3818  1.4920  0.1333
14604TIP3   OH265302   5.160   3.247   2.372 -0.1637  0.0348 -0.6961
14604TIP3    H165303   5.186   3.249   2.464  0.5795  2.6702 -0.8640
14604TIP3    H265304   5.242   3.253   2.323 -0.6124 -0.1095 -1.4994
14605TIP3   OH265305   2.992   0.586  15.938 -0.1394 -0.2440 -0.0976
14605TIP3    H165306   2.944   0.668  15.951 -0.2250 -0.5044  1.4203
14605TIP3    H265307   3.074   0.599  15.986 -0.4305 -1.2763  0.7023
14606TIP3   OH265308   0.090   3.839   1.914 -0.2435  0.1633  0.1187
14606TIP3    H165309   0.134   3.924   1.914  1.3781 -0.6362 -0.1991
14606TIP3    H265310   0.117   3.798   1.832  0.1965 -1.2263  0.9203
14607TIP3   OH265311   0.519   2.900   2.269  0.4128 -0.1113 -0.4338
14607TIP3    H165312   0.507   2.806   2.260 -0.9936 -0.0352  0.3454
14607TIP3    H265313   0.526   2.933   2.179  0.8263 -0.9366 -0.7089
14608TIP3   OH265314   3.462   0.187   1.357  0.7748  0.2585 -0.4349
14608TIP3    H165315   3.524   0.231   1.415  1.3234 -0.2544 -0.6195
14608TIP3    H265316   3.379   0.192   1.403  1.3485 -0.8590  0.7991
14609TIP3   OH265317   1.155   4.577   5.657  0.0425 -0.5544 -0.4731
14609TIP3    H165318   1.207   4.543   5.730  0.7961 -0.9608 -1.1797
14609TIP3    H265319   1.126   4.663   5.686  0.5461 -0.6094  0.2143
14610TIP3   OH265320   1.346   4.319  13.652  0.1170  0.5481  0.3634
14610TIP3    H165321   1.309   4.238  13.615 -0.1527  0.4389  0.8574
14610TIP3    H265322   1.407   4.288  13.719 -0.7741  0.7644  1.2908
14611TIP3   OH265323   5.064   4.592   4.351 -0.1450 -0.3196  0.1314
14611TIP3    H165324   4.970   4.581   4.370  0.3938 -3.3890  1.6167
14611TIP3    H265325   5.101   4.504   4.360  2.7150  0.5561 -1.7009
14612TIP3   OH265326   4.297   1.767  14.943 -0.1381 -0.1540  0.6322
14612TIP3    H165327   4.247   1.848  14.928 -0.9507 -0.7793 -0.0903
14612TIP3    H265328   4.313   1.732  14.855  0.6376 -0.5318  0.9145
14613TIP3   OH265329   5.506   3.863   0.476  0.3458  0.0878 -0.2754
14613TIP3    H165330   5.440   3.842   0.410  0.6358 -0.6427 -0.3364
14613TIP3    H265331   5.564   3.787   0.478  0.6293  0.3139  0.4665
14614TIP3   OH265332   6.091   1.411  16.130  0.3746 -0.1183  0.0809
14614TIP3    H165333   6.113   1.346  16.064 -0.1211  1.0555 -1.3152
14614TIP3    H265334   6.019   1.461  16.091  1.4658  1.9753  0.5992
14615TIP3   OH265335   0.211   4.919   2.878  0.0410 -0.0851 -0.2383
14615TIP3    H165336   0.221   5.011   2.902 -0.0282 -0.4840  1.4457
14615TIP3    H265337   0.297   4.893   2.846 -0.0711  0.6740 -1.2049
14616TIP3   OH265338   5.096   0.532   5.762 -0.0755  0.0556 -0.2368
14616TIP3    H165339   5.028   0.597   5.749  0.0330 -0.0598 -1.4615
14616TIP3    H265340   5.158   0.573   5.823 -1.4387 -0.0226  1.2674
14617TIP3   OH265341   2.912   4.813   3.367 -0.2775 -0.6076  0.2394
14617TIP3    H165342   2.860   4.733   3.380 -0.7044 -0.4827 -0.6312
14617TIP3    H265343   2.880   4.849   3.284  0.9957 -0.3547 -0.1545
14618TIP3   OH265344   2.915   6.682   5.906  0.1103  0.1153 -0.5191
14618TIP3    H165345   2.880   6.641   5.985  1.4440 -0.4595 -0.1938
14618TIP3    H265346   2.952   6.609   5.856  0.4944  0.6459 -1.0159
14619TIP3   OH265347   0.719   5.574  17.274 -0.0939  0.2327 -0.0432
14619TIP3    H165348   0.795   5.528  17.309 -1.1858  0.2652  2.6498
14619TIP3    H265349   0.756   5.651  17.230  1.4935 -0.6195 -0.2565
14620TIP3   OH265350   3.399   0.619   5.509  0.2665 -0.5110  0.6274
14620TIP3    H165351   3.314   0.643   5.474  0.6978 -0.5480 -0.4805
14620TIP3    H265352   3.398   0.650   5.600 -0.6322  0.1581  0.3926
14621TIP3   OH265353   1.042   1.150  11.603 -0.3718  0.0829  0.0998
14621TIP3    H165354   1.013   1.215  11.539  0.6450  1.1858  0.7104
14621TIP3    H265355   0.972   1.147  11.668 -0.7175  0.0822 -0.2684
14622TIP3   OH265356   1.529   5.926  10.965 -0.6282 -0.6878 -0.2202
14622TIP3    H165357   1.469   5.949  10.894 -1.3140  0.0787  0.5834
14622TIP3    H265358   1.541   6.007  11.014 -0.7851 -1.3659  0.9874
14623TIP3   OH265359   0.987   0.392  13.531 -0.0429 -0.1323  0.4342
14623TIP3    H165360   1.057   0.333  13.559  1.4941  0.9917 -0.8476
14623TIP3    H265361   1.000   0.470  13.584 -1.1731 -0.3896  1.1109
14624TIP3   OH265362   2.711   1.537   3.801  0.3140  0.0283  0.2502
14624TIP3    H165363   2.707   1.633   3.799 -0.5158 -0.0112 -0.7085
14624TIP3    H265364   2.802   1.517   3.778  0.1774  0.5659 -0.8039
14625TIP3   OH265365   5.634   5.080  10.846  0.4407  0.5451  0.4296
14625TIP3    H165366   5.674   5.052  10.764 -1.4110 -2.6520  0.4864
14625TIP3    H265367   5.596   5.165  10.826  1.8601  0.8326 -1.3525
14626TIP3   OH265368   1.130   4.211   3.129 -0.0790 -0.4227 -0.4231
14626TIP3    H165369   1.205   4.179   3.178 -0.4761  2.1519  2.1263
14626TIP3    H265370   1.142   4.306   3.124 -1.5553 -0.2795 -2.8405
14627TIP3   OH265371   1.857   4.016  14.073 -0.1764 -0.0280  0.3570
14627TIP3    H165372   1.789   3.950  14.084  0.7942 -1.1036  0.1529
14627TIP3    H265373   1.892   4.029  14.161 -1.0081  0.9532  0.5579
14628TIP3   OH265374   0.996   2.217   3.009 -1.1386 -0.0434  0.0111
14628TIP3    H165375   0.944   2.224   3.089 -1.1231 -0.2716  0.0414
14628TIP3    H265376   1.021   2.307   2.990 -1.2879  0.0331  0.1667
14629TIP3   OH265377   1.535   1.707  14.963  0.0859 -0.0671 -0.4533
14629TIP3    H165378   1.570   1.711  15.052  0.9750 -0.1357 -0.7856
14629TIP3    H265379   1.562   1.790  14.923  1.8503 -1.0316 -1.3999
14630TIP3   OH265380   1.976   3.336  12.128 -0.7108 -0.3829 -0.0683
14630TIP3    H165381   1.938   3.364  12.211 -0.9534 -0.2224 -0.2330
14630TIP3    H265382   2.036   3.265  12.152 -1.0221 -0.5584  0.2087
14631TIP3   OH265383   1.721   6.061  12.019  0.0274 -0.0066 -0.4186
14631TIP3    H165384   1.807   6.091  11.990 -0.0385  1.8882  1.1809
14631TIP3    H265385   1.732   5.966  12.030  1.5346  0.0157 -1.4443
14632TIP3   OH265386   6.163   4.623   1.153  0.6462  0.2576 -0.3415
14632TIP3    H165387   6.198   4.534   1.150 -1.8493 -0.8242 -0.0057
14632TIP3    H265388   6.143   4.638   1.245 -1.8478 -0.1540 -0.7316
14633TIP3   OH265389   3.696   0.694  15.007  0.0815 -0.2207 -0.1030
14633TIP3    H165390   3.747   0.775  15.017  2.2209 -1.5641  0.6564
14633TIP3    H265391   3.707   0.649  15.091 -2.5439 -0.5689  0.1441
14634TIP3   OH265392   0.940   3.327   1.408  0.3442  0.9059 -0.3148
14634TIP3    H165393   1.015   3.292   1.455  0.2781  0.0938 -0.7871
14634TIP3    H265394   0.864   3.283   1.447  0.3981 -0.8895 -2.0975
14635TIP3   OH265395   0.163   3.520  14.575  0.0983 -0.2619  0.1677
14635TIP3    H165396   0.256   3.520  14.596  0.3406 -1.6174 -0.8229
14635TIP3    H265397   0.150   3.601  14.526  0.9264 -0.4587 -0.3963
14636TIP3   OH265398   3.791   4.270  12.751 -0.4431  0.3526 -0.6935
14636TIP3    H165399   3.745   4.319  12.683 -0.5599  3.2416  1.2920
14636TIP3    H265400   3.874   4.316  12.762 -0.0173 -0.6301  0.4545
14637TIP3   OH265401   0.987   1.812   4.858  0.0412 -0.2394 -0.2600
14637TIP3    H165402   0.973   1.861   4.939  1.9247 -0.1187  0.0268
14637TIP3    H265403   1.026   1.729   4.887 -0.2091 -0.6215 -0.9886
14638TIP3   OH265404   5.363   2.359   2.688  0.0774 -0.1265  0.8630
14638TIP3    H165405   5.298   2.342   2.757  0.5909 -0.6271  1.2402
14638TIP3    H265406   5.317   2.338   2.607 -0.1706 -0.6937  1.1389
14639TIP3   OH265407   2.677   3.689   4.034 -0.2786  0.4627 -0.3545
14639TIP3    H165408   2.600   3.634   4.050  1.3929 -3.2721 -3.5722
14639TIP3    H265409   2.716   3.699   4.121 -2.0586 -1.3244  0.7646
14640TIP3   OH265410   4.001   1.461  17.088 -0.2841 -0.3083 -0.5693
14640TIP3    H165411   4.068   1.441  17.154  0.5802  0.3607 -1.2310
14640TIP3    H265412   4.036   1.535  17.039 -1.1492 -0.4646 -1.4588
14641TIP3   OH265413   2.871   3.977  12.089 -0.1433  0.1793 -0.1013
14641TIP3    H165414   2.823   4.011  12.013 -0.2856  0.4627  0.1128
14641TIP3    H265415   2.874   4.051  12.150 -1.0248 -0.3862  0.6478
14642TIP3   OH265416   2.657   1.638  12.928 -0.4104 -0.4132 -0.2856
14642TIP3    H165417   2.669   1.696  13.004 -1.5346 -0.5585  0.0170
14642TIP3    H265418   2.677   1.694  12.852 -2.1675  0.6264 -0.0449
14643TIP3   OH265419   0.785   0.867  12.407  0.1274 -0.3048  0.3275
14643TIP3    H165420   0.799   0.961  12.418 -0.1012 -0.2863  0.4866
14643TIP3    H265421   0.689   0.858  12.408  0.1510 -0.5407  0.3323
14644TIP3   OH265422   2.110   5.704  13.609 -0.4764  0.3539 -0.3044
14644TIP3    H165423   2.073   5.698  13.697  3.5752 -0.1876  1.6034
14644TIP3    H265424   2.067   5.635  13.560 -1.3031 -0.8287  1.9521
14645TIP3   OH265425   5.708   5.152   5.455  0.4255  0.1726  0.7390
14645TIP3    H165426   5.695   5.245   5.469 -2.3867 -0.0685  0.2034
14645TIP3    H265427   5.682   5.111   5.537 -1.9468 -0.3135 -0.1935
14646TIP3   OH265428   1.550   2.354   1.061  0.0740  0.4903 -0.1337
14646TIP3    H165429   1.520   2.419   0.997  0.6293  0.8122 -0.0782
14646TIP3    H265430   1.555   2.403   1.143 -1.6535 -0.1753  0.4075
14647TIP3   OH265431   0.901   0.674  14.472  0.5414  0.0604 -0.3882
14647TIP3    H165432   0.937   0.627  14.548 -2.0555 -0.2296  0.7503
14647TIP3    H265433   0.938   0.629  14.396  2.1844 -0.4736  0.6693
14648TIP3   OH265434   2.314   4.995  11.278 -0.6662 -0.4028  0.0934
14648TIP3    H165435   2.369   5.073  11.287  0.8022 -1.3160 -0.5660
14648TIP3    H265436   2.264   4.991  11.360 -0.3607  0.9005  0.3691
14649TIP3   OH265437   1.002   5.661   5.831  0.3807 -0.0776  0.0672
14649TIP3    H165438   1.062   5.698   5.767  0.0374  1.1395  0.4076
14649TIP3    H265439   1.054   5.656   5.912  0.6322 -1.0163 -0.1521
14650TIP3   OH265440   0.573   4.439  16.847 -0.0512 -0.1688 -0.1097
14650TIP3    H165441   0.663   4.466  16.829  0.6849 -1.4036  1.4361
14650TIP3    H265442   0.527   4.520  16.870  0.3736  0.6106 -1.9128
14651TIP3   OH265443   3.247   6.192   5.689 -0.3951 -0.1436 -0.3756
14651TIP3    H165444   3.282   6.105   5.704 -0.7235 -0.5418 -1.8047
14651TIP3    H265445   3.184   6.205   5.760  0.0823 -0.8210  0.1860
14652TIP3   OH265446   5.147   5.960   1.005 -0.5680 -0.3585  0.2879
14652TIP3    H165447   5.097   6.013   1.067 -1.6448  1.8180 -2.2484
14652TIP3    H265448   5.229   6.007   0.993 -0.0241 -1.1972  0.6484
14653TIP3   OH265449   3.346   1.771   4.296 -0.1486 -0.1257  0.0849
14653TIP3    H165450   3.378   1.683   4.312 -0.6992 -0.1095  1.4172
14653TIP3    H265451   3.255   1.770   4.327 -0.1228  0.9364  0.2595
14654TIP3   OH265452   6.120   2.293   2.708  0.2717 -0.5147 -0.0585
14654TIP3    H165453   6.030   2.307   2.680  0.6882  0.8174 -0.8289
14654TIP3    H265454   6.130   2.347   2.786 -0.0044 -1.8367  0.9256
14655TIP3   OH265455   0.445   2.956  14.526 -0.2263  0.4412 -0.2075
14655TIP3    H165456   0.454   2.872  14.573 -1.8693  0.7044  0.6561
14655TIP3    H265457   0.419   3.018  14.594 -1.0598  1.1932 -1.1789
14656TIP3   OH265458   3.944   2.841   2.689 -0.8444  0.1556 -0.0904
14656TIP3    H165459   3.861   2.874   2.655 -0.7851  0.1395 -0.2518
14656TIP3    H265460   3.922   2.762   2.737 -0.9538  0.2828  0.0708
14657TIP3   OH265461   3.443   1.388  11.900 -0.6206 -0.0706 -0.0211
14657TIP3    H165462   3.403   1.400  11.814 -2.1176  0.4030  0.7023
14657TIP3    H265463   3.511   1.322  11.887 -1.7554 -1.0168 -1.2819
14658TIP3   OH265464   6.216   5.343   3.865 -0.1885 -0.1477  0.1942
14658TIP3    H165465   6.293   5.345   3.922  0.0914 -2.1195 -0.0171
14658TIP3    H265466   6.220   5.424   3.815  1.9235 -0.3015  0.0197
14659TIP3   OH265467   6.803   3.334   0.497 -0.0108 -0.2503  0.2154
14659TIP3    H165468   6.732   3.311   0.437  0.0503  1.8452 -0.7647
14659TIP3    H265469   6.851   3.252   0.510 -1.2261 -1.2026 -0.9660
14660TIP3   OH265470   0.168   1.452   1.999 -0.0127 -0.7565 -0.5697
14660TIP3    H165471   0.225   1.376   1.985 -1.1262 -2.4406  2.8735
14660TIP3    H265472   0.220   1.511   2.053 -0.7907 -1.4532  1.0058
14661TIP3   OH265473   5.649   0.900  12.373  1.0977 -0.1267  0.0494
14661TIP3    H165474   5.556   0.926  12.380  0.8392 -1.4472  3.4853
14661TIP3    H265475   5.691   0.943  12.448  2.9371 -0.9198 -0.4826
14662TIP3   OH265476   3.710   3.748  15.834  0.5751  0.0985 -0.2438
14662TIP3    H165477   3.621   3.768  15.862  0.5419  1.0155 -0.9543
14662TIP3    H265478   3.750   3.704  15.909 -0.4894 -0.3946  0.0556
14663TIP3   OH265479   2.558   6.337   0.889  0.1318 -0.1720  0.8815
14663TIP3    H165480   2.540   6.419   0.843 -1.3431 -1.6195 -1.3551
14663TIP3    H265481   2.472   6.300   0.908  0.7433 -1.7228  0.7830
14664TIP3   OH265482   4.261   0.104  13.689 -0.0798  0.1780 -0.0220
14664TIP3    H165483   4.238   0.108  13.597 -0.1180 -0.7873 -0.0643
14664TIP3    H265484   4.255   0.194  13.720  0.9067  0.6557 -1.1922
14665TIP3   OH265485   0.054   0.763  14.902  0.1638 -0.0076 -0.9969
14665TIP3    H165486   0.072   0.669  14.901  1.8758  0.2669  0.4620
14665TIP3    H265487  -0.014   0.773  14.969  1.5523  0.0021  0.4609
14666TIP3   OH265488   6.573   5.256  11.533  0.3963 -0.0774  0.3287
14666TIP3    H165489   6.649   5.300  11.495  0.8635  0.0602  1.4003
14666TIP3    H265490   6.498   5.293  11.486  1.0229 -0.7984 -1.2991
14667TIP3   OH265491   1.819   4.772   0.542  0.0230  0.1058 -0.6658
14667TIP3    H165492   1.898   4.745   0.588  0.3879  1.8066 -0.2275
14667TIP3    H265493   1.748   4.754   0.603  0.3463  0.8926 -0.0458
14668TIP3   OH265494   0.947   5.095   6.111  0.2663 -0.5197  0.1175
14668TIP3    H165495   0.941   5.185   6.081  1.6878 -0.4000  0.1188
14668TIP3    H265496   1.033   5.089   6.153  0.5794 -2.0841 -0.6572
14669TIP3   OH265497   1.734   0.117   4.145 -0.5963  0.1972 -0.1145
14669TIP3    H165498   1.721   0.026   4.173  4.7239 -1.2923 -1.3588
14669TIP3    H265499   1.783   0.157   4.217 -0.2332  1.1244 -0.8633
14670TIP3   OH265500   3.222   6.721  16.851  0.0469  0.1887 -0.4402
14670TIP3    H165501   3.236   6.702  16.944  1.3763 -0.0453 -0.6803
14670TIP3    H265502   3.162   6.797  16.851 -0.7500 -0.4106  0.5764
14671TIP3   OH265503   4.748   3.124  15.977 -0.2109  0.0137  0.1011
14671TIP3    H165504   4.809   3.196  15.962 -0.2558 -0.0567 -0.4354
14671TIP3    H265505   4.785   3.076  16.051  1.3696 -1.0779 -1.3198
14672TIP3   OH265506   1.275   3.812   3.922  0.3901 -0.4258 -0.0863
14672TIP3    H165507   1.184   3.791   3.944  0.4328 -0.5228  0.0004
14672TIP3    H265508   1.299   3.748   3.855  0.6427 -0.9095  0.4540
14673TIP3   OH265509   4.558   3.357   0.053 -0.0422  0.4563  0.6602
14673TIP3    H165510   4.539   3.298  -0.021 -0.3019  2.8196 -1.3016
14673TIP3    H265511   4.652   3.374   0.046 -0.0823  0.7408  0.8127
14674TIP3   OH265512   0.847   5.302   4.559  0.1067  0.3075  0.6088
14674TIP3    H165513   0.830   5.397   4.559  0.9138  0.4977  2.3273
14674TIP3    H265514   0.934   5.294   4.598  0.9480 -1.0530 -1.3525
14675TIP3   OH265515   4.784   2.034   1.769  0.2294  0.3673 -0.1191
14675TIP3    H165516   4.717   1.969   1.789  0.9590 -0.8553 -1.4399
14675TIP3    H265517   4.742   2.118   1.785 -1.5119 -0.3742 -0.5643
14676TIP3   OH265518   2.769   0.429   3.517 -0.3047 -0.2640 -0.1338
14676TIP3    H165519   2.678   0.448   3.492 -0.5194 -2.6437 -1.4877
14676TIP3    H265520   2.770   0.438   3.612 -1.3418  2.0560 -0.2925
14677TIP3   OH265521   1.640   3.722  15.927  0.4075 -0.0744  0.1528
14677TIP3    H165522   1.548   3.747  15.924  0.6830  0.9163 -0.6177
14677TIP3    H265523   1.661   3.695  15.838  0.6138 -1.2945  0.5570
14678TIP3   OH265524   3.441   2.249   5.562  0.0622 -0.3726 -0.4469
14678TIP3    H165525   3.437   2.209   5.648 -2.6333  0.5592 -0.0548
14678TIP3    H265526   3.480   2.335   5.577 -1.7426  0.3776  0.1523
14679TIP3   OH265527   5.033   3.551  16.223  0.3327  0.0410 -0.6386
14679TIP3    H165528   5.025   3.646  16.214 -1.9434 -0.1272 -1.0754
14679TIP3    H265529   5.072   3.523  16.140 -2.2611  0.3455 -2.0873
14680TIP3   OH265530   0.747   3.531  12.777 -0.2371 -0.2727  0.2830
14680TIP3    H165531   0.757   3.598  12.708  1.8313 -0.1312  0.6607
14680TIP3    H265532   0.724   3.581  12.855 -1.8047 -0.3540 -0.1009
14681TIP3   OH265533   2.370   1.615  11.208 -0.0944  0.4040  0.2465
14681TIP3    H165534   2.393   1.675  11.278 -2.2337  0.3055  1.1246
14681TIP3    H265535   2.372   1.668  11.128  1.6661  0.6904  0.4525
14682TIP3   OH265536   2.037   5.769  11.178 -0.0343  0.5850  0.0192
14682TIP3    H165537   1.957   5.762  11.126 -0.1850 -2.5298  0.4804
14682TIP3    H265538   2.011   5.740  11.265  1.4656  0.1281  0.3436
14683TIP3   OH265539   3.784   0.960  12.140 -0.7707  0.0312  0.1125
14683TIP3    H165540   3.711   0.907  12.107 -0.2163  0.3300 -1.6830
14683TIP3    H265541   3.849   0.959  12.070 -0.0616  1.7813  0.6745
14684TIP3   OH265542   4.912   4.822  10.269  0.5626  0.1534 -0.2731
14684TIP3    H165543   4.931   4.797  10.359 -0.3256  0.5084  0.0259
14684TIP3    H265544   4.909   4.739  10.221  1.3260 -0.0144 -0.0383
14685TIP3   OH265545   3.066   5.085  11.912  0.5380 -0.0443  0.8503
14685TIP3    H165546   3.061   5.101  12.006  2.0844  1.3722  0.7502
14685TIP3    H265547   3.052   5.172  11.873  2.0181 -0.2023 -0.1012
14686TIP3   OH265548   5.244   4.674   4.584  0.3594 -0.1288  0.3278
14686TIP3    H165549   5.165   4.700   4.630 -0.1302 -3.5459  1.6641
14686TIP3    H265550   5.217   4.666   4.492 -0.1788  0.9417  0.3755
14687TIP3   OH265551   1.310   1.764   5.591 -0.4192  0.5009  0.4049
14687TIP3    H165552   1.229   1.759   5.642 -0.5071 -1.3475  0.1547
14687TIP3    H265553   1.351   1.845   5.620 -1.9160  1.0201  1.2060
14688TIP3   OH265554   1.761   3.379   0.498  0.4391  1.0030 -0.0079
14688TIP3    H165555   1.685   3.410   0.450  0.2004  2.5485  1.2728
14688TIP3    H265556   1.727   3.350   0.582  0.9753 -0.7078 -0.3381
14689TIP3   OH265557   4.282   1.347  10.713  0.0333 -0.2818 -0.1420
14689TIP3    H165558   4.247   1.299  10.788  1.4480  0.7694  1.2498
14689TIP3    H265559   4.210   1.402  10.684 -0.1755  0.2261  1.2654
14690TIP3   OH265560   2.872   1.437  15.100 -0.3535 -0.1301  0.7123
14690TIP3    H165561   2.916   1.363  15.141 -0.2072  0.1828  1.1344
14690TIP3    H265562   2.932   1.465  15.031 -0.2088 -0.1400  0.8328
14691TIP3   OH265563   1.338   1.105   1.563  0.2877  0.1178 -0.4118
14691TIP3    H165564   1.321   1.096   1.656  0.3490 -0.1676 -0.4254
14691TIP3    H265565   1.281   1.176   1.534 -0.7920 -0.7455 -0.4421
14692TIP3   OH265566   5.324   3.608  13.808 -0.1209  0.1433 -0.5716
14692TIP3    H165567   5.289   3.688  13.849 -0.0318  0.4512 -1.0944
14692TIP3    H265568   5.252   3.575  13.755  0.0443  0.2091 -0.8353
14693TIP3   OH265569   4.569   3.888   3.969 -0.9743  0.1234  0.4394
14693TIP3    H165570   4.597   3.971   4.008 -1.2280  0.6727 -0.5063
14693TIP3    H265571   4.486   3.868   4.012 -2.1333  1.6084 -0.9398
14694TIP3   OH265572   5.988   5.497   4.338  0.0356 -0.4924  0.3966
14694TIP3    H165573   5.953   5.546   4.264  0.3760 -0.2766  0.3730
14694TIP3    H265574   5.923   5.429   4.356 -1.0684  0.7194  1.2243
14695TIP3   OH265575   4.813   4.292   6.730  0.5468 -0.1497 -0.4353
14695TIP3    H165576   4.833   4.314   6.640  0.2451 -0.8667 -0.6839
14695TIP3    H265577   4.827   4.374   6.779  1.9756 -0.0861 -0.9182
14696TIP3   OH265578   1.419   0.569  16.463 -0.3900 -0.1687 -0.0226
14696TIP3    H165579   1.505   0.572  16.422 -0.1909  1.0128  0.4542
14696TIP3    H265580   1.383   0.485  16.436  0.5623 -0.3071 -0.9271
14697TIP3   OH265581   2.144   0.338  16.445  0.2253  0.2725  0.4533
14697TIP3    H165582   2.136   0.328  16.350  2.7564 -0.0580  0.2084
14697TIP3    H265583   2.211   0.405  16.457  0.0394  0.2209  2.0211
14698TIP3   OH265584   6.686   1.699  11.446 -0.2049  0.5363  0.2783
14698TIP3    H165585   6.632   1.646  11.503 -1.0873  1.0305 -0.0832
14698TIP3    H265586   6.645   1.692  11.360  0.8382  0.1701 -0.2080
14699TIP3   OH265587   4.509   6.235  14.809 -0.2943 -0.1755 -1.1187
14699TIP3    H165588   4.534   6.251  14.718  1.7649  2.3979 -0.2325
14699TIP3    H265589   4.532   6.316  14.855 -2.0042 -1.0873  1.5732
14700TIP3   OH265590   4.899   5.930   1.178 -0.8686  0.1114 -0.1740
14700TIP3    H165591   4.967   5.898   1.237 -0.7521  1.1408  0.2755
14700TIP3    H265592   4.879   5.856   1.121  0.2305 -0.3688  0.0505
14701TIP3   OH265593   1.235   2.765   6.205 -0.7520 -0.3438  0.2285
14701TIP3    H165594   1.206   2.685   6.161  0.5050 -1.4059  1.2929
14701TIP3    H265595   1.168   2.830   6.181 -1.6829 -1.6292 -0.8236
14702TIP3   OH265596   0.742   3.803   2.443 -0.3185 -0.0231  0.4244
14702TIP3    H165597   0.681   3.790   2.515 -0.1574  0.0475  0.5742
14702TIP3    H265598   0.782   3.717   2.430 -1.2327 -0.3382 -0.3907
14703TIP3   OH265599   4.498   6.132  14.226 -0.0022  0.2051  0.0749
14703TIP3    H165600   4.592   6.113  14.228 -0.1434 -0.4850  0.3438
14703TIP3    H265601   4.469   6.119  14.316 -0.5325 -0.5512 -0.1934
14704TIP3   OH265602   3.543   6.708   2.080  0.3617 -0.1408  0.0027
14704TIP3    H165603   3.471   6.659   2.119  0.1836  0.7723  0.8734
14704TIP3    H265604   3.615   6.697   2.141  0.4178  0.4111  0.0368
14705TIP3   OH265605   2.799   5.879  12.162  0.0125 -0.0902  0.9039
14705TIP3    H165606   2.839   5.821  12.097  0.2195  0.5327  0.4580
14705TIP3    H265607   2.748   5.941  12.110 -2.0302 -1.1800  1.4677
14706TIP3   OH265608   5.558   1.475  15.613 -0.3103 -0.1550  0.2572
14706TIP3    H165609   5.485   1.418  15.634  1.3130 -2.1652  0.7421
14706TIP3    H265610   5.594   1.501  15.698  0.5447 -0.5779  0.0372
14707TIP3   OH265611   2.998   0.029  14.152  0.6032  0.6313 -0.1238
14707TIP3    H165612   2.987  -0.059  14.117  1.4186  0.6613 -0.4795
14707TIP3    H265613   3.054   0.018  14.229 -0.0149  0.7362  0.3454
14708TIP3   OH265614   3.630   3.988  12.506  0.8656 -0.2834 -0.3096
14708TIP3    H165615   3.575   3.909  12.509 -2.0532  1.6616  0.8045
14708TIP3    H265616   3.646   4.001  12.412  0.9356 -1.8602 -0.5529
14709TIP3   OH265617   5.690   0.531   0.081 -0.0258  0.0277  0.3419
14709TIP3    H165618   5.726   0.494   0.161  2.2307  1.3049  0.0215
14709TIP3    H265619   5.745   0.496   0.011  0.4991  1.8596 -0.2193
14710TIP3   OH265620   3.490   3.720   2.640 -0.2977  0.4936  0.1214
14710TIP3    H165621   3.459   3.802   2.604 -0.0082 -0.2941 -2.0776
14710TIP3    H265622   3.417   3.659   2.628  0.1708 -0.0381 -0.1092
14711TIP3   OH265623   1.780   2.556   0.934 -0.0488  0.4101  0.1166
14711TIP3    H165624   1.717   2.563   0.863 -0.1493  1.0007  0.2537
14711TIP3    H265625   1.731   2.517   1.007  0.2597 -0.9328 -0.3675
14712TIP3   OH265626   3.541   0.498  16.559  0.2568 -0.3588 -0.1191
14712TIP3    H165627   3.615   0.557  16.566  0.1220 -0.0594 -1.0475
14712TIP3    H265628   3.571   0.417  16.600  0.1534  0.5689  1.9429
14713TIP3   OH265629   5.997   3.075   0.220  0.1846  0.6669  0.0259
14713TIP3    H165630   6.030   3.002   0.168 -1.4040 -0.4818  0.5342
14713TIP3    H265631   5.918   3.041   0.261 -0.9206  2.8555 -0.1343
14714TIP3   OH265632   5.791   1.288   4.418 -0.2532 -0.1849 -0.3501
14714TIP3    H165633   5.880   1.323   4.415 -0.7682  1.1629 -0.7532
14714TIP3    H265634   5.802   1.194   4.409  1.3295 -0.4208  2.6261
14715TIP3   OH265635   4.801   1.346   3.742  0.4264 -0.5087 -0.5250
14715TIP3    H165636   4.889   1.378   3.762  1.7011 -1.4984 -3.7626
14715TIP3    H265637   4.748   1.425   3.734  1.4461  0.2305 -0.1762
14716TIP3   OH265638   4.412   5.721  12.188  0.1315  0.2727 -0.1917
14716TIP3    H165639   4.500   5.686  12.197 -0.1804 -0.6669 -0.6818
14716TIP3    H265640   4.405   5.747  12.096 -0.1109  0.3252 -0.1606
14717TIP3   OH265641   0.261   2.348  14.234 -0.2606  0.1696 -0.3588
14717TIP3    H165642   0.202   2.284  14.196 -2.3209  0.6525  1.7658
14717TIP3    H265643   0.248   2.428  14.182  0.0597 -0.2653 -1.1245
14718TIP3   OH265644   5.547   6.027   1.699 -0.2037  0.3992 -0.4873
14718TIP3    H165645   5.621   6.085   1.683  1.5187 -0.9240  2.0419
14718TIP3    H265646   5.585   5.939   1.701 -1.6423 -0.2570  1.7419
14719TIP3   OH265647   2.814   6.108  14.061  0.4943 -0.3667  0.0739
14719TIP3    H165648   2.866   6.186  14.077 -0.2625 -0.0657  1.1270
14719TIP3    H265649   2.853   6.069  13.982  1.7125  0.3417  0.3036
14720TIP3   OH265650   5.310   1.053  11.405 -0.3850  0.2070 -0.4503
14720TIP3    H165651   5.336   1.139  11.372 -1.6803  0.6117 -0.4703
14720TIP3    H265652   5.275   1.007  11.329  0.5267 -0.4419 -0.4909
14721TIP3   OH265653   0.683   1.673   4.135 -0.7209 -0.5728 -0.1491
14721TIP3    H165654   0.674   1.582   4.106  1.1176 -0.2743 -1.9002
14721TIP3    H265655   0.595   1.698   4.163 -0.7828 -3.7786  3.4385
14722TIP3   OH265656   3.534   5.188   5.068 -0.5426  0.2005 -0.5306
14722TIP3    H165657   3.512   5.276   5.039  0.4052  1.0917  1.2817
14722TIP3    H265658   3.618   5.169   5.024 -0.9533  0.0056 -1.2492
14723TIP3   OH265659   5.847   1.098  11.683 -0.3085 -0.5033  0.2551
14723TIP3    H165660   5.882   1.085  11.771  0.9603  0.4012 -0.0738
14723TIP3    H265661   5.776   1.161  11.694 -0.1186 -0.3520  0.6379
14724TIP3   OH265662   5.708   2.313   6.738  0.0242 -0.5991  0.1424
14724TIP3    H165663   5.781   2.334   6.679 -0.5722 -0.5650 -0.6027
14724TIP3    H265664   5.630   2.341   6.690 -0.3431  1.8762  2.0308
14725TIP3   OH265665   0.766   4.584   1.778  0.2495  0.0303  0.1577
14725TIP3    H165666   0.676   4.587   1.810  0.3438  1.8090  0.3209
14725TIP3    H265667   0.758   4.604   1.684  0.4619  0.0559  0.1451
14726TIP3   OH265668   3.276   6.176   4.644 -0.3028 -0.1368  0.4121
14726TIP3    H165669   3.355   6.123   4.649  0.1983  0.6435  0.8500
14726TIP3    H265670   3.307   6.266   4.638 -1.1081  0.0698 -1.4381
14727TIP3   OH265671   2.618   6.337  15.063 -0.0668 -0.3230  0.0363
14727TIP3    H165672   2.641   6.248  15.089 -1.3195 -1.1479 -1.5408
14727TIP3    H265673   2.592   6.380  15.144  2.1380 -0.8411  1.0997
14728TIP3   OH265674   4.521   5.438  12.407 -1.0775 -0.1647 -0.4319
14728TIP3    H165675   4.549   5.353  12.441 -0.0314  0.2285 -0.2474
14728TIP3    H265676   4.505   5.423  12.314  0.8886 -0.1926 -0.8073
14729TIP3   OH265677   2.275   3.269   6.124 -0.3313  0.5240 -0.3278
14729TIP3    H165678   2.300   3.263   6.216 -2.3216 -0.5637  0.2058
14729TIP3    H265679   2.252   3.362   6.112 -1.2865  0.4437  0.6610
14730TIP3   OH265680   3.390   0.143  14.182 -0.1770 -0.5310  0.3482
14730TIP3    H165681   3.325   0.114  14.246 -0.7397  0.7850  0.3963
14730TIP3    H265682   3.347   0.133  14.097 -0.7077  0.9496  0.4216
14731TIP3   OH265683   3.934   0.178  13.580 -0.3481 -0.1759 -0.5771
14731TIP3    H165684   3.924   0.229  13.500  1.9769  1.1811 -0.0949
14731TIP3    H265685   3.979   0.098  13.552 -1.0850 -0.5159 -0.8367
14732TIP3   OH265686   1.323   2.388   1.805 -0.1418  0.4449  0.1692
14732TIP3    H165687   1.419   2.395   1.801 -0.0652  0.5680  1.5857
14732TIP3    H265688   1.303   2.302   1.768  0.2643  1.4640 -2.6419
14733TIP3   OH265689   1.177   0.060   3.564 -0.0405 -0.1902 -0.2215
14733TIP3    H165690   1.131  -0.001   3.622 -0.7973  1.7807  1.3584
14733TIP3    H265691   1.251   0.092   3.616  0.4015  0.1853 -1.0590
14734TIP3   OH265692   1.062   1.423   2.335 -0.1557 -0.2620 -0.6267
14734TIP3    H165693   0.996   1.492   2.326 -0.6649 -0.6742 -0.1290
14734TIP3    H265694   1.060   1.401   2.428 -0.5715 -1.5126 -0.9205
14735TIP3   OH265695   0.611   3.495   1.406  0.6680  0.4899 -0.2382
14735TIP3    H165696   0.635   3.545   1.484  0.7391 -0.3038  0.2670
14735TIP3    H265697   0.633   3.404   1.429  1.9501  0.4064 -1.6827
14736TIP3   OH265698   1.105   0.169  11.463 -0.1210  0.4378  0.2511
14736TIP3    H165699   1.046   0.222  11.517 -1.7001 -0.4380 -0.5480
14736TIP3    H265700   1.101   0.208  11.376  1.0265  0.7611  0.3187
14737TIP3   OH265701   0.816   4.650   1.109 -0.2640 -0.1050 -0.1820
14737TIP3    H165702   0.771   4.658   1.193 -1.1149 -1.1547 -0.5084
14737TIP3    H265703   0.775   4.715   1.053  0.6771  0.9765  0.3396
14738TIP3   OH265704   4.741   4.370   5.289 -0.3997 -0.4331 -0.1138
14738TIP3    H165705   4.821   4.325   5.318  0.6395  1.1670 -0.3861
14738TIP3    H265706   4.671   4.306   5.305  0.5150 -0.8567  2.8318
14739TIP3   OH265707   4.759   2.697  11.511 -0.4203 -0.2724 -0.3380
14739TIP3    H165708   4.772   2.741  11.427 -0.8618  0.6923  0.0859
14739TIP3    H265709   4.814   2.619  11.506  2.9406  1.8815  0.0837
14740TIP3   OH265710   1.331   4.569  16.943  0.0373  0.1322  0.4648
14740TIP3    H165711   1.283   4.637  16.990 -0.7720  0.2807 -0.5420
14740TIP3    H265712   1.338   4.497  17.005 -0.5302  0.5274  0.9929
14741TIP3   OH265713   0.146   4.736   4.123  0.2275  0.2270 -0.3949
14741TIP3    H165714   0.071   4.788   4.094  0.3828  0.8367  0.2764
14741TIP3    H265715   0.213   4.800   4.145  0.6289 -0.2850 -0.1118
14742TIP3   OH265716   5.399   1.519  14.128 -0.4948 -0.1525 -0.1601
14742TIP3    H165717   5.380   1.483  14.041 -0.5907 -1.3656  0.3557
14742TIP3    H265718   5.480   1.477  14.154 -0.9593 -0.5183  0.7319
14743TIP3   OH265719   0.760   3.343   4.866 -0.3195 -0.2190 -0.4093
14743TIP3    H165720   0.787   3.427   4.901 -0.1230 -0.9787  1.3737
14743TIP3    H265721   0.806   3.335   4.783 -1.8339  2.2403 -1.6034
14744TIP3   OH265722   4.923   0.152  15.128 -0.1975 -0.1261 -0.3210
14744TIP3    H165723   4.862   0.173  15.058  0.5409  0.6832 -0.7356
14744TIP3    H265724   4.869   0.146  15.207 -0.6819  1.5957 -0.4981
14745TIP3   OH265725   2.129   3.811   4.289  0.1023  0.4595 -0.1185
14745TIP3    H165726   2.125   3.842   4.199  1.6100 -2.7412 -1.4436
14745TIP3    H265727   2.105   3.718   4.284  1.2397 -0.0912  2.5839
14746TIP3   OH265728   4.497   3.307   5.823  0.2487  0.3314 -1.0008
14746TIP3    H165729   4.470   3.215   5.816  0.1646  0.2246  0.4286
14746TIP3    H265730   4.569   3.306   5.887  1.4622  1.0468 -2.2973
14747TIP3   OH265731   3.201   0.857   1.929 -0.3627  0.4903  0.0221
14747TIP3    H165732   3.239   0.770   1.931 -2.4780 -0.4983  0.5831
14747TIP3    H265733   3.269   0.914   1.965  1.3480 -0.7635 -1.0716
14748TIP3   OH265734   0.942   6.511   2.207 -0.1532  0.0572 -0.0844
14748TIP3    H165735   1.035   6.522   2.227 -0.5699  0.3389  1.9405
14748TIP3    H265736   0.927   6.417   2.212  0.0870 -0.0217 -0.7808
14749TIP3   OH265737   5.699   0.951  14.280  0.3393 -0.4449  0.3652
14749TIP3    H165738   5.672   0.865  14.314  0.5252 -1.0360 -0.9290
14749TIP3    H265739   5.693   0.942  14.185 -0.2833  1.2018  0.2217
14750TIP3   OH265740   6.342   4.298  13.868  0.5857  0.3331 -0.5288
14750TIP3    H165741   6.306   4.350  13.939 -0.0147  0.3986 -0.8779
14750TIP3    H265742   6.285   4.316  13.793  0.7634 -0.3135 -0.8284
14751TIP3   OH265743   0.282   5.191  15.600 -0.1828  0.0710 -0.2532
14751TIP3    H165744   0.345   5.220  15.534  0.4351  1.3124  0.8305
14751TIP3    H265745   0.284   5.259  15.667 -1.2954 -0.8093  0.7302
14752TIP3   OH265746   6.822   3.371   1.693 -0.0781 -0.4403  0.9925
14752TIP3    H165747   6.879   3.428   1.745 -0.2208  1.5993 -0.9807
14752TIP3    H265748   6.823   3.288   1.741  4.9891 -0.7956  0.8718
14753TIP3   OH265749   5.152   3.771  15.584 -0.2025  0.1964  0.1360
14753TIP3    H165750   5.181   3.806  15.500  0.6171  0.2717  0.4410
14753TIP3    H265751   5.233   3.742  15.627 -0.8294 -1.9123 -0.0243
14754TIP3   OH265752   0.201   1.841  13.786 -0.1419  0.2900  0.4699
14754TIP3    H165753   0.173   1.920  13.740  1.5913  2.2217  2.4553
14754TIP3    H265754   0.292   1.829  13.759 -0.6050 -1.5248 -0.3830
14755TIP3   OH265755   1.863   4.070  12.296  0.0990  0.0439  0.2015
14755TIP3    H165756   1.947   4.036  12.264  0.7708  2.0819 -0.3594
14755TIP3    H265757   1.884   4.155  12.334 -1.3927 -0.3823  2.1576
14756TIP3   OH265758   6.218   3.282  13.499  0.5364 -0.1954 -0.0563
14756TIP3    H165759   6.166   3.227  13.557  0.6922 -0.5005 -0.2000
14756TIP3    H265760   6.228   3.364  13.546  0.7996 -0.4921  0.4208
14757TIP3   OH265761   6.168   0.991   6.093 -0.3873  0.1195  0.4259
14757TIP3    H165762   6.246   0.993   6.149 -0.3672  0.5527  0.3850
14757TIP3    H265763   6.096   1.014   6.151 -0.4237  0.1484  0.3700
14758TIP3   OH265764   4.127   2.580   4.840 -0.3869 -0.1320 -0.4540
14758TIP3    H165765   4.151   2.615   4.754  1.1366  0.0409  0.0306
14758TIP3    H265766   4.208   2.546   4.876 -0.9051  0.2877  1.1712
14759TIP3   OH265767   0.838   5.592  11.745  0.0882  0.7449  0.2474
14759TIP3    H165768   0.844   5.504  11.783  1.4646  0.8875  0.4145
14759TIP3    H265769   0.898   5.590  11.670 -2.0358  0.6979 -1.5334
14760TIP3   OH265770   1.436   5.151   2.831  0.2563  0.1661  0.0349
14760TIP3    H165771   1.368   5.097   2.871 -0.7387  0.4579 -1.2004
14760TIP3    H265772   1.465   5.100   2.755  0.3331  0.7154 -0.3102
14761TIP3   OH265773   2.104   2.910  13.283 -0.9224  0.2223 -0.0976
14761TIP3    H165774   2.137   2.993  13.248 -1.5353  0.6954  0.4110
14761TIP3    H265775   2.011   2.925  13.297 -0.7825 -0.0632  1.3616
14762TIP3   OH265776   1.557   3.378  10.730  0.3537  0.4170 -0.0314
14762TIP3    H165777   1.538   3.285  10.721  1.4756  0.1984 -0.3026
14762TIP3    H265778   1.648   3.382  10.760 -0.0118  1.4062  1.0438
14763TIP3   OH265779   4.479   3.484   1.909  0.4877  0.2621 -0.5153
14763TIP3    H165780   4.513   3.406   1.953 -1.1241  0.1001  0.5368
14763TIP3    H265781   4.396   3.455   1.870  0.2516  1.2559 -0.7720
14764TIP3   OH265782   4.302   1.920  15.857 -0.6350  0.6540 -0.1148
14764TIP3    H165783   4.350   1.846  15.821 -0.4802 -0.1635  1.6436
14764TIP3    H265784   4.370   1.983  15.882 -0.1859 -0.9683  3.4148
14765TIP3   OH265785   2.452   3.239   1.038  0.0735  0.3537 -0.4275
14765TIP3    H165786   2.417   3.274   1.120 -0.6073 -0.4987 -0.3457
14765TIP3    H265787   2.537   3.202   1.061 -0.3692 -0.3978  0.0150
14766TIP3   OH265788   3.690   1.381   0.464 -0.8027 -0.6697  0.6286
14766TIP3    H165789   3.640   1.441   0.520 -2.4682 -1.6113  0.2244
14766TIP3    H265790   3.678   1.416   0.375  0.3785 -0.1639  0.6570
14767TIP3   OH265791   2.678   4.691  12.239 -0.2035  0.3695 -0.4072
14767TIP3    H165792   2.658   4.781  12.213  0.0404  0.6450  0.3405
14767TIP3    H265793   2.601   4.662  12.287 -0.0570  0.3762 -0.1663
14768TIP3   OH265794   2.227   1.011   1.720 -0.2964 -0.4877 -0.3028
14768TIP3    H165795   2.167   0.951   1.676 -2.8196  2.1296 -0.6846
14768TIP3    H265796   2.173   1.055   1.785  1.8167  0.4092  0.9469
14769TIP3   OH265797   4.938   4.256   0.386 -0.1658 -0.2688  1.5859
14769TIP3    H165798   4.925   4.223   0.298 -0.0984 -0.1720  1.5393
14769TIP3    H265799   4.998   4.330   0.375 -0.1461 -0.2657  1.7137
14770TIP3   OH265800   2.041   3.135  15.205 -0.0335  0.3633 -0.7468
14770TIP3    H165801   2.104   3.165  15.270 -1.2518  3.8032 -0.9644
14770TIP3    H265802   1.958   3.127  15.253 -1.0871  3.5145 -1.7570
14771TIP3   OH265803   4.178   1.688   4.230  0.5106 -0.0809 -0.3653
14771TIP3    H165804   4.132   1.764   4.195  1.8371  0.7842 -0.3054
14771TIP3    H265805   4.244   1.667   4.164  0.9051 -0.4582  0.1384
14772TIP3   OH265806   5.881   0.560   0.694 -0.1373  0.4752  0.1409
14772TIP3    H165807   5.886   0.613   0.773 -2.5525 -0.3157  0.9256
14772TIP3    H265808   5.887   0.623   0.622  1.8336  1.2328  0.9100
14773TIP3   OH265809   6.476   6.104   2.199  0.3514  0.7447 -0.1177
14773TIP3    H165810   6.388   6.098   2.236  0.4154 -0.6449 -0.1312
14773TIP3    H265811   6.513   6.017   2.212  1.1798  0.8669 -1.4662
14774TIP3   OH265812   3.888   1.564   4.579 -0.2108 -0.5747 -0.3888
14774TIP3    H165813   3.849   1.650   4.559 -1.2967 -0.8798  0.3179
14774TIP3    H265814   3.982   1.579   4.577 -0.3868  0.9845  1.1444
14775TIP3   OH265815   3.418   4.658   2.032  0.0969 -0.4979 -0.0251
14775TIP3    H165816   3.396   4.733   1.977 -0.5427  0.5981  1.6472
14775TIP3    H265817   3.480   4.692   2.095  2.8656 -2.3509 -1.5358
14776TIP3   OH265818   4.426   5.991   2.919  0.1355 -0.5566  0.0103
14776TIP3    H165819   4.402   6.014   3.009 -1.1348 -0.4964 -0.3236
14776TIP3    H265820   4.415   6.073   2.871 -2.2489 -1.2510 -0.7673
14777TIP3   OH265821   2.188   2.475  16.140  0.1073 -0.0218 -0.2607
14777TIP3    H165822   2.177   2.463  16.234  1.2075  1.3376  0.0851
14777TIP3    H265823   2.137   2.554  16.120 -0.6432 -0.6642 -0.9417
14778TIP3   OH265824   1.019   4.812  12.702 -0.3728 -0.0402  0.2864
14778TIP3    H165825   1.096   4.760  12.727 -0.0574  0.2623 -0.0413
14778TIP3    H265826   0.945   4.752  12.712 -0.1788 -0.1244  1.2815
14779TIP3   OH265827   1.006   0.361  12.792  0.0967  0.3601  0.4399
14779TIP3    H165828   1.087   0.349  12.841  0.5865  1.0766 -0.1637
14779TIP3    H265829   0.951   0.287  12.818  1.9246 -1.6764 -1.1122
14780TIP3   OH265830   3.080   1.137  11.663 -0.1235  0.8031 -0.1517
14780TIP3    H165831   3.155   1.085  11.691 -0.0675  0.2964 -1.1882
14780TIP3    H265832   3.005   1.096  11.706  0.1025  0.8308  0.2709
14781TIP3   OH265833   2.795   4.924   3.099 -0.0571  0.1533 -0.1698
14781TIP3    H165834   2.743   4.977   3.038 -0.0504  0.2972 -0.0500
14781TIP3    H265835   2.873   4.902   3.049  0.1199  0.5828 -0.0922
14782TIP3   OH265836   1.508   2.849   4.985 -0.5459 -0.0609 -0.2979
14782TIP3    H165837   1.499   2.945   4.984 -0.6255 -0.0688 -0.3530
14782TIP3    H265838   1.548   2.830   5.070  0.5832  0.1231 -0.7599
14783TIP3   OH265839   4.443   4.849  13.562  0.2165  0.1604 -0.4522
14783TIP3    H165840   4.471   4.935  13.594 -0.1436 -0.4559  1.6806
14783TIP3    H265841   4.520   4.793  13.573 -0.1946 -0.2804  0.2403
14784TIP3   OH265842   6.596   1.846  14.771  0.0007  0.5170  0.1116
14784TIP3    H165843   6.501   1.858  14.767  0.1548  1.9105 -0.2010
14784TIP3    H265844   6.617   1.794  14.694 -0.6126 -0.6817  0.7376
14785TIP3   OH265845   0.704   1.311  10.264  0.0457 -0.1017 -0.6170
14785TIP3    H165846   0.745   1.243  10.318 -1.8221 -0.1476  0.8637
14785TIP3    H265847   0.756   1.313  10.184  2.9331 -0.0781  1.1160
14786TIP3   OH265848   1.650   4.885  11.640 -0.3133 -0.1591 -0.0771
14786TIP3    H165849   1.723   4.870  11.700 -0.2040  0.0533 -0.1554
14786TIP3    H265850   1.658   4.816  11.575  0.7888  0.8097 -1.0146
14787TIP3   OH265851   1.285   6.107   0.596 -0.1443  0.5019 -0.1100
14787TIP3    H165852   1.375   6.124   0.624 -0.3635  1.4292  0.0598
14787TIP3    H265853   1.267   6.018   0.626  0.6819  0.3452 -0.0559
14788TIP3   OH265854   3.962   0.271  16.190 -0.1141  0.1522  0.2990
14788TIP3    H165855   3.897   0.200  16.190 -0.4931  0.4075 -2.3135
14788TIP3    H265856   4.044   0.228  16.167 -0.2179  0.4509 -0.6451
14789TIP3   OH265857   0.330   2.800  12.210 -0.2292 -0.0608  0.2609
14789TIP3    H165858   0.363   2.792  12.121  0.4129  0.7465  0.4128
14789TIP3    H265859   0.256   2.739  12.214 -1.5167  1.3041 -1.4079
14790TIP3   OH265860   0.009   1.808   4.082 -0.1126  0.2900  0.5016
14790TIP3    H165861  -0.051   1.755   4.029  0.3892 -0.2415  0.4575
14790TIP3    H265862   0.085   1.821   4.026  1.0236 -1.4627  1.5679
14791TIP3   OH265863   1.472   0.001  11.469  0.1443 -0.0547  0.1420
14791TIP3    H165864   1.542   0.049  11.424  0.7859 -1.5936 -0.5840
14791TIP3    H265865   1.514  -0.078  11.501 -1.0959 -0.6401  0.3879
14792TIP3   OH265866   1.944   2.990  12.083 -0.1548  0.1957  0.4356
14792TIP3    H165867   1.987   3.002  11.999 -1.8412 -2.0966 -0.8602
14792TIP3    H265868   1.858   3.032  12.072  0.2418  1.4168  1.6766
14793TIP3   OH265869   6.258   1.515  14.591  0.7780  0.1560 -0.2351
14793TIP3    H165870   6.278   1.458  14.665  1.9101 -0.1684 -0.7642
14793TIP3    H265871   6.218   1.457  14.526  0.1911  0.3550 -0.0626
14794TIP3   OH265872   5.677   1.758  11.680  0.7410 -0.2487  0.1264
14794TIP3    H165873   5.753   1.701  11.690  2.7667  2.0154 -1.4376
14794TIP3    H265874   5.648   1.775  11.769  0.5488 -2.9738  0.6761
14795TIP3   OH265875   6.688   1.823  14.119  0.0372 -0.1774  0.0068
14795TIP3    H165876   6.770   1.786  14.087 -0.2971 -1.7307  0.8398
14795TIP3    H265877   6.625   1.751  14.110 -0.9075  0.5519  0.6427
14796TIP3   OH265878   6.029   0.616  13.405 -0.6250  0.0104 -0.7826
14796TIP3    H165879   6.016   0.536  13.455  2.0731  0.2334  0.4557
14796TIP3    H265880   6.004   0.594  13.316 -0.0791 -2.1848 -0.4393
14797TIP3   OH265881   1.622   1.622  17.245  0.4348  0.4743  0.1823
14797TIP3    H165882   1.709   1.605  17.208  0.4787 -0.3329  0.6207
14797TIP3    H265883   1.600   1.711  17.217  2.0118  1.2401  1.2544
14798TIP3   OH265884   2.320   0.106   1.299  0.4751 -0.2907  0.4303
14798TIP3    H165885   2.309   0.042   1.228 -0.8055 -0.0296  0.3883
14798TIP3    H265886   2.254   0.082   1.363  0.5633  0.4723  0.8127
14799TIP3   OH265887   5.495   2.558   5.381  0.3914 -0.1295  0.4133
14799TIP3    H165888   5.457   2.490   5.324 -0.3336 -0.5282  1.3526
14799TIP3    H265889   5.482   2.525   5.470  0.3322  1.0956  0.8731
14800TIP3   OH265890   6.290   1.029  14.435  0.1758 -0.4940  0.4198
14800TIP3    H165891   6.269   0.936  14.447  1.0290 -0.5816  1.3803
14800TIP3    H265892   6.228   1.075  14.492  0.8691 -0.5972  1.2823
14801TIP3   OH265893   1.152   4.990   2.861  0.5139 -0.1879 -0.1080
14801TIP3    H165894   1.185   5.054   2.923  3.0323 -0.7224 -0.7919
14801TIP3    H265895   1.065   4.966   2.895  0.0741  2.5101  0.8938
14802TIP3   OH265896   5.024   5.020  12.661  0.4971  0.3036 -0.1330
14802TIP3    H165897   4.989   4.932  12.654 -0.7664  0.8602 -1.3485
14802TIP3    H265898   5.106   5.019  12.613 -0.2407  0.1334 -1.4171
14803TIP3   OH265899   1.500   3.163  13.626  0.0809 -0.1227  0.5618
14803TIP3    H165900   1.517   3.070  13.637 -0.4417 -0.0794  2.0078
14803TIP3    H265901   1.425   3.167  13.567 -1.2088 -0.7522  2.0770
14804TIP3   OH265902   6.382   2.856   5.168  0.0458  0.4168  0.3128
14804TIP3    H165903   6.398   2.944   5.133 -0.5228  0.2213 -0.4845
14804TIP3    H265904   6.437   2.799   5.114  1.7667  0.4412  1.9664
14805TIP3   OH265905   5.056   6.598   1.749 -0.0465 -0.6322 -0.2735
14805TIP3    H165906   5.069   6.635   1.662  0.5325 -2.1419 -0.8724
14805TIP3    H265907   5.110   6.519   1.749 -1.9480 -2.0055  0.5767
14806TIP3   OH265908   3.025   1.493  16.068  0.5332  0.2722  0.3701
14806TIP3    H165909   3.114   1.465  16.090  0.9151  1.0027 -0.2275
14806TIP3    H265910   2.969   1.438  16.123  1.3820  0.5024  1.5031
14807TIP3   OH265911   1.331   2.233  16.875 -0.2627 -0.3866  0.0345
14807TIP3    H165912   1.296   2.285  16.947 -1.0602 -0.8014 -0.0404
14807TIP3    H265913   1.425   2.224  16.895 -0.4023 -0.1874  0.8178
14808TIP3   OH265914   6.434   3.882   3.448  0.1351  0.1330 -0.0504
14808TIP3    H165915   6.368   3.843   3.392 -0.2106 -0.7814  0.9590
14808TIP3    H265916   6.462   3.961   3.401 -2.0358  0.8415 -0.2644
14809TIP3   OH265917   6.531   2.167  11.305  0.2283 -0.0309  0.5014
14809TIP3    H165918   6.580   2.116  11.370 -0.0257  0.0029  0.7214
14809TIP3    H265919   6.461   2.108  11.277 -0.6314  0.5293  1.4503
14810TIP3   OH265920   4.309   2.629  14.209 -0.4726 -0.0836 -0.1451
14810TIP3    H165921   4.369   2.688  14.254 -0.3210  0.0105 -0.4682
14810TIP3    H265922   4.224   2.647  14.249 -0.2573 -0.3537  0.4481
14811TIP3   OH265923   0.310   4.964  12.143 -0.2120  0.2938 -0.3477
14811TIP3    H165924   0.379   4.918  12.095 -0.4465  2.3059 -2.8573
14811TIP3    H265925   0.234   4.963  12.084 -1.2920  0.9178  0.9662
14812TIP3   OH265926   1.451   0.229  13.809 -0.8788 -0.2407  0.4816
14812TIP3    H165927   1.503   0.170  13.755  0.1872  1.1482 -0.0936
14812TIP3    H265928   1.416   0.174  13.879  0.7685 -1.3763  0.4663
14813TIP3   OH265929   3.648   0.203   1.015  0.6060  0.2842  0.1357
14813TIP3    H165930   3.696   0.265   1.070  0.9804  0.4103 -0.3295
14813TIP3    H265931   3.560   0.240   1.007  0.2383 -0.2497  1.4850
14814TIP3   OH265932   4.979   2.179  13.679  0.4097  0.3563 -0.1213
14814TIP3    H165933   4.924   2.211  13.751  1.0515 -1.6120  1.3373
14814TIP3    H265934   5.057   2.236  13.682  0.0811  0.7959  0.2109
14815TIP3   OH265935   6.078   6.042  16.527 -0.1653  0.0852 -0.2658
14815TIP3    H165936   6.087   6.084  16.442 -0.1776  0.9785  0.1563
14815TIP3    H265937   5.984   6.026  16.536 -0.3019  0.9700  0.0164
14816TIP3   OH265938   0.082   0.454   0.815  0.2785  0.2731 -0.5500
14816TIP3    H165939   0.166   0.413   0.791 -0.7562 -2.1703 -0.2804
14816TIP3    H265940   0.041   0.474   0.731  0.2326 -0.5743 -0.7468
14817TIP3   OH265941   3.956   1.110  12.714 -0.5478 -0.1447  0.3350
14817TIP3    H165942   4.004   1.182  12.673  0.1669 -0.4935  0.5429
14817TIP3    H265943   3.988   1.108  12.804 -0.1434 -1.0803  0.1794
14818TIP3   OH265944   6.400   5.091   4.150  0.1593 -0.0489  0.3718
14818TIP3    H165945   6.403   5.066   4.243  0.2925 -0.7808  0.1774
14818TIP3    H265946   6.336   5.031   4.111 -1.0898  1.2979  0.2870
14819TIP3   OH265947   2.426   2.640   5.684 -0.2305 -0.4703 -0.1910
14819TIP3    H165948   2.456   2.604   5.768 -1.3949  1.6414  1.2035
14819TIP3    H265949   2.460   2.730   5.683 -1.1222 -0.1194 -1.5188
14820TIP3   OH265950   4.368   3.904   1.170 -0.0095  0.5254 -0.0913
14820TIP3    H165951   4.418   3.838   1.123 -1.9563 -1.2417  0.1375
14820TIP3    H265952   4.390   3.987   1.128 -0.0254 -0.6952 -2.6529
14821TIP3   OH265953   4.457   6.048   1.650 -0.1761 -0.0060  0.1722
14821TIP3    H165954   4.535   6.103   1.642  0.1502 -0.3699  0.7854
14821TIP3    H265955   4.384   6.110   1.647  0.1721  0.4217  0.4401
14822TIP3   OH265956   4.980   3.988   6.623  0.1131 -0.1941 -0.2628
14822TIP3    H165957   5.038   4.012   6.695  1.0827  1.9674 -1.6575
14822TIP3    H265958   5.035   3.994   6.544 -1.8370  1.5337 -1.6010
14823TIP3   OH265959   6.664   6.447  16.068  0.3317 -0.0403 -0.5561
14823TIP3    H165960   6.729   6.482  16.128 -0.7968 -1.0698  1.3838
14823TIP3    H265961   6.597   6.515  16.061  0.5182  0.1242 -0.7140
14824TIP3   OH265962   2.265   6.544   6.521  0.0134  0.3515  0.7692
14824TIP3    H165963   2.233   6.630   6.493 -0.3394  0.1452  0.5242
14824TIP3    H265964   2.185   6.495   6.543  0.1695 -0.1079  0.3367
14825TIP3   OH265965   6.106   2.828   0.126 -0.0260  1.2313 -0.3941
14825TIP3    H165966   6.120   2.774   0.204 -1.7511  1.4401  0.1078
14825TIP3    H265967   6.186   2.818   0.075 -1.0408 -3.6995 -1.5150
14826TIP3   OH265968   4.680   2.409   4.927  0.1961  0.9168  0.1510
14826TIP3    H165969   4.683   2.430   4.834  1.2272  0.5071  0.0839
14826TIP3    H265970   4.754   2.455   4.966 -0.1983  1.0478  0.7636
14827TIP3   OH265971   5.186   1.985  10.647 -0.1925  0.4029  0.2709
14827TIP3    H165972   5.231   2.013  10.726 -0.5273 -0.9317  0.9677
14827TIP3    H265973   5.093   1.997  10.667 -0.3053 -0.4169  0.2990
14828TIP3   OH265974   5.591   6.564   0.458  0.2149  0.4174  0.2256
14828TIP3    H165975   5.659   6.500   0.477  0.7815  0.8252 -0.3902
14828TIP3    H265976   5.567   6.548   0.367  2.0377  2.5445 -0.7347
14829TIP3   OH265977   5.067   0.144  17.126 -0.5261 -0.4288 -0.0341
14829TIP3    H165978   5.152   0.176  17.095 -1.3335  0.0070 -1.9575
14829TIP3    H265979   5.020   0.222  17.154 -0.2695 -0.6824  1.1488
14830TIP3   OH265980   0.790   1.787   2.096  0.1242 -0.4416  0.0663
14830TIP3    H165981   0.732   1.817   2.026 -0.2147 -0.9698  0.1193
14830TIP3    H265982   0.802   1.864   2.151  2.1730  0.6393 -1.7361
14831TIP3   OH265983   1.079   5.269   3.484 -0.0584  0.3827 -0.0228
14831TIP3    H165984   1.106   5.210   3.413 -0.6951 -1.8463  1.4699
14831TIP3    H265985   1.150   5.263   3.548 -1.0818 -0.5097  1.0892
14832TIP3   OH265986   1.629   2.512   1.298  0.4300 -0.2297  0.5078
14832TIP3    H165987   1.592   2.466   1.373  0.9695 -1.1075  0.2446
14832TIP3    H265988   1.723   2.491   1.300  0.5766  0.3322  0.0098
14833TIP3   OH265989   5.360   4.937   5.438 -0.0092  0.2260 -0.5709
14833TIP3    H165990   5.404   4.949   5.522 -1.5961 -2.9148  0.8776
14833TIP3    H265991   5.297   5.009   5.434  1.3747  1.5308 -0.0622
14834TIP3   OH265992   5.805   1.580  15.413 -0.3546  0.3204 -0.4288
14834TIP3    H165993   5.853   1.502  15.384  0.0059  0.5803 -0.5385
14834TIP3    H265994   5.720   1.547  15.441 -0.3989 -0.0473 -0.9817
14835TIP3   OH265995   5.905   0.501   1.686  0.0458  0.0514 -0.2011
14835TIP3    H165996   5.817   0.500   1.648 -0.0744  0.2078  0.0658
14835TIP3    H265997   5.923   0.409   1.708 -0.2827  0.0903  0.2600
14836TIP3   OH265998   2.838   2.485   3.845  0.1766 -0.1086 -0.0724
14836TIP3    H165999   2.806   2.492   3.935  1.2552  0.9705  0.2631
14836TIP3    H266000   2.919   2.435   3.852  0.8652  0.9470 -0.2566
14837TIP3   OH266001   3.883   5.715   3.340 -0.1869 -0.4981  0.5165
14837TIP3    H166002   3.865   5.669   3.422 -2.3713  0.0336  0.4023
14837TIP3    H266003   3.856   5.805   3.358 -1.8114 -0.6098 -1.0935
14838TIP3   OH266004   3.824   5.879   5.056 -0.1766 -0.1717  0.1739
14838TIP3    H166005   3.858   5.875   5.146 -1.4699  1.2107  0.7823
14838TIP3    H266006   3.896   5.916   5.005 -0.2897  1.5707  1.1946
14839TIP3   OH266007   0.338   2.947   6.316  0.4368 -0.1483 -0.0920
14839TIP3    H166008   0.419   2.989   6.287  0.4978 -0.1672  0.0471
14839TIP3    H266009   0.270   3.012   6.302  0.7900  0.6925  1.8033
14840TIP3   OH266010   5.525   5.338   1.253  0.0105 -0.7550 -0.7028
14840TIP3    H166011   5.506   5.251   1.220  2.2358 -0.9907 -1.5471
14840TIP3    H266012   5.617   5.335   1.278 -1.0310 -0.1220  4.2092
14841TIP3   OH266013   4.598   2.467  13.724  0.3817 -0.5223  1.2052
14841TIP3    H166014   4.551   2.549  13.735  1.7037  0.2609  1.2619
14841TIP3    H266015   4.530   2.402  13.707 -0.6030  0.9362 -0.9342
14842TIP3   OH266016   5.221   1.189  15.418  0.0050  0.3973  0.0023
14842TIP3    H166017   5.186   1.103  15.440  2.1175 -0.8676 -1.1989
14842TIP3    H266018   5.304   1.171  15.373  0.8916  3.0927  0.3332
14843TIP3   OH266019   5.238   4.464   2.885 -0.1149  0.0236  0.0706
14843TIP3    H166020   5.276   4.404   2.821  0.5139 -1.2494  1.5778
14843TIP3    H266021   5.146   4.440   2.889 -0.0928 -0.0995 -0.1167
14844TIP3   OH266022   5.751   1.822   4.832 -0.3508 -0.2277 -0.0992
14844TIP3    H166023   5.708   1.839   4.915  1.4846 -1.7007  1.2411
14844TIP3    H266024   5.845   1.826   4.852  0.1401 -1.3534 -1.9163
14845TIP3   OH266025   5.114   4.539   0.423 -0.3616 -0.0641 -0.7869
14845TIP3    H166026   5.182   4.595   0.461  0.3609 -1.3093 -0.1677
14845TIP3    H266027   5.033   4.568   0.464  0.1027  0.0423  0.0766
14846TIP3   OH266028   1.693   0.935  11.713 -0.0975 -0.2446  0.2157
14846TIP3    H166029   1.740   0.993  11.654 -0.1573  0.9658  1.3090
14846TIP3    H266030   1.681   0.854  11.663  0.7434  0.3752 -1.0382
14847TIP3   OH266031   1.932   2.744   4.101  0.3484 -0.3337  0.3713
14847TIP3    H166032   1.930   2.779   4.191  0.1586  1.2016 -0.2026
14847TIP3    H266033   2.023   2.755   4.073 -0.1106  1.6313 -0.5054
14848TIP3   OH266034   0.122   3.658  13.876 -0.9259 -0.6967 -0.1189
14848TIP3    H166035   0.041   3.694  13.913 -0.5623  0.4733 -0.4202
14848TIP3    H266036   0.122   3.688  13.786 -0.6317 -1.5339 -0.4072
14849TIP3   OH266037   1.866   6.024   0.424  0.1539  0.0025 -0.2375
14849TIP3    H166038   1.889   6.100   0.477 -0.1491 -0.0186 -0.0740
14849TIP3    H266039   1.950   5.991   0.392  0.3959 -0.3075  0.6761
14850TIP3   OH266040   3.787   1.812  14.596 -0.2909  0.4623  0.4842
14850TIP3    H166041   3.762   1.743  14.535  0.2992 -2.0772  2.8680
14850TIP3    H266042   3.708   1.863  14.610 -1.4117 -1.1539  0.2897
14851TIP3   OH266043   3.144   4.830   4.539 -0.6015 -0.0682  0.0514
14851TIP3    H166044   3.228   4.790   4.519 -0.9955 -0.7460 -0.2847
14851TIP3    H266045   3.151   4.920   4.507  0.3370  0.1835  0.9131
14852TIP3   OH266046   5.192   0.877   4.043  0.1750  0.5125  0.0397
14852TIP3    H166047   5.131   0.896   3.972 -0.2285 -0.2078  0.1811
14852TIP3    H266048   5.223   0.963   4.072 -1.6583  0.9921  0.7392
14853TIP3   OH266049   4.412   6.767  13.398  0.0694 -0.4818 -0.6820
14853TIP3    H166050   4.406   6.727  13.484 -1.5427 -2.1790 -1.4956
14853TIP3    H266051   4.423   6.861  13.415  1.0166 -0.9132  1.3159
14854TIP3   OH266052   3.252   4.769   2.261  0.3085  0.3736  0.0742
14854TIP3    H166053   3.276   4.693   2.314  0.4240  0.2380 -0.1731
14854TIP3    H266054   3.222   4.834   2.325  0.7674  0.3312  0.3376
14855TIP3   OH266055   2.696   2.238   1.382  0.2467  0.9750  0.3736
14855TIP3    H166056   2.633   2.180   1.339  1.4460 -0.0212 -0.1126
14855TIP3    H266057   2.691   2.215   1.474  2.0031 -1.2822 -0.0127
14856TIP3   OH266058   0.137   5.089   4.220 -0.3910 -0.0415  0.1571
14856TIP3    H166059   0.209   5.148   4.243  0.3304 -0.8823  0.1289
14856TIP3    H266060   0.151   5.070   4.127 -0.6316 -0.2357  0.1609
14857TIP3   OH266061   2.221   1.533   2.978  0.1726  0.0551 -0.0478
14857TIP3    H166062   2.236   1.545   3.072  1.4044  0.7857 -0.3097
14857TIP3    H266063   2.250   1.615   2.938 -1.3642  0.1730 -0.9903
14858TIP3   OH266064   3.161   2.021   2.791  0.2281  0.6588 -0.0008
14858TIP3    H166065   3.252   1.991   2.795 -0.1862 -0.5808  0.4412
14858TIP3    H266066   3.109   1.941   2.788 -0.8759  1.3399  0.3799
14859TIP3   OH266067   2.581   3.028  17.076  0.0158  0.5247 -0.3668
14859TIP3    H166068   2.550   2.967  17.009  0.0822  0.6640 -0.5239
14859TIP3    H266069   2.669   2.997  17.097 -0.2919  0.0206  0.2101
14860TIP3   OH266070   0.452   1.601   5.558 -0.7486 -0.2484 -0.5314
14860TIP3    H166071   0.388   1.532   5.540 -0.3161 -0.7064 -0.3346
14860TIP3    H266072   0.477   1.633   5.471 -2.1651  0.8058 -0.5787
14861TIP3   OH266073   1.450   2.068  12.748  0.5769 -0.6072 -0.5385
14861TIP3    H166074   1.545   2.058  12.746  0.9316  1.6396  1.1635
14861TIP3    H266075   1.417   1.982  12.722  3.0803 -2.1480  0.9189
14862TIP3   OH266076   3.594   6.488   2.732 -0.1137 -0.1968  0.3082
14862TIP3    H166077   3.527   6.468   2.667  0.1427 -1.5683  0.4344
14862TIP3    H266078   3.655   6.414   2.728  0.7759  0.4713  0.9889
14863TIP3   OH266079   2.149   6.265  10.717 -0.7312  0.3858 -0.7480
14863TIP3    H166080   2.133   6.270  10.622 -1.4923 -1.5942 -0.7575
14863TIP3    H266081   2.078   6.315  10.756 -0.7013  0.7806 -1.1844
14864TIP3   OH266082   1.573   6.227   0.973 -0.5673  0.0148  0.0608
14864TIP3    H166083   1.608   6.313   0.951  1.6076 -0.9659 -0.6487
14864TIP3    H266084   1.587   6.218   1.067  0.0025  0.1322 -0.0079
14865TIP3   OH266085   0.699   0.239  13.651 -0.1343 -0.0878  0.6168
14865TIP3    H166086   0.718   0.317  13.598 -0.5422  0.0280  0.6336
14865TIP3    H266087   0.671   0.274  13.736 -1.3908 -0.2077  0.2739
14866TIP3   OH266088   3.405   6.719   5.362  0.2648 -0.5554  0.4357
14866TIP3    H166089   3.496   6.719   5.333  0.0525 -0.8465 -0.2573
14866TIP3    H266090   3.406   6.671   5.445  1.0698  1.3182  1.5695
14867TIP3   OH266091   2.585   5.716  13.376 -0.2278 -0.0833 -0.1523
14867TIP3    H166092   2.537   5.787  13.420  0.4561  0.0670  0.3716
14867TIP3    H266093   2.647   5.685  13.442  0.9624  0.2811 -1.0509
14868TIP3   OH266094   6.317   2.743   4.880  0.4062  0.1022 -0.3086
14868TIP3    H166095   6.402   2.722   4.918 -0.1446 -0.1144  0.8549
14868TIP3    H266096   6.331   2.827   4.836  1.2286  0.0431 -0.1817
14869TIP3   OH266097   3.894   6.596  12.576  0.5285  0.1165  0.3463
14869TIP3    H166098   3.887   6.654  12.500 -1.3106 -1.6867 -0.9304
14869TIP3    H266099   3.939   6.518  12.543  0.2468 -0.4472  1.2603
14870TIP3   OH266100   0.078   5.423   5.867 -0.4949 -0.4679 -0.0786
14870TIP3    H166101   0.137   5.349   5.849 -0.4022 -0.9689  2.0041
14870TIP3    H266102   0.068   5.422   5.962 -1.6571  1.3421 -0.1499
14871TIP3   OH266103   4.324   2.614   3.253  0.3023 -0.1790  0.5505
14871TIP3    H166104   4.279   2.694   3.281  2.4253  0.8240  1.3730
14871TIP3    H266105   4.379   2.642   3.180 -0.2347 -1.3188 -0.3224
14872TIP3   OH266106   1.131   3.290  11.918 -0.1525 -0.4903 -0.5753
14872TIP3    H166107   1.159   3.262  11.831  1.1956 -0.0703 -0.2971
14872TIP3    H266108   1.102   3.380  11.906  1.2954  0.0273 -0.3745
14873TIP3   OH266109   3.229   4.559  16.793  0.0975  0.5164 -0.0873
14873TIP3    H166110   3.215   4.484  16.735  0.2531  1.6149 -1.5993
14873TIP3    H266111   3.167   4.625  16.762 -0.6305  0.7618  1.7504
14874TIP3   OH266112   0.691   0.738  11.925 -0.1682  0.1604 -0.0787
14874TIP3    H166113   0.762   0.763  11.865  1.5187  0.6244  2.0026
14874TIP3    H266114   0.647   0.666  11.880 -0.0138  1.5047 -2.5709
14875TIP3   OH266115   1.329   2.054   1.413  0.1034  0.3015 -0.2128
14875TIP3    H166116   1.340   2.121   1.346  0.1972  1.5641  1.0330
14875TIP3    H266117   1.353   1.972   1.369 -0.6999  0.9605 -1.9658
14876TIP3   OH266118   4.573   5.324  16.659 -0.2737 -0.3615  0.4574
14876TIP3    H166119   4.621   5.384  16.717 -2.6442  2.1006  0.1096
14876TIP3    H266120   4.521   5.270  16.719  0.4651 -0.7756  0.7315
14877TIP3   OH266121   2.292   2.126   4.126 -0.5335 -0.3081 -0.1126
14877TIP3    H166122   2.300   2.156   4.036 -1.9811  1.2945  0.2304
14877TIP3    H266123   2.339   2.191   4.178  0.9900 -1.6525  0.2673
14878TIP3   OH266124   0.293   5.980   1.704 -0.2162 -0.1195  0.3346
14878TIP3    H166125   0.280   6.046   1.635  0.1432 -2.5789 -2.2709
14878TIP3    H266126   0.204   5.952   1.726 -0.3257  0.5109  0.7099
14879TIP3   OH266127   3.127   0.329  12.611  0.1709 -0.3030  0.1926
14879TIP3    H166128   3.220   0.310  12.621  0.3891 -0.2794 -1.4503
14879TIP3    H266129   3.125   0.412  12.562 -0.7413  0.8106  2.0042
14880TIP3   OH266130   0.936   5.491   3.381 -0.3088 -1.1903  0.1763
14880TIP3    H166131   0.880   5.426   3.340  1.4140 -1.4338 -1.9454
14880TIP3    H266132   0.986   5.442   3.446  0.4874 -1.8823 -0.9341
14881TIP3   OH266133   1.744   4.042  15.331 -0.0824  0.4781  0.0392
14881TIP3    H166134   1.707   3.992  15.404 -0.3779  0.1092 -0.3555
14881TIP3    H266135   1.698   4.126  15.334 -0.8188  0.1026 -0.3119
14882TIP3   OH266136   1.032   4.358  15.589  0.5366 -0.3056 -0.4499
14882TIP3    H166137   1.070   4.435  15.546 -0.0259 -0.6157 -1.5570
14882TIP3    H266138   0.969   4.324  15.525 -2.2091  0.6293  1.5499
14883TIP3   OH266139   4.347   2.822   5.511 -0.0563  0.1720 -0.0795
14883TIP3    H166140   4.295   2.901   5.527  1.2881  0.6625  2.3579
14883TIP3    H266141   4.415   2.850   5.450 -0.1632  0.6503  0.0191
14884TIP3   OH266142   4.993   5.769  11.969 -0.0312 -0.4677  0.1174
14884TIP3    H166143   5.025   5.792  11.882  0.4055  0.0999  0.4321
14884TIP3    H266144   5.063   5.793  12.029 -0.5526 -0.3387  0.6876
14885TIP3   OH266145   5.815   3.328   4.278  0.3152 -0.4657  0.3474
14885TIP3    H166146   5.763   3.405   4.302  2.0567  0.5413  1.1276
14885TIP3    H266147   5.774   3.296   4.198  1.4516  3.3750 -2.0618
14886TIP3   OH266148   3.768   6.491  16.240 -0.5042 -0.3705  0.5689
14886TIP3    H166149   3.796   6.456  16.155  0.0493  2.0358 -0.3109
14886TIP3    H266150   3.708   6.425  16.274  0.9353 -2.4416 -0.6603
14887TIP3   OH266151   4.289   4.534  17.101 -0.5401  0.0107  0.7301
14887TIP3    H166152   4.351   4.463  17.115  1.0519  0.9827 -1.0349
14887TIP3    H266153   4.210   4.506  17.148  0.9248 -1.6267  2.3939
14888TIP3   OH266154   2.171   5.076   2.626 -0.1493  0.1397 -0.4197
14888TIP3    H166155   2.155   4.982   2.627  0.4726  0.0163  1.1485
14888TIP3    H266156   2.203   5.095   2.538  1.8053 -1.4933 -0.1108
14889TIP3   OH266157   1.836   1.708  12.276  0.4023  0.3152  1.0673
14889TIP3    H166158   1.774   1.723  12.205  2.5352  1.5818 -0.6577
14889TIP3    H266159   1.847   1.795  12.316  2.1550  0.4889  0.3146
14890TIP3   OH266160   0.649   2.299   5.650 -0.4959 -0.3961  0.1048
14890TIP3    H166161   0.693   2.383   5.664 -0.5870  0.3853 -3.3956
14890TIP3    H266162   0.713   2.234   5.680  1.0349  0.8545 -0.2956
14891TIP3   OH266163   3.562   4.837  14.364  0.3065 -0.4862 -0.0666
14891TIP3    H166164   3.656   4.856  14.364  0.3557 -0.7276  0.0725
14891TIP3    H266165   3.553   4.760  14.308  0.0376  0.2775 -1.0981
14892TIP3   OH266166   6.615   6.215  12.972  0.0607  0.0292  0.7857
14892TIP3    H166167   6.541   6.155  12.978  1.0461 -1.5820 -1.8685
14892TIP3    H266168   6.592   6.274  12.900  1.2439 -0.3481  0.0848
14893TIP3   OH266169   5.197   3.045  12.420 -0.4691 -0.0703  0.2697
14893TIP3    H166170   5.155   3.128  12.441 -0.0858  0.3073 -0.4203
14893TIP3    H266171   5.232   3.057  12.331  2.7670  0.3027  1.4625
14894TIP3   OH266172   6.293   1.706  13.498 -0.5402 -0.1318  0.1942
14894TIP3    H166173   6.201   1.730  13.493 -0.3680  1.0641  1.7042
14894TIP3    H266174   6.297   1.637  13.564 -0.3247  0.1564  0.4918
14895TIP3   OH266175   5.124   6.093  13.007 -0.5671 -0.3752 -0.4746
14895TIP3    H166176   5.125   6.169  12.949  0.1383  0.7351  0.9312
14895TIP3    H266177   5.108   6.130  13.094  1.2701 -1.6479  0.4565
14896TIP3   OH266178   0.215   0.972   1.407  0.1414  0.7809 -0.1645
14896TIP3    H166179   0.166   0.983   1.326 -2.3852 -0.4742  1.0742
14896TIP3    H266180   0.149   0.980   1.476  1.5396 -1.6376  1.6183
14897TIP3   OH266181   6.056   1.515   3.504 -0.1933  0.3138 -0.2372
14897TIP3    H166182   6.139   1.551   3.474 -0.1930 -0.5365 -1.3107
14897TIP3    H266183   6.041   1.557   3.589  1.6624 -0.0151  0.3014
14898TIP3   OH266184   1.945   1.114  15.896 -0.0870  0.2215 -0.9633
14898TIP3    H166185   2.021   1.173  15.888  2.0287 -2.0528  0.7243
14898TIP3    H266186   1.935   1.077  15.809  0.6383  0.7145 -1.2731
14899TIP3   OH266187   4.106   2.096   4.659  0.0869 -0.0171 -0.1084
14899TIP3    H166188   4.140   2.064   4.743  1.4970  1.6892  0.0263
14899TIP3    H266189   4.019   2.130   4.680  0.5468  0.6858  0.7570
14900TIP3   OH266190   0.743   5.721   1.911  0.3657 -0.2945  0.3073
14900TIP3    H166191   0.776   5.784   1.975 -1.1510  0.9516 -0.0526
14900TIP3    H266192   0.735   5.772   1.830  1.4173 -1.6167 -0.6698
14901TIP3   OH266193   2.529   3.678   1.135 -0.2956 -0.0715 -0.2937
14901TIP3    H166194   2.593   3.614   1.167  0.3461  1.4661  1.6998
14901TIP3    H266195   2.444   3.636   1.150  0.1272 -0.6896  0.4593
14902TIP3   OH266196   5.394   5.432   3.365  0.7173  0.4560 -0.0112
14902TIP3    H166197   5.388   5.489   3.288  0.8994 -0.3354 -0.6261
14902TIP3    H266198   5.477   5.458   3.407 -0.6169  2.7432  1.4765
14903TIP3   OH266199   4.943   4.990   4.239  0.2424  0.5768 -0.2461
14903TIP3    H166200   5.003   4.915   4.238  0.6074  0.8670 -0.3729
14903TIP3    H266201   4.943   5.020   4.330 -2.0106 -1.2368  0.4315
14904TIP3   OH266202   3.356   4.558  11.319  0.4168 -0.0740  0.0036
14904TIP3    H166203   3.285   4.494  11.314  1.1134 -0.9198  0.5761
14904TIP3    H266204   3.418   4.529  11.253  0.6193  0.1551  0.0955
14905TIP3   OH266205   2.805   5.737  15.983  0.0262  0.1934  0.4643
14905TIP3    H166206   2.729   5.768  15.933 -0.5182  0.1606  1.2349
14905TIP3    H266207   2.771   5.662  16.033  0.8678 -0.5255 -0.0340
14906TIP3   OH266208   6.763   3.271  16.066 -0.2417  0.6867 -0.8534
14906TIP3    H166209   6.700   3.321  16.118 -0.9251 -0.0623 -0.9484
14906TIP3    H266210   6.823   3.337  16.031 -0.4158  1.3075  0.0061
14907TIP3   OH266211   6.129   1.533   4.956  0.3378 -0.3593  0.3254
14907TIP3    H166212   6.072   1.602   4.922  1.1330  1.3773  2.3060
14907TIP3    H266213   6.072   1.480   5.011  0.2339  0.3802  0.9632
14908TIP3   OH266214   1.189   0.806  14.276 -0.3432 -1.0451 -0.3061
14908TIP3    H166215   1.250   0.787  14.348  0.9037  0.5021 -0.8758
14908TIP3    H266216   1.136   0.879  14.309  1.0322  0.4774 -1.3108
14909TIP3   OH266217   0.446   6.708   5.138 -0.0140  0.0005  0.5525
14909TIP3    H166218   0.470   6.653   5.213 -1.7528  1.2068  2.0855
14909TIP3    H266219   0.352   6.694   5.127  0.1538  0.0528 -1.2838
14910TIP3   OH266220   0.061   2.107  13.455 -0.2506  0.2364  0.5113
14910TIP3    H166221   0.127   2.045  13.426  0.0213  1.2434 -1.2095
14910TIP3    H266222  -0.008   2.053  13.494  0.0969 -1.1363 -0.6655
14911TIP3   OH266223   0.621   2.916  13.085  0.3103  0.4919  1.1072
14911TIP3    H166224   0.676   2.954  13.016 -0.2888 -0.7695 -0.1091
14911TIP3    H266225   0.678   2.851  13.128  0.1037 -0.0889  0.5183
14912TIP3   OH266226   6.746   5.065  13.115 -0.1053  0.1119  0.2170
14912TIP3    H166227   6.761   4.971  13.129 -1.5927 -0.0039  1.2594
14912TIP3    H266228   6.807   5.108  13.175  0.3788 -0.1783 -0.0566
14913TIP3   OH266229   4.387   1.889  11.090  0.2109  0.1807  0.1562
14913TIP3    H166230   4.436   1.816  11.051  0.1965 -0.1096  0.6672
14913TIP3    H266231   4.372   1.949  11.017  1.1795  0.2015 -0.0463
14914TIP3   OH266232   3.790   4.108  13.740 -0.1217 -0.4695 -0.0104
14914TIP3    H166233   3.882   4.125  13.717 -0.1138 -0.8044 -0.2447
14914TIP3    H266234   3.792   4.021  13.780 -0.1595  0.0462  1.1239
14915TIP3   OH266235   6.585   6.766  16.158 -0.2509  0.6187  0.0102
14915TIP3    H166236   6.672   6.731  16.140 -0.6806 -0.7638  0.5492
14915TIP3    H266237   6.565   6.819  16.080 -0.2408 -1.6466 -1.6260
14916TIP3   OH266238   2.551   6.444   1.498 -0.5493 -0.4625 -0.3130
14916TIP3    H166239   2.598   6.428   1.580 -1.1526 -1.4777 -0.1588
14916TIP3    H266240   2.613   6.495   1.446 -0.4200  0.8311  1.0307
14917TIP3   OH266241   5.698   1.586  14.777 -0.3141 -0.3861 -0.8250
14917TIP3    H166242   5.695   1.648  14.851  0.2194 -0.1738 -0.9806
14917TIP3    H266243   5.682   1.501  14.818  3.3769 -0.7926  0.1479
14918TIP3   OH266244   1.127   6.786  14.785 -0.0440  0.9817 -0.1544
14918TIP3    H166245   1.112   6.798  14.691  0.0978  1.2366 -0.1428
14918TIP3    H266246   1.195   6.849  14.807 -1.5441  2.4332  0.5485
14919TIP3   OH266247   6.205   6.647   4.910  0.6300 -0.2741  0.0867
14919TIP3    H166248   6.270   6.580   4.934  2.4931  1.4584  0.1194
14919TIP3    H266249   6.199   6.703   4.987 -2.1344 -1.2339  0.6660
14920TIP3   OH266250   6.473   4.127  15.740 -0.5013  0.7596  0.3260
14920TIP3    H166251   6.484   4.194  15.672 -0.0591  0.7137  0.3484
14920TIP3    H266252   6.446   4.177  15.817  0.3363  0.9846  0.4844
14921TIP3   OH266253   4.519   2.813   2.857  0.6790  0.4194  0.0218
14921TIP3    H166254   4.549   2.881   2.797  2.9740 -0.1975  0.3825
14921TIP3    H266255   4.522   2.855   2.944  1.5570  0.0606  0.1773
14922TIP3   OH266256   1.362   3.305  16.497 -0.0330  0.3157 -0.6871
14922TIP3    H166257   1.427   3.253  16.450  0.2339  0.4372 -0.4518
14922TIP3    H266258   1.399   3.319  16.584 -1.2824 -1.4095  0.1853
14923TIP3   OH266259   1.343   6.206  14.954 -0.2623  0.5936 -0.7553
14923TIP3    H166260   1.411   6.138  14.953  1.1145  1.8748 -0.0935
14923TIP3    H266261   1.328   6.227  14.862  0.0984  0.1328 -0.9246
14924TIP3   OH266262   1.939   1.236  15.118  0.5344  0.5313  0.0413
14924TIP3    H166263   1.953   1.272  15.031  0.4223 -0.2584 -0.3074
14924TIP3    H266264   1.847   1.256  15.138 -0.3516 -1.8817 -1.2765
14925TIP3   OH266265   0.176   2.586   4.896  0.0283 -0.2528  0.0599
14925TIP3    H166266   0.139   2.668   4.931  1.5841  0.3843  0.2760
14925TIP3    H266267   0.109   2.555   4.834 -1.0562  0.6240  0.7448
14926TIP3   OH266268   5.565   4.040   4.919 -0.1273 -0.9005 -0.2653
14926TIP3    H166269   5.625   3.966   4.931 -0.3150 -0.9726  0.2893
14926TIP3    H266270   5.593   4.081   4.838  0.2056 -1.3726 -0.3936
14927TIP3   OH266271   3.250   6.629   2.147  0.3849  0.1302 -0.5026
14927TIP3    H166272   3.158   6.628   2.172  0.4585  1.7640 -0.0679
14927TIP3    H266273   3.295   6.582   2.217 -0.0034  0.2275 -0.1871
14928TIP3   OH266274   2.029   2.005  12.824 -0.3716  0.7237  0.6302
14928TIP3    H166275   1.940   2.040  12.832 -0.7232  0.3976 -1.4431
14928TIP3    H266276   2.044   1.999  12.730  1.3070 -0.6403  0.9504
14929TIP3   OH266277   1.334   2.832   5.772  0.0341  0.0581  0.4869
14929TIP3    H166278   1.269   2.857   5.838  1.7263  0.4034  2.1207
14929TIP3    H266279   1.363   2.915   5.735 -0.5816 -0.1090 -0.3882
14930TIP3   OH266280   1.485   1.524  16.489 -0.0248 -0.9882  0.4003
14930TIP3    H166281   1.550   1.505  16.421  0.0060  0.8700 -0.1617
14930TIP3    H266282   1.402   1.529  16.440  0.0956  1.0558  0.3154
14931TIP3   OH266283   5.766   1.134  11.938  0.1123 -0.2981 -0.1112
14931TIP3    H166284   5.764   1.218  11.984 -3.1037  0.0480 -0.6525
14931TIP3    H266285   5.685   1.090  11.965  1.7794 -3.3742  0.3203
14932TIP3   OH266286   5.339   0.571   3.767  0.4393  0.1951 -0.2230
14932TIP3    H166287   5.312   0.658   3.738  0.8085  0.3596 -0.0818
14932TIP3    H266288   5.429   0.582   3.796  0.1285  0.0196  0.8791
14933TIP3   OH266289   4.676   0.017   4.393 -0.2850 -0.7988 -0.4738
14933TIP3    H166290   4.646  -0.071   4.372  0.5178 -1.0326 -0.6807
14933TIP3    H266291   4.674   0.064   4.310  2.4186 -1.5842 -1.1120
14934TIP3   OH266292   1.996   5.455   6.463  0.5662 -0.3803  0.6686
14934TIP3    H166293   1.917   5.506   6.479  1.2743  0.6830  0.8194
14934TIP3    H266294   2.033   5.440   6.550  0.3677 -1.1740  0.6295
14935TIP3   OH266295   5.428   5.406   0.839 -0.1501 -0.4952  0.5175
14935TIP3    H166296   5.514   5.428   0.803 -0.9715  0.9001 -0.7339
14935TIP3    H266297   5.403   5.325   0.796 -0.7710  0.7376 -1.5980
14936TIP3   OH266298   4.126   0.626   2.668 -0.3629  0.6779  0.8486
14936TIP3    H166299   4.072   0.601   2.744 -1.1111 -0.4529 -0.0199
14936TIP3    H266300   4.062   0.644   2.599  0.2588  2.8292  0.7698
14937TIP3   OH266301   0.844   5.296   3.189  0.3327 -0.0704  0.4696
14937TIP3    H166302   0.761   5.299   3.142  0.4340 -0.5294  0.2523
14937TIP3    H266303   0.908   5.329   3.125  0.2057  1.0622  0.9079
14938TIP3   OH266304   0.033   2.366   5.032 -0.5534 -0.0374  0.1220
14938TIP3    H166305   0.097   2.391   4.965 -0.7193  1.4785  0.4878
14938TIP3    H266306   0.080   2.306   5.090 -0.0241 -0.3596 -0.6326
14939TIP3   OH266307   3.878   3.349  13.487  0.0825 -0.2205  0.2015
14939TIP3    H166308   3.870   3.399  13.406 -2.1277  0.4000  0.7286
14939TIP3    H266309   3.916   3.265  13.461 -0.4741  0.0164 -1.4541
14940TIP3   OH266310   4.586   6.088   2.612 -0.9432  1.1197  0.2029
14940TIP3    H166311   4.526   6.119   2.545 -2.3800  1.2349  1.4764
14940TIP3    H266312   4.542   6.012   2.650  1.1175 -0.6940 -0.8203
14941TIP3   OH266313   2.218   4.212   3.593  0.5144 -0.4977  0.4559
14941TIP3    H166314   2.153   4.186   3.527  1.9894  1.2605 -1.8735
14941TIP3    H266315   2.302   4.185   3.555  1.4102  0.3969  1.7246
14942TIP3   OH266316   6.012   6.704   2.614 -0.0953  0.1933 -0.1965
14942TIP3    H166317   6.080   6.671   2.673 -0.5354  0.9826  0.7794
14942TIP3    H266318   6.050   6.697   2.527  0.5595 -1.0379  0.1641
14943TIP3   OH266319   2.949   3.756  12.974  0.2353 -0.0529 -0.6579
14943TIP3    H166320   2.882   3.789  13.034  0.4148 -0.8299 -0.0032
14943TIP3    H266321   2.901   3.728  12.896 -0.0293  0.7591 -0.7903
14944TIP3   OH266322   0.386   0.119   5.289  0.4068 -0.8757 -0.0002
14944TIP3    H166323   0.428   0.055   5.231 -0.2317 -0.1493 -1.2992
14944TIP3    H266324   0.459   0.172   5.321  0.5161  1.3488 -3.4196
14945TIP3   OH266325   1.108   2.004   5.674 -0.6126 -0.0618 -0.0439
14945TIP3    H166326   1.191   2.000   5.722 -0.2489  0.1551 -0.6419
14945TIP3    H266327   1.134   1.994   5.582 -1.0507  1.8193 -0.4018
14946TIP3   OH266328   6.031   1.625  13.255  0.4984  0.1937  0.0069
14946TIP3    H166329   6.057   1.705  13.301  0.6620  1.8184 -2.7360
14946TIP3    H266330   6.091   1.558  13.288  0.9314  1.3633  1.7295
14947TIP3   OH266331   5.736   4.487  11.968 -0.4882  0.0205  0.2152
14947TIP3    H166332   5.717   4.394  11.957  1.6149 -0.2818 -1.4416
14947TIP3    H266333   5.764   4.495  12.059  2.1614 -1.6112 -0.3399
14948TIP3   OH266334   0.808   2.977   1.175 -0.2259 -0.3035  0.2742
14948TIP3    H166335   0.722   3.007   1.204 -0.2054  0.0494 -0.0202
14948TIP3    H266336   0.830   3.034   1.101  0.3353 -0.2792  0.4498
14949TIP3   OH266337   4.506   1.540   3.452  0.1556 -0.3811  0.0161
14949TIP3    H166338   4.438   1.555   3.386  1.3709 -1.6523 -1.5925
14949TIP3    H266339   4.478   1.460   3.497  0.3424 -0.6503 -0.3406
14950TIP3   OH266340   3.092   1.891   1.796  0.2191 -0.3363  0.8465
14950TIP3    H166341   3.034   1.819   1.772  1.1219 -1.2199  1.2241
14950TIP3    H266342   3.080   1.900   1.891 -2.0663  2.0022  0.4409
14951TIP3   OH266343   0.758   2.122  12.513 -0.0043 -0.0057 -0.6163
14951TIP3    H166344   0.679   2.174  12.525  0.6392  0.6093  1.2512
14951TIP3    H266345   0.734   2.057  12.447 -2.3880 -0.4840  0.6101
14952TIP3   OH266346   3.232   4.827  12.543 -0.2755  0.0979 -0.0714
14952TIP3    H166347   3.238   4.734  12.564 -1.1122  0.4845  2.1275
14952TIP3    H266348   3.322   4.859  12.550  0.1388 -0.6275 -1.5532
14953TIP3   OH266349   3.482   3.047  11.817 -0.3317 -0.1486 -0.1060
14953TIP3    H166350   3.512   3.029  11.906  2.0729 -1.2410 -1.0488
14953TIP3    H266351   3.561   3.042  11.763 -1.4482  1.9308 -2.1393
14954TIP3   OH266352   2.791   5.838   4.973 -0.2837  0.3022  0.7014
14954TIP3    H166353   2.870   5.821   5.025  0.1547  1.1326  0.3359
14954TIP3    H266354   2.769   5.753   4.933  0.5045  0.0912  0.7036
14955TIP3   OH266355   6.663   6.480   4.874 -0.5842 -0.6751 -0.1369
14955TIP3    H166356   6.668   6.408   4.937 -0.7555 -1.5974 -1.1627
14955TIP3    H266357   6.732   6.462   4.811 -0.9632 -0.2184 -0.6924
14956TIP3   OH266358   2.643   4.712  16.148 -0.1960  0.5069  0.1258
14956TIP3    H166359   2.585   4.664  16.207 -0.5345 -0.4736 -0.9694
14956TIP3    H266360   2.699   4.645  16.109 -0.3366  1.0601 -1.0669
14957TIP3   OH266361   2.100   6.747  12.466 -0.0258 -0.1613  0.5240
14957TIP3    H166362   2.192   6.753  12.493  0.2923 -0.1170 -0.5314
14957TIP3    H266363   2.064   6.677  12.520 -0.2962  2.0403  3.4328
14958TIP3   OH266364   5.109   0.488   6.679  0.0448  0.6854  0.1344
14958TIP3    H166365   5.158   0.503   6.599  1.4845  1.5571  1.1370
14958TIP3    H266366   5.133   0.399   6.706 -0.8993  0.1678 -0.6857
14959TIP3   OH266367   1.622   6.426  15.772 -0.1606 -0.1049  0.1134
14959TIP3    H166368   1.707   6.425  15.816 -0.6237  1.7140  1.1522
14959TIP3    H266369   1.580   6.344  15.800  1.1307 -0.9152 -0.2300
14960TIP3   OH266370   3.406   4.497  13.797  0.2934  0.4885  0.6423
14960TIP3    H166371   3.470   4.557  13.759  0.3575 -0.5247 -0.9331
14960TIP3    H266372   3.325   4.514  13.749  0.0318  0.0684  0.9292
14961TIP3   OH266373   6.528   5.246   3.571  0.3622 -0.2815  0.0358
14961TIP3    H166374   6.598   5.310   3.587 -0.1833  0.0915  0.9916
14961TIP3    H266375   6.467   5.291   3.513  0.6478 -0.4251 -0.3825
14962TIP3   OH266376   6.750   1.088  14.504  1.4200 -0.8957  0.0174
14962TIP3    H166377   6.755   1.015  14.565 -1.4548  0.0001  1.5102
14962TIP3    H266378   6.726   1.047  14.420 -1.1559 -1.7125  1.0442
14963TIP3   OH266379   0.071   6.180  12.950 -0.3337 -0.1780 -0.0930
14963TIP3    H166380  -0.023   6.199  12.948 -0.0822  1.1133 -0.6870
14963TIP3    H266381   0.092   6.150  12.862 -0.5076 -2.3153  0.5353
14964TIP3   OH266382   6.786   4.776  11.352 -0.4303 -0.3778 -0.0340
14964TIP3    H166383   6.821   4.728  11.277 -0.9500 -0.4490 -0.2385
14964TIP3    H266384   6.744   4.853  11.313  2.6727  1.7265  0.4373
14965TIP3   OH266385   3.643   0.657   3.664  0.3086 -0.5424 -0.0389
14965TIP3    H166386   3.717   0.604   3.636 -0.0774  0.0066 -2.2541
14965TIP3    H266387   3.597   0.679   3.583 -0.3014  2.0550  0.9144
14966TIP3   OH266388   2.123   6.422  13.787 -0.4178  0.1570 -0.2819
14966TIP3    H166389   2.123   6.510  13.826  0.8925 -0.7840  2.0327
14966TIP3    H266390   2.215   6.395  13.789 -0.8443 -1.4005 -0.6160
14967TIP3   OH266391   0.994   3.254  15.881 -0.5192 -0.0390  0.1326
14967TIP3    H166392   0.928   3.288  15.941 -1.4044 -0.6726 -0.4567
14967TIP3    H266393   0.947   3.236  15.800 -0.4722 -3.7926  0.7286
14968TIP3   OH266394   2.142   5.355  13.042  0.0400  0.2616  0.5720
14968TIP3    H166395   2.048   5.338  13.038  0.1078 -0.1994  0.8328
14968TIP3    H266396   2.149   5.446  13.069 -0.3409  0.7239 -0.8171
14969TIP3   OH266397   0.530   4.848   0.024 -0.0894 -0.0124 -0.0175
14969TIP3    H166398   0.540   4.936  -0.012 -0.5486  0.1398  0.2164
14969TIP3    H266399   0.543   4.859   0.118 -1.1870 -0.0057  0.1468
14970TIP3   OH266400   2.828   6.749   3.115  0.1980 -0.5138 -0.6477
14970TIP3    H166401   2.770   6.719   3.045 -2.3035  1.8205  0.2708
14970TIP3    H266402   2.771   6.762   3.190  2.2470  0.2279  0.8791
14971TIP3   OH266403   1.854   3.181  14.265 -0.2473 -0.4308 -0.2134
14971TIP3    H166404   1.923   3.210  14.325  1.4723  1.0278 -2.7089
14971TIP3    H266405   1.773   3.215  14.304  0.8349  0.8985  1.0123
14972TIP3   OH266406   0.062   5.209   2.537  0.3974  0.4336  0.1906
14972TIP3    H166407   0.154   5.212   2.512  0.8134 -3.0676  0.7970
14972TIP3    H266408   0.018   5.172   2.460 -0.0045 -0.4980  0.8434
14973TIP3   OH266409   2.071   4.456  12.886  0.5460 -0.1951 -0.2968
14973TIP3    H166410   2.070   4.369  12.927  1.2825 -0.4139 -0.7306
14973TIP3    H266411   2.111   4.513  12.952 -0.7251  0.0094  0.3333
14974TIP3   OH266412   2.925   0.197  15.842  0.3434  0.0415 -0.0703
14974TIP3    H166413   3.010   0.214  15.883  0.3787  0.0682 -0.1540
14974TIP3    H266414   2.930   0.106  15.813  0.2139 -0.0626  0.2341
14975TIP3   OH266415   3.421   1.736  12.793 -0.3161 -0.2041  0.2100
14975TIP3    H166416   3.493   1.673  12.793  0.3468  0.5331 -0.6784
14975TIP3    H266417   3.369   1.714  12.717  0.0823  0.4879 -0.2744
14976TIP3   OH266418   6.023   3.347   0.197  0.5114 -0.3410 -0.4169
14976TIP3    H166419   6.108   3.388   0.185  0.6238  1.0821  3.5563
14976TIP3    H266420   6.042   3.253   0.208  1.7515  0.0485  1.1210
14977TIP3   OH266421   5.860   6.662   2.032  0.3733 -0.5304  0.4705
14977TIP3    H166422   5.871   6.582   2.083  0.3916  0.9404  2.9449
14977TIP3    H266423   5.839   6.729   2.097  1.4292  1.7139 -1.3564
14978TIP3   OH266424   4.225   6.785  12.540 -0.5577  0.1790  0.8713
14978TIP3    H166425   4.226   6.857  12.603  2.5331  0.2858  0.8777
14978TIP3    H266426   4.258   6.710  12.588 -1.6037 -0.6945  0.2717
14979TIP3   OH266427   5.841   4.518   0.255 -0.8228 -0.1276 -0.6030
14979TIP3    H166428   5.816   4.437   0.212 -1.3689  0.5361 -1.5752
14979TIP3    H266429   5.873   4.574   0.184  1.3380 -0.1273  0.2762
14980TIP3   OH266430   0.337   3.265  14.162  0.6616 -0.8509  0.2376
14980TIP3    H166431   0.401   3.213  14.113  0.3912 -0.4706 -0.5324
14980TIP3    H266432   0.359   3.249  14.254  1.2324 -1.5081 -0.0003
14981TIP3   OH266433   0.951   0.846  10.142  0.0917  0.3855  0.5344
14981TIP3    H166434   0.868   0.799  10.129  0.6822 -0.9378  1.3277
14981TIP3    H266435   0.926   0.926  10.187 -0.7763 -0.0119  0.7907
14982TIP3   OH266436   2.121   3.063   4.189 -0.3391 -0.1268 -0.0388
14982TIP3    H166437   2.051   3.101   4.137 -0.5438  1.0703  1.0374
14982TIP3    H266438   2.094   3.079   4.280  1.2136  0.1896  0.3955
14983TIP3   OH266439   5.106   0.557  14.771  0.1263 -0.7310  0.1305
14983TIP3    H166440   5.102   0.487  14.836  1.1567 -1.2981 -0.3965
14983TIP3    H266441   5.141   0.515  14.692 -1.6147 -0.1863 -0.9781
14984TIP3   OH266442   0.834   3.281  16.104 -0.2064  0.1774  0.2864
14984TIP3    H166443   0.761   3.342  16.094  0.1468  0.4375 -0.8784
14984TIP3    H266444   0.793   3.194  16.106 -0.4939  0.1772 -2.1809
14985TIP3   OH266445   1.020   5.353  11.959 -0.3267 -0.3923  0.3403
14985TIP3    H166446   0.980   5.323  11.877  2.8204  1.0978 -1.9609
14985TIP3    H266447   1.085   5.286  11.980 -0.5052 -0.3242  1.1341
14986TIP3   OH266448   0.779   5.779   2.380  0.5307 -0.5203  0.0635
14986TIP3    H166449   0.827   5.812   2.304  1.7049  1.3269  1.5454
14986TIP3    H266450   0.791   5.684   2.375  0.3926 -0.4909 -2.1454
14987TIP3   OH266451   6.504   5.161   2.195  0.1845  0.3927  0.1720
14987TIP3    H166452   6.482   5.248   2.229  1.4573  0.7434  0.1564
14987TIP3    H266453   6.584   5.137   2.242 -0.0390 -0.6851  0.0159
14988TIP3   OH266454   3.629   5.542   6.241 -0.3257  0.1136  0.1857
14988TIP3    H166455   3.694   5.552   6.310 -1.3966  0.5392  1.1847
14988TIP3    H266456   3.616   5.631   6.207 -1.1316  0.2244  0.7374
14989TIP3   OH266457   5.979   4.683   2.146 -0.1225 -0.4618 -0.0953
14989TIP3    H166458   5.960   4.610   2.087 -2.8787  0.7398 -0.8554
14989TIP3    H266459   5.969   4.646   2.233 -0.6963 -1.1912 -0.4591
14990TIP3   OH266460   6.394   0.035   0.386  0.3541 -0.4567 -0.3550
14990TIP3    H166461   6.448  -0.008   0.320  0.9317 -1.2433  0.6082
14990TIP3    H266462   6.404   0.128   0.368  0.2693 -0.6614 -1.5491
14991TIP3   OH266463   2.573   1.047  13.219  0.1363  0.2270 -0.3903
14991TIP3    H166464   2.593   1.041  13.313  2.6481 -0.3535 -0.8863
14991TIP3    H266465   2.519   0.970  13.201 -0.2124  0.2407  0.5405
14992TIP3   OH266466   3.771   5.702  13.138  0.5360 -0.1315 -0.6238
14992TIP3    H166467   3.814   5.676  13.219 -1.1757  0.4152  0.5155
14992TIP3    H266468   3.840   5.700  13.072  1.3622 -3.4930  0.1937
14993TIP3   OH266469   3.213   6.355  15.634  0.2171 -0.6311  0.2743
14993TIP3    H166470   3.178   6.266  15.645 -2.2695 -0.0850 -2.0105
14993TIP3    H266471   3.308   6.345  15.635  0.0059 -3.0415  1.8002
14994TIP3   OH266472   3.283   3.795  12.430 -0.3797 -0.7978 -0.9379
14994TIP3    H166473   3.273   3.890  12.418  0.1021 -0.5068  0.7010
14994TIP3    H266474   3.206   3.757  12.388 -0.4430  0.2931 -1.8590
14995TIP3   OH266475   2.857   1.355  12.530  0.0561 -0.0341  0.0850
14995TIP3    H166476   2.872   1.438  12.574  0.1578  0.0225 -0.0554
14995TIP3    H266477   2.943   1.314  12.526  0.6028  1.1738 -2.5121
14996TIP3   OH266478   2.885   4.835  15.414  0.1008 -0.4243  0.4745
14996TIP3    H166479   2.811   4.774  15.406 -1.3398  1.1571  1.1318
14996TIP3    H266480   2.954   4.783  15.456 -0.8318 -1.7771  0.4098
14997TIP3   OH266481   0.404   0.116   5.819  0.6223  0.4511  0.7517
14997TIP3    H166482   0.356   0.177   5.762  2.6058  1.0919 -0.3323
14997TIP3    H266483   0.496   0.139   5.807  1.2714 -1.0847  2.3236
14998TIP3   OH266484   1.830   3.665   3.116  0.1841 -0.2858  0.5419
14998TIP3    H166485   1.879   3.618   3.183  0.1714  0.1672  0.8656
14998TIP3    H266486   1.742   3.627   3.120  0.4942 -1.0946 -0.0370
14999TIP3   OH266487   1.173   3.741   3.076 -0.1998  0.1673 -0.9428
14999TIP3    H166488   1.104   3.697   3.026 -1.1478 -1.0120  1.2570
14999TIP3    H266489   1.133   3.822   3.107  1.1215  2.0892 -3.8690
15000TIP3   OH266490   0.776   3.760  12.651  0.1166 -0.0264  0.1440
15000TIP3    H166491   0.716   3.771  12.725  1.7898 -0.9677  1.7166
15000TIP3    H266492   0.839   3.831  12.661  0.9342 -0.7453  0.2378
15001TIP3   OH266493   6.744   2.232  12.336  0.4460  0.0969 -0.2994
15001TIP3    H166494   6.665   2.274  12.302 -0.6444  0.8962  2.9122
15001TIP3    H266495   6.712   2.156  12.385  1.5589  0.6378  1.3761
15002TIP3   OH266496   4.794   6.675   2.673 -0.2476 -0.3000  0.3334
15002TIP3    H166497   4.820   6.741   2.737 -0.5406  0.9265 -0.7565
15002TIP3    H266498   4.714   6.711   2.633 -0.6068 -1.4869 -0.0427
15003TIP3   OH266499   5.216   5.745  12.374 -0.0818 -0.2444 -0.1020
15003TIP3    H166500   5.268   5.785  12.444 -0.3567  0.7686 -0.4634
15003TIP3    H266501   5.174   5.670  12.415  0.7387 -0.3882  0.4998
15004TIP3   OH266502   4.682   5.585   0.820  0.0852 -0.3466 -0.5870
15004TIP3    H166503   4.647   5.580   0.731  0.5854 -1.3391 -0.7456
15004TIP3    H266504   4.770   5.621   0.809 -0.3372  0.7851 -0.3428
15005TIP3   OH266505   3.826   6.279   1.213  0.5117  0.5177 -0.2886
15005TIP3    H166506   3.897   6.218   1.233 -0.8901 -1.7094 -1.6571
15005TIP3    H266507   3.808   6.322   1.296  1.0616 -1.5296  0.9828
15006TIP3   OH266508   1.792   4.950  15.731 -0.6933 -0.8105 -0.2919
15006TIP3    H166509   1.863   4.891  15.708 -0.4689 -0.5425 -0.2873
15006TIP3    H266510   1.802   4.963  15.826 -1.1069 -1.2433 -0.1827
15007TIP3   OH266511   6.747   3.326  16.404 -0.2402 -0.7471  0.2958
15007TIP3    H166512   6.791   3.362  16.482  2.4532 -1.5398 -0.7396
15007TIP3    H266513   6.749   3.397  16.340 -0.2010 -0.8757  0.1535
15008TIP3   OH266514   3.455   2.341  12.752  0.2624 -0.0300  0.0392
15008TIP3    H166515   3.543   2.368  12.725 -0.1890  1.9424  0.4008
15008TIP3    H266516   3.396   2.397  12.702 -0.8524 -1.6931 -0.6008
15009TIP3   OH266517   4.340   0.030  15.827  0.1060 -0.4119  0.0825
15009TIP3    H166518   4.302  -0.056  15.841  0.0132 -0.3827  0.0116
15009TIP3    H266519   4.412   0.035  15.889 -1.3250  0.3657  1.7542
15010TIP3   OH266520   5.371   1.788   0.279  0.0347 -0.0517  0.4735
15010TIP3    H166521   5.356   1.749   0.194 -2.0121  0.0781  0.7362
15010TIP3    H266522   5.298   1.758   0.333  1.4517 -0.4051  2.2946
15011TIP3   OH266523   4.743   3.913   6.672 -0.3810 -0.3540 -0.1750
15011TIP3    H166524   4.834   3.933   6.651 -0.2822  0.2793  0.8186
15011TIP3    H266525   4.720   3.843   6.611  0.9570 -0.9658 -0.0278
15012TIP3   OH266526   4.801   5.327  11.170  0.2854  0.1465 -0.3036
15012TIP3    H166527   4.755   5.409  11.154  0.0812  0.3383  1.1356
15012TIP3    H266528   4.734   5.260  11.166 -0.1081  0.3905  1.4617
15013TIP3   OH266529   6.070   4.618  12.889 -0.1944  0.4052  0.2404
15013TIP3    H166530   6.123   4.679  12.940 -1.7578  0.6130  1.7055
15013TIP3    H266531   6.122   4.538  12.886  1.0845  1.2184 -0.1422
15014TIP3   OH266532   4.587   1.467   5.715 -0.4844 -0.8900  0.1767
15014TIP3    H166533   4.564   1.534   5.780  0.0459  0.6844 -1.1905
15014TIP3    H266534   4.671   1.433   5.745  0.7384  1.2328 -0.6704
15015TIP3   OH266535   4.049   2.712  14.702 -0.4267 -0.0210  0.3788
15015TIP3    H166536   4.021   2.763  14.779 -1.6783 -1.3824  0.8857
15015TIP3    H266537   4.111   2.649  14.737  0.4328  0.5504 -0.0877
15016TIP3   OH266538   2.662   6.389   3.361 -0.1395  0.1640  0.0918
15016TIP3    H166539   2.671   6.426   3.273  0.0930  0.8002  0.3747
15016TIP3    H266540   2.684   6.297   3.351 -0.0654  0.2417 -0.5092
15017TIP3   OH266541   3.163   4.220  12.858  0.1134 -0.2044 -0.0929
15017TIP3    H166542   3.211   4.267  12.926 -0.8942 -0.2416  0.6681
15017TIP3    H266543   3.149   4.285  12.789  0.8815 -0.0870 -0.1456
15018TIP3   OH266544   6.622   1.296   0.701  0.1598  0.4765 -0.2308
15018TIP3    H166545   6.658   1.347   0.629  2.3071  0.0650  0.4889
15018TIP3    H266546   6.654   1.207   0.686  0.3855  0.3182  1.0275
15019TIP3   OH266547   4.466   5.659  12.545 -0.3330  0.6127 -0.4868
15019TIP3    H166548   4.460   5.588  12.482 -2.7011  0.9370 -0.7078
15019TIP3    H266549   4.516   5.727  12.499  0.9611 -0.4264 -0.6823
15020TIP3   OH266550   4.066   2.070  16.779  0.2091 -0.6826  0.2526
15020TIP3    H166551   4.003   2.069  16.707  0.9930 -2.4091 -0.4731
15020TIP3    H266552   4.023   2.022  16.850  0.8360 -2.3240 -0.4242
15021TIP3   OH266553   0.955   6.428  14.867  0.0063  0.6878 -0.0358
15021TIP3    H166554   0.930   6.468  14.950 -0.5914 -0.0513  0.1546
15021TIP3    H266555   0.885   6.451  14.807 -0.6877 -0.5860  0.2470
15022TIP3   OH266556   3.914   6.059  12.023 -0.1927  0.1934 -0.1988
15022TIP3    H166557   3.827   6.021  12.017 -1.2258  2.4237 -0.3734
15022TIP3    H266558   3.961   6.001  12.083 -1.3105 -1.8527 -1.1932
15023TIP3   OH266559   0.047   1.795   0.406 -0.0963 -0.2390  0.2792
15023TIP3    H166560  -0.048   1.800   0.410 -0.0743 -0.4140  1.5178
15023TIP3    H266561   0.077   1.875   0.450  0.3329 -0.1047 -0.2459
15024TIP3   OH266562   2.018   6.103  12.266  0.5885  0.2591 -0.2906
15024TIP3    H166563   1.999   6.029  12.323 -1.1805 -0.5589 -1.8107
15024TIP3    H266564   2.047   6.064  12.184  2.0913  1.3655 -0.3296
15025TIP3   OH266565   4.265   3.671  11.557 -0.4029  0.2406  0.5682
15025TIP3    H166566   4.216   3.745  11.594 -0.4138 -0.1107  1.2645
15025TIP3    H266567   4.286   3.616  11.632 -0.4318 -0.4949  0.0476
15026TIP3   OH266568   2.522   4.513  10.696  0.7870  0.2189  0.4874
15026TIP3    H166569   2.614   4.533  10.715  1.3742  0.2147 -2.0373
15026TIP3    H266570   2.503   4.435  10.748  2.7826 -0.8457 -0.2648
15027TIP3   OH266571   1.281   5.762   1.039 -0.2035  0.2727 -0.2177
15027TIP3    H166572   1.242   5.850   1.031 -1.3678 -0.1237  0.8315
15027TIP3    H266573   1.245   5.714   0.964 -1.6001 -0.0158  0.6012
15028TIP3   OH266574   2.027   1.561  16.948 -0.0746  0.1892  0.3163
15028TIP3    H166575   2.083   1.615  17.004 -0.6827 -0.0948  1.2348
15028TIP3    H266576   2.082   1.486  16.924  0.4846  0.7724 -0.2317
15029TIP3   OH266577   2.232   0.151  15.188  0.4949  0.1651 -0.7661
15029TIP3    H166578   2.137   0.162  15.185  0.0004 -3.0190 -0.7151
15029TIP3    H266579   2.258   0.142  15.096  1.0753  2.6475 -0.9050
15030TIP3   OH266580   0.939   3.110  16.341  0.1899  0.1502 -0.2626
15030TIP3    H166581   1.000   3.038  16.358 -0.5303 -0.6915 -1.1486
15030TIP3    H266582   0.890   3.083  16.264  1.0667  2.3602 -1.7197
15031TIP3   OH266583   1.372   5.195  11.534  0.3520 -0.0211  0.1250
15031TIP3    H166584   1.405   5.118  11.488 -2.1326 -0.5345 -0.9997
15031TIP3    H266585   1.437   5.213  11.601  1.7234 -2.2311 -0.5107
15032TIP3   OH266586   2.731   1.673   5.506 -0.5838  0.1355 -0.3571
15032TIP3    H166587   2.737   1.711   5.594  0.1062 -2.3500  0.7731
15032TIP3    H266588   2.641   1.690   5.479 -0.5276  1.8458  0.3576
15033TIP3   OH266589   3.201   4.602  13.956  0.3689 -0.0355  0.1458
15033TIP3    H166590   3.289   4.574  13.932  0.9611  1.5795  0.3106
15033TIP3    H266591   3.148   4.587  13.878  1.4156  1.5381 -0.9170
15034TIP3   OH266592   3.959   4.352   4.440 -0.2508  0.2504 -0.3202
15034TIP3    H166593   3.966   4.447   4.443 -0.9694  0.3568 -1.2444
15034TIP3    H266594   3.907   4.329   4.517  1.1385  0.4453  0.7065
15035TIP3   OH266595   2.124   3.541   4.262  0.6667  1.0021 -0.6804
15035TIP3    H166596   2.188   3.487   4.216  1.4676  0.1441  1.3510
15035TIP3    H266597   2.110   3.497   4.346 -1.4592  1.9952 -0.4352
15036TIP3   OH266598   2.342   0.205   2.603  0.3877 -0.6307 -0.6171
15036TIP3    H166599   2.369   0.235   2.690 -0.0640  1.7218 -1.2077
15036TIP3    H266600   2.248   0.190   2.611 -0.0864  1.6486 -1.1318
15037TIP3   OH266601   2.633   6.559  12.559  0.3690 -0.2071  0.2441
15037TIP3    H166602   2.608   6.558  12.467  0.8557  1.1466  0.0739
15037TIP3    H266603   2.575   6.496  12.601 -0.4696 -0.1762 -0.8373
15038TIP3   OH266604   4.154   3.266  15.804  0.1817  0.5677 -0.5572
15038TIP3    H166605   4.175   3.181  15.842 -0.3987 -0.5844 -2.6907
15038TIP3    H266606   4.232   3.319  15.820  0.8310 -0.5595  0.1839
15039TIP3   OH266607   2.863   5.633  17.257 -0.5974 -0.2160 -0.4224
15039TIP3    H166608   2.920   5.709  17.274 -1.4419  0.4291 -0.3834
15039TIP3    H266609   2.886   5.571  17.326 -0.7740  0.5222  0.3254
15040TIP3   OH266610   1.116   5.439   6.160 -0.5164 -0.0220  0.2846
15040TIP3    H166611   1.084   5.525   6.185 -0.5802 -0.4205  1.6542
15040TIP3    H266612   1.127   5.392   6.243  1.4048 -0.6698 -0.2634
15041TIP3   OH266613   4.413   1.723   1.197 -0.3263  0.1958  0.1620
15041TIP3    H166614   4.459   1.648   1.158 -0.5596 -0.2373  0.7092
15041TIP3    H266615   4.434   1.796   1.139  0.6368 -0.1012  0.1079
15042TIP3   OH266616   1.871   1.419  14.396  0.3153 -0.2838  0.6371
15042TIP3    H166617   1.815   1.483  14.438  0.4306 -0.6380  1.3419
15042TIP3    H266618   1.821   1.390  14.319 -0.2965 -0.3022  1.0345
15043TIP3   OH266619   2.938   2.315  11.829 -0.7544 -0.0046 -0.2689
15043TIP3    H166620   2.860   2.362  11.802 -1.5576 -0.0181  1.8662
15043TIP3    H266621   2.998   2.383  11.860 -1.3184 -0.2105  1.3679
15044TIP3   OH266622   0.209   3.823   2.395 -0.2865 -0.7238  0.3509
15044TIP3    H166623   0.228   3.895   2.335 -0.8750 -1.3649 -0.6314
15044TIP3    H266624   0.231   3.744   2.346 -2.1553 -1.3367  0.3968
15045TIP3   OH266625   0.136   1.691  11.928 -0.1425 -0.1147  0.4798
15045TIP3    H166626   0.139   1.692  11.832  0.3766  1.2273  0.4766
15045TIP3    H266627   0.111   1.602  11.951  1.5306 -0.9923 -0.8650
15046TIP3   OH266628   2.718   0.152   2.372  0.1940 -0.0995  0.0486
15046TIP3    H166629   2.758   0.227   2.417  0.8319 -0.2272 -0.2965
15046TIP3    H266630   2.780   0.130   2.302 -1.8567  1.6331 -2.5064
15047TIP3   OH266631   2.301   4.057   0.395  0.4542  0.1159  0.2713
15047TIP3    H166632   2.311   4.052   0.300 -0.0498  0.8124  0.1756
15047TIP3    H266633   2.281   4.149   0.412  0.4112 -0.0317  1.0395
15048TIP3   OH266634   2.861   2.429   6.260 -0.3125  0.1066 -0.6745
15048TIP3    H166635   2.837   2.420   6.168  0.8281 -0.4912 -0.9282
15048TIP3    H266636   2.800   2.494   6.294 -1.1866 -0.1468 -1.6827
15049TIP3   OH266637   2.597   5.569   5.170 -0.5689 -0.5687 -0.1735
15049TIP3    H166638   2.519   5.565   5.116 -0.2554  1.0456 -0.7823
15049TIP3    H266639   2.565   5.558   5.260 -1.0745 -3.4832 -0.6117
15050TIP3   OH266640   2.531   5.919   4.881  0.4564  0.2203 -0.0626
15050TIP3    H166641   2.624   5.896   4.876  0.3590 -0.2709  0.3543
15050TIP3    H266642   2.519   5.982   4.810  0.8200 -0.7052 -0.9780
15051TIP3   OH266643   4.262   0.689  14.789 -0.1564  0.3385 -0.4514
15051TIP3    H166644   4.276   0.594  14.793 -0.6954  0.2600 -0.3607
15051TIP3    H266645   4.301   0.715  14.706 -0.5454 -0.0576 -0.7647
15052TIP3   OH266646   0.802   4.893   4.642 -0.1937 -0.1771 -0.0047
15052TIP3    H166647   0.838   4.959   4.583  0.1183 -0.7398 -0.4600
15052TIP3    H266648   0.879   4.852   4.682 -0.3916 -0.0826  0.4811
15053TIP3   OH266649   2.717   0.604  13.761 -0.2466 -0.1340 -0.0193
15053TIP3    H166650   2.777   0.576  13.692 -0.2096  0.1840 -0.1204
15053TIP3    H266651   2.763   0.583  13.843  0.5074  1.1355 -0.0915
15054TIP3   OH266652   5.539   1.967  13.278  0.3715  0.0224  0.6515
15054TIP3    H166653   5.621   1.963  13.229 -0.3189  1.8549 -0.7526
15054TIP3    H266654   5.535   2.057  13.310 -2.4732  0.9590 -1.9005
15055TIP3   OH266655   5.281   3.757   2.572  0.3250  0.0939 -0.8127
15055TIP3    H166656   5.203   3.729   2.619 -1.1730  1.4653 -2.3283
15055TIP3    H266657   5.287   3.851   2.589  0.5033  0.3654 -2.2327
15056TIP3   OH266658   4.804   2.693   4.688  0.7211 -0.3746  0.3574
15056TIP3    H166659   4.789   2.787   4.692  1.7403 -0.0831 -1.4713
15056TIP3    H266660   4.721   2.657   4.656  0.6051  0.0149  0.2098
15057TIP3   OH266661   4.810   1.033  11.788  0.2744  0.7722  0.3785
15057TIP3    H166662   4.758   1.041  11.708 -0.0827  0.9090  0.6190
15057TIP3    H266663   4.846   1.121  11.802  0.4592  0.7106  0.2840
15058TIP3   OH266664   0.482   2.945  17.011  0.3391  1.4329 -1.0385
15058TIP3    H166665   0.506   2.852  17.014  0.6919  1.4516 -2.6206
15058TIP3    H266666   0.548   2.988  17.065  0.2857  0.8051 -0.4471
15059TIP3   OH266667   4.870   5.282  16.562  0.3505  0.1377 -0.2685
15059TIP3    H166668   4.879   5.242  16.649  0.7599  2.0462  0.6342
15059TIP3    H266669   4.776   5.300  16.554  0.5106  1.5165  0.5743
15060TIP3   OH266670   0.987   3.910  14.274 -0.3378  0.2991 -0.3433
15060TIP3    H166671   0.938   3.991  14.261  0.4215  0.9479  0.6343
15060TIP3    H266672   0.947   3.870  14.351  1.7489  1.7923  1.6786
15061TIP3   OH266673   5.263   0.639  11.353  0.0084 -0.0568  0.0180
15061TIP3    H166674   5.193   0.632  11.288  1.6685 -1.3915 -1.7641
15061TIP3    H266675   5.322   0.705  11.317  1.0377 -0.9333  0.0532
15062TIP3   OH266676   6.376   6.442   0.518  0.5381 -0.4810  0.1641
15062TIP3    H166677   6.421   6.357   0.516  3.4131  0.9223  0.1904
15062TIP3    H266678   6.444   6.505   0.496 -1.3202  1.9242  0.9295
15063TIP3   OH266679   5.632   1.207   0.310 -0.6336  0.1735  0.6880
15063TIP3    H166680   5.537   1.217   0.306 -0.7380 -0.6767  0.8082
15063TIP3    H266681   5.649   1.168   0.396  0.0097  2.0550  1.4598
15064TIP3   OH266682   4.333   6.171   2.010  0.0064 -0.5994 -0.2621
15064TIP3    H166683   4.310   6.150   1.920  0.3010 -1.1342 -0.2159
15064TIP3    H266684   4.399   6.240   2.002  0.9466 -1.4989 -0.5064
15065TIP3   OH266685   3.817   4.929  12.931 -0.1698 -0.4299  0.0581
15065TIP3    H166686   3.893   4.934  12.989  1.2323  0.3190 -1.7431
15065TIP3    H266687   3.817   4.839  12.899 -0.8387 -0.7933  1.0374
15066TIP3   OH266688   3.962   6.454   3.417 -0.1779  0.6299  0.1475
15066TIP3    H166689   3.918   6.538   3.418 -0.3785  0.5412 -0.4518
15066TIP3    H266690   3.920   6.403   3.486 -1.1254  0.4938 -0.5209
15067TIP3   OH266691   6.599   0.143   1.281  0.3055 -0.3261 -0.1623
15067TIP3    H166692   6.547   0.209   1.236  1.7311 -0.1631 -1.6577
15067TIP3    H266693   6.535   0.078   1.312 -0.9755  1.0323  0.1468
15068TIP3   OH266694   4.318   5.563   3.065  0.1983  0.0860 -0.0606
15068TIP3    H166695   4.356   5.613   2.993  0.8873 -0.0781  0.1862
15068TIP3    H266696   4.379   5.574   3.138  0.0956 -0.6905  0.1489
15069TIP3   OH266697   5.361   6.322   0.722 -0.2961  0.3175 -0.0423
15069TIP3    H166698   5.272   6.285   0.721  0.1170 -0.7762  0.8608
15069TIP3    H266699   5.406   6.275   0.652 -0.6939  1.6185 -1.1957
15070TIP3   OH266700   3.210   0.484   0.293  0.3487  0.1164 -0.0040
15070TIP3    H166701   3.287   0.479   0.236  0.3888  1.8396 -0.1320
15070TIP3    H266702   3.239   0.447   0.376  0.6431 -1.3094 -0.7025
15071TIP3   OH266703   1.472   3.553   0.116  0.0731  0.0174 -0.4056
15071TIP3    H166704   1.525   3.585   0.189 -1.0200  1.4796 -0.1987
15071TIP3    H266705   1.518   3.584   0.038  1.0792 -1.2841 -0.3636
15072TIP3   OH266706   2.147   6.007  13.841 -0.3715  0.3208 -0.1548
15072TIP3    H166707   2.154   6.071  13.771  1.1202 -0.1395 -0.4521
15072TIP3    H266708   2.056   5.977  13.838 -0.3713  0.4395 -1.7636
15073TIP3   OH266709   3.652   0.957   1.316 -0.3971  0.0283  0.2663
15073TIP3    H166710   3.608   1.041   1.303  0.7884  0.7795  0.9019
15073TIP3    H266711   3.742   0.972   1.286 -0.5859 -1.5419 -1.2757
15074TIP3   OH266712   1.420   5.403  12.616  0.3843 -0.2569  0.4618
15074TIP3    H166713   1.447   5.373  12.703 -0.2908  0.9864  1.1222
15074TIP3    H266714   1.465   5.487  12.604 -0.3841  0.1059  0.0668
15075TIP3   OH266715   5.226   3.766   4.137  0.3012  0.3102 -0.2885
15075TIP3    H166716   5.221   3.699   4.205  2.1858 -0.4563 -0.8367
15075TIP3    H266717   5.168   3.735   4.068  1.8348 -1.2761 -0.9239
15076TIP3   OH266718   4.631   0.594  16.721 -0.8846 -0.7211 -0.1069
15076TIP3    H166719   4.723   0.595  16.746 -0.5911 -0.4718 -1.1404
15076TIP3    H266720   4.599   0.509  16.749 -0.3823 -0.7476  0.3988
15077TIP3   OH266721   5.354   1.467  16.650 -0.0397  0.8334  0.1895
15077TIP3    H166722   5.309   1.548  16.623 -1.2624  0.7986  1.9847
15077TIP3    H266723   5.338   1.461  16.744  0.3343 -1.3231  0.1498
15078TIP3   OH266724   4.152   4.214  11.084  0.0979 -0.3291  0.7902
15078TIP3    H166725   4.190   4.286  11.133  1.2930 -0.6801  0.3992
15078TIP3    H266726   4.060   4.240  11.071 -0.1775 -0.0803  2.8882
15079TIP3   OH266727   3.658   4.755  11.791  0.5122 -0.5807 -0.2828
15079TIP3    H166728   3.671   4.770  11.698  0.7698 -1.4770 -0.4010
15079TIP3    H266729   3.609   4.832  11.822 -1.3856 -1.1969 -1.5628
15080TIP3   OH266730   5.680   3.147  15.716  0.0001 -0.0867  0.2105
15080TIP3    H166731   5.736   3.152  15.794  1.4693 -0.4114 -0.7830
15080TIP3    H266732   5.624   3.071  15.732  0.8590 -0.6540  0.6089
15081TIP3   OH266733   4.849   2.059   5.335 -0.4821  0.0926 -0.1011
15081TIP3    H166734   4.799   2.122   5.386 -1.4673 -0.3430 -0.5009
15081TIP3    H266735   4.832   2.081   5.244 -0.2940 -0.3338 -0.2451
15082TIP3   OH266736   4.582   6.095   6.419 -0.4350  0.0352  0.1408
15082TIP3    H166737   4.590   6.182   6.457  0.9617 -0.2213  0.5116
15082TIP3    H266738   4.670   6.058   6.426 -0.5759 -0.7301 -1.6520
15083TIP3   OH266739   5.592   4.810  15.099  1.0677  0.4876  0.2113
15083TIP3    H166740   5.597   4.856  15.016 -2.2303  1.2309  0.2632
15083TIP3    H266741   5.608   4.718  15.078  0.0518  0.6338 -1.3225
15084TIP3   OH266742   4.529   2.712   2.400 -0.1092  0.1160 -0.1109
15084TIP3    H166743   4.618   2.681   2.419  0.3228  0.7585 -1.0146
15084TIP3    H266744   4.525   2.798   2.442 -0.1960  0.2182 -0.3269
15085TIP3   OH266745   4.827   6.014   0.418 -0.6501 -0.0925  0.5599
15085TIP3    H166746   4.902   6.071   0.402 -0.8765 -0.0425 -0.3813
15085TIP3    H266747   4.816   6.016   0.513 -0.3353  1.0263  0.5925
15086TIP3   OH266748   1.511   1.459   3.625 -0.0128 -0.1940  0.1292
15086TIP3    H166749   1.601   1.491   3.637  0.3161 -0.8917 -0.4404
15086TIP3    H266750   1.480   1.442   3.714 -0.6947  2.9340  0.6272
15087TIP3   OH266751   2.933   1.971  15.154 -0.2530  0.6068  0.2476
15087TIP3    H166752   2.872   2.040  15.180 -0.5778  0.1249  0.7696
15087TIP3    H266753   3.016   1.995  15.196 -0.7048 -0.0259  1.5548
15088TIP3   OH266754   3.643   2.886   5.253  0.1192 -0.1073  0.0520
15088TIP3    H166755   3.709   2.922   5.313  0.0374 -0.0919  0.1337
15088TIP3    H266756   3.582   2.840   5.311 -0.4206  0.6153  0.0667
15089TIP3   OH266757   0.692   1.858  15.980 -0.2272  0.0713 -0.2854
15089TIP3    H166758   0.747   1.847  15.902  1.2971  1.3988  0.5462
15089TIP3    H266759   0.754   1.874  16.051 -1.6809  1.4516  0.7376
15090TIP3   OH266760   2.926   0.130  12.574  0.4333 -0.0890 -0.0238
15090TIP3    H166761   2.975   0.196  12.526  2.2185 -0.5088  1.1264
15090TIP3    H266762   2.862   0.180  12.625  1.8699  0.8192  0.9629
15091TIP3   OH266763   2.628   4.850   0.947  0.7149  0.3179 -0.3926
15091TIP3    H166764   2.649   4.783   1.012 -1.4851 -0.1944 -0.1154
15091TIP3    H266765   2.545   4.887   0.977 -0.1043  0.4355 -2.6023
15092TIP3   OH266766   5.351   2.260  12.939 -0.2295  0.0909  0.1050
15092TIP3    H166767   5.347   2.212  12.856 -1.4381 -0.5405  0.5009
15092TIP3    H266768   5.431   2.312  12.933 -0.5888  0.4991 -1.6997
15093TIP3   OH266769   5.204   1.362   1.579  0.0888  0.5863 -0.1269
15093TIP3    H166770   5.186   1.420   1.653 -3.1314 -0.4364  0.0413
15093TIP3    H266771   5.237   1.282   1.618 -0.9550  0.2932  0.1806
15094TIP3   OH266772   1.186   2.908  11.801 -0.2175  0.0059  0.2768
15094TIP3    H166773   1.262   2.920  11.744 -0.4972  0.5530  0.0074
15094TIP3    H266774   1.111   2.931  11.746 -0.6865 -1.6339  0.1933
15095TIP3   OH266775   1.150   1.005   0.852 -0.4840 -0.1447  0.4190
15095TIP3    H166776   1.162   1.018   0.758 -1.2256 -0.3673  0.2876
15095TIP3    H266777   1.113   1.088   0.883  0.8445  0.3528  0.7308
15096TIP3   OH266778   5.044   2.181   0.469 -0.1877  0.2731  0.0288
15096TIP3    H166779   4.986   2.115   0.507 -0.1590  0.9513  1.3037
15096TIP3    H266780   4.984   2.244   0.428 -0.2166 -0.4794 -1.1573
15097TIP3   OH266781   2.839   2.788  15.254  0.2006 -0.2122 -0.1562
15097TIP3    H166782   2.892   2.723  15.207 -0.3123 -2.1404  1.7181
15097TIP3    H266783   2.903   2.836  15.307  0.4629 -0.0449 -0.6216
15098TIP3   OH266784   0.181   6.298   1.148  0.6809  0.7355  0.0194
15098TIP3    H166785   0.183   6.370   1.211 -0.2897  1.2831 -0.5471
15098TIP3    H266786   0.130   6.332   1.074  0.3050 -0.4863 -0.3109
15099TIP3   OH266787   2.439   4.460   1.550 -0.4887 -0.5276  0.1050
15099TIP3    H166788   2.482   4.443   1.465 -1.5075 -1.1872 -0.2942
15099TIP3    H266789   2.346   4.468   1.528 -0.6993 -0.1937  1.1022
15100TIP3   OH266790   3.208   3.766   0.324 -0.1571 -0.1003 -0.3029
15100TIP3    H166791   3.221   3.856   0.354 -0.0661  0.0671 -0.8421
15100TIP3    H266792   3.285   3.718   0.358  0.8842  0.4665 -1.7830
15101TIP3   OH266793   1.896   4.885   3.629  0.0955  0.7164 -0.2297
15101TIP3    H166794   1.976   4.844   3.596  0.5834  0.9786  0.6027
15101TIP3    H266795   1.882   4.846   3.715  1.9248  3.9130  1.7053
15102TIP3   OH266796   6.542   5.992  15.076  0.2996  0.1514 -0.0760
15102TIP3    H166797   6.553   5.936  14.999 -0.9847  1.8704 -1.6019
15102TIP3    H266798   6.600   6.066  15.059 -0.7082  1.0023  0.1210
15103TIP3   OH266799   5.658   5.609  12.998 -0.4483 -0.9776 -0.0671
15103TIP3    H166800   5.702   5.552  12.935 -1.0649 -0.9326 -0.5486
15103TIP3    H266801   5.638   5.551  13.072 -2.2317 -1.7422 -1.0832
15104TIP3   OH266802   0.666   2.565   4.924  0.0465  0.1762  0.5213
15104TIP3    H166803   0.719   2.515   4.986 -0.8011 -0.0717  1.0589
15104TIP3    H266804   0.672   2.515   4.842 -0.9460 -0.9593  1.0959
15105TIP3   OH266805   5.501   4.585  12.263  0.6476  0.9284  0.1913
15105TIP3    H166806   5.461   4.514  12.212 -1.7722  2.5979 -0.3738
15105TIP3    H266807   5.575   4.614  12.210  0.0412  0.5769 -0.8782
15106TIP3   OH266808   1.300   6.104  11.408 -0.2376 -0.5055 -0.4919
15106TIP3    H166809   1.392   6.102  11.434  0.3138  2.5427 -1.8200
15106TIP3    H266810   1.268   6.188  11.439 -2.5374 -1.3985 -0.2898
15107TIP3   OH266811   0.693   6.674  16.505  0.2989 -0.1427  0.3583
15107TIP3    H166812   0.746   6.678  16.426 -0.9195 -0.4025 -0.5105
15107TIP3    H266813   0.618   6.731  16.487  0.6177  0.7972  1.8299
15108TIP3   OH266814   4.405   4.405  14.013 -0.2914  0.5473  0.3076
15108TIP3    H166815   4.417   4.457  13.934  0.1059  0.2857  0.1910
15108TIP3    H266816   4.314   4.375  14.009 -0.1361  0.1366 -0.3002
15109TIP3   OH266817   4.106   3.246   5.487 -0.0926  0.0096  0.2268
15109TIP3    H166818   4.061   3.325   5.517 -2.1302 -0.8001 -0.5629
15109TIP3    H266819   4.118   3.260   5.393  0.3101 -0.2828  0.2317
15110TIP3   OH266820   0.465   3.556  12.458 -0.2156  0.1432  0.6743
15110TIP3    H166821   0.527   3.488  12.487 -1.4723 -0.7465  1.3612
15110TIP3    H266822   0.397   3.508  12.411  0.7604  1.3648 -2.1380
15111TIP3   OH266823   1.389   1.638  15.475  0.1787 -0.1385  0.2389
15111TIP3    H166824   1.350   1.666  15.558 -1.2108  0.9270 -0.7154
15111TIP3    H266825   1.428   1.718  15.439  0.8807 -0.6152 -0.0734
15112TIP3   OH266826   2.491   5.596  11.525 -0.0454  0.0182  0.0076
15112TIP3    H166827   2.580   5.632  11.522  0.1583 -0.5357 -1.3541
15112TIP3    H266828   2.478   5.573  11.617  1.5000 -0.5335  0.1201
15113TIP3   OH266829   5.707   6.397  13.511 -0.1045 -0.3690 -0.2407
15113TIP3    H166830   5.670   6.308  13.507  0.5456 -0.6703  0.2562
15113TIP3    H266831   5.631   6.454  13.522 -0.4569 -0.9629  0.5418
15114TIP3   OH266832   0.635   0.059   5.080  0.8642 -0.1244  0.9012
15114TIP3    H166833   0.573  -0.013   5.093 -0.8240  1.4382  2.0401
15114TIP3    H266834   0.693   0.056   5.156 -0.7649  1.1253  2.2737
15115TIP3   OH266835   0.186   4.352  13.310 -0.3482  0.0374 -0.3938
15115TIP3    H166836   0.200   4.444  13.330  1.1022 -0.0448 -0.9183
15115TIP3    H266837   0.180   4.349  13.215  1.8125 -0.6289 -0.5693
15116TIP3   OH266838   3.915   0.242  11.439  0.3941  0.0407 -0.1826
15116TIP3    H166839   3.889   0.241  11.531 -2.0331 -3.2401 -0.7177
15116TIP3    H266840   3.835   0.261  11.390  0.7960 -1.7413 -1.6791
15117TIP3   OH266841   3.491   6.302  15.559 -0.3249  0.6894  0.1794
15117TIP3    H166842   3.444   6.305  15.476  0.6075  1.2858 -0.3490
15117TIP3    H266843   3.552   6.229  15.550 -1.0637 -0.0169  0.8189
15118TIP3   OH266844   4.604   6.619  15.330 -0.3547  0.1212 -0.3169
15118TIP3    H166845   4.570   6.644  15.416  0.0376  0.1162 -0.1568
15118TIP3    H266846   4.655   6.540  15.347 -0.2478  0.1394 -0.5511
15119TIP3   OH266847   6.414   6.394  12.168  0.2642 -0.7809 -0.5838
15119TIP3    H166848   6.484   6.408  12.233 -0.1504 -2.1418  0.2046
15119TIP3    H266849   6.334   6.392  12.220  0.0712 -3.5337 -0.8393
15120TIP3   OH266850   2.295   4.541  13.092  0.2873 -0.6304  0.1409
15120TIP3    H166851   2.384   4.514  13.073  0.6813  0.9646 -0.4179
15120TIP3    H266852   2.305   4.618  13.148 -0.7602 -0.7203  0.4806
15121TIP3   OH266853   0.531   2.368   5.366 -0.6633  0.0012  0.2852
15121TIP3    H166854   0.599   2.364   5.433 -0.5349  1.2431  0.2467
15121TIP3    H266855   0.453   2.332   5.409 -0.1168 -0.9619  0.4861
15122TIP3   OH266856   0.889   0.878   3.493  0.6245  0.0014 -0.4588
15122TIP3    H166857   0.984   0.876   3.484  0.9425  2.7491  1.1586
15122TIP3    H266858   0.873   0.879   3.588 -0.9265  0.9552 -0.6837
15123TIP3   OH266859   1.371   2.817   6.422  0.6592  0.1378  0.2104
15123TIP3    H166860   1.340   2.779   6.340  0.6298  0.4934  0.0512
15123TIP3    H266861   1.292   2.847   6.466  0.7917  1.9106 -0.6319
15124TIP3   OH266862   5.111   1.534   4.556 -0.5336 -0.2439  0.7243
15124TIP3    H166863   5.035   1.591   4.542 -1.3376 -2.0480 -4.0534
15124TIP3    H266864   5.074   1.452   4.590 -0.9439 -1.2823 -2.0346
15125TIP3   OH266865   1.721   2.909  15.698  0.1370  0.1420 -0.2001
15125TIP3    H166866   1.668   2.988  15.692  1.9250  1.3825 -0.5499
15125TIP3    H266867   1.752   2.909  15.789  2.2974  1.3939 -0.8610
15126TIP3   OH266868   1.348   6.277  14.689 -0.5791  0.0550  0.7688
15126TIP3    H166869   1.321   6.367  14.704  0.6334  0.7562 -0.8751
15126TIP3    H266870   1.444   6.280  14.691 -0.5090 -1.0939  0.1522
15127TIP3   OH266871   2.737   5.143  16.632 -0.4686 -0.2866 -0.3696
15127TIP3    H166872   2.665   5.163  16.693  0.4188  0.7529  0.3907
15127TIP3    H266873   2.738   5.218  16.572 -2.4209 -2.0695 -2.8399
15128TIP3   OH266874   6.470   1.312  14.336 -0.7040 -0.0932 -0.3736
15128TIP3    H166875   6.565   1.309  14.349 -1.0047  0.0852  2.4044
15128TIP3    H266876   6.458   1.299  14.242  1.9742 -1.9533 -0.5433
15129TIP3   OH266877   3.855   5.163  11.243  0.5831  0.1702 -0.3215
15129TIP3    H166878   3.929   5.223  11.231  1.0429 -0.5203 -1.1089
15129TIP3    H266879   3.840   5.126  11.156 -2.7585  2.5704 -0.9651
15130TIP3   OH266880   4.616   4.568   5.808  0.2881 -0.6103 -0.5886
15130TIP3    H166881   4.596   4.544   5.899  0.2835 -0.0146 -0.4297
15130TIP3    H266882   4.655   4.489   5.770  0.1963 -0.8939 -0.0974
15131TIP3   OH266883   0.857   0.845   4.817  0.0425  0.5069 -0.1740
15131TIP3    H166884   0.950   0.821   4.811 -0.0170  0.4187 -0.8956
15131TIP3    H266885   0.829   0.851   4.726 -0.8503 -0.1937  0.0409
15132TIP3   OH266886   4.519   6.104   3.184  0.8560 -0.4803 -0.5189
15132TIP3    H166887   4.539   6.198   3.185 -1.2881  0.0395 -0.2109
15132TIP3    H266888   4.527   6.077   3.276  2.6585 -0.9218 -0.7754
15133TIP3   OH266889   1.942   0.510  14.696  0.2003  0.0796 -0.8901
15133TIP3    H166890   1.947   0.566  14.773  1.5194  0.7920 -1.4749
15133TIP3    H266891   1.905   0.565  14.628 -0.9261 -0.5377 -0.8018
15134TIP3   OH266892   3.780   1.003   2.184 -0.4846  0.2308 -0.3285
15134TIP3    H166893   3.753   1.054   2.107  0.9387  0.8047 -0.4797
15134TIP3    H266894   3.850   1.055   2.224  0.0369 -0.9312  0.3303
15135TIP3   OH266895   6.302   6.616   4.414 -0.0468  0.1106 -0.0515
15135TIP3    H166896   6.216   6.634   4.376  0.0055 -0.6726 -0.5577
15135TIP3    H266897   6.347   6.565   4.348  0.9356  0.7917  0.0767
15136TIP3   OH266898   6.344   4.403   3.103 -0.5298  0.0339  0.3382
15136TIP3    H166899   6.367   4.398   3.010  1.4564  0.2500  0.7589
15136TIP3    H266900   6.289   4.326   3.118  1.0007 -1.3184 -0.5527
15137TIP3   OH266901   3.804   2.049  11.472 -0.5474 -0.1850  0.5455
15137TIP3    H166902   3.748   1.992  11.419  0.7042 -1.3610  0.4267
15137TIP3    H266903   3.749   2.074  11.546 -1.4994 -0.5972  0.0065
15138TIP3   OH266904   1.559   4.209   1.952 -0.2989 -0.6349 -0.0133
15138TIP3    H166905   1.532   4.143   1.888 -2.0509  0.5971 -0.6406
15138TIP3    H266906   1.528   4.291   1.915 -0.1198  0.2804  1.7772
15139TIP3   OH266907   4.721   6.093  15.367 -0.2982 -0.4169 -0.2252
15139TIP3    H166908   4.662   6.135  15.305 -0.1517  0.4079  0.1742
15139TIP3    H266909   4.754   6.165  15.421  1.9642 -0.6438 -1.1616
15140TIP3   OH266910   5.706   4.962  14.157 -0.2038 -0.3660 -0.0738
15140TIP3    H166911   5.737   4.967  14.067 -1.8019  1.2017 -0.5876
15140TIP3    H266912   5.779   4.993  14.210  0.5565 -0.7926 -0.8472
15141TIP3   OH266913   3.418   1.111   0.435  0.3223  0.2308 -0.1404
15141TIP3    H166914   3.454   1.147   0.516  1.5117 -1.5875  0.1990
15141TIP3    H266915   3.324   1.101   0.453  0.3261  1.1518  0.4813
15142TIP3   OH266916   1.947   0.972  14.161 -0.0011  0.0601 -0.0151
15142TIP3    H166917   1.982   1.060  14.167 -0.8953  0.5895 -1.8861
15142TIP3    H266918   2.020   0.918  14.131  0.3523  0.2956  0.4222
15143TIP3   OH266919   3.540   6.768   1.671  0.0920  0.1830 -0.1011
15143TIP3    H166920   3.622   6.779   1.624  0.1743  1.6599  0.3302
15143TIP3    H266921   3.475   6.811   1.616 -0.1817  0.0482  0.1146
15144TIP3   OH266922   3.996   2.453  16.779 -0.0731 -0.4145 -0.5962
15144TIP3    H166923   4.059   2.416  16.840  0.6242  0.2029 -0.9337
15144TIP3    H266924   3.960   2.529  16.826  2.7800  2.0522 -2.0436
15145TIP3   OH266925   1.713   6.357   2.311  0.1112 -0.1819  0.0508
15145TIP3    H166926   1.704   6.261   2.317 -3.8646 -0.0138 -0.2929
15145TIP3    H266927   1.719   6.374   2.217 -3.0224 -0.1017 -0.2692
15146TIP3   OH266928   2.332   0.466  12.881  0.2117  0.5767 -0.1837
15146TIP3    H166929   2.412   0.508  12.849  1.6749 -2.4777 -0.8938
15146TIP3    H266930   2.269   0.479  12.811  1.2139 -0.0131 -1.2204
15147TIP3   OH266931   4.250   2.724   5.978  0.7179 -0.2662 -0.0193
15147TIP3    H166932   4.208   2.657   5.925  2.1018 -1.7415  0.6613
15147TIP3    H266933   4.193   2.801   5.970 -1.2016 -1.6676 -0.3896
15148TIP3   OH266934   5.033   1.636  13.644 -0.4867  0.2879 -0.2214
15148TIP3    H166935   5.092   1.687  13.588 -1.4407  0.2915 -1.2766
15148TIP3    H266936   4.964   1.606  13.585 -1.4361  0.1159  0.9205
15149TIP3   OH266937   1.376   5.464  16.505  0.6039 -0.0045 -0.8268
15149TIP3    H166938   1.294   5.431  16.467 -0.9271  0.4927  1.8254
15149TIP3    H266939   1.382   5.554  16.474  0.0704 -0.0041 -0.9374
15150TIP3   OH266940   4.548   1.145   5.644 -0.1184 -0.1958  0.3745
15150TIP3    H166941   4.585   1.224   5.682 -0.0739 -0.5917  1.1714
15150TIP3    H266942   4.487   1.176   5.577  0.9410  0.4810 -0.3060
15151TIP3   OH266943   3.791   3.932  15.537 -0.4445 -0.3524 -0.3590
15151TIP3    H166944   3.852   3.894  15.475  0.6415 -0.7624  0.9062
15151TIP3    H266945   3.777   3.862  15.602 -0.3737  0.5517  0.6505
15152TIP3   OH266946   2.839   4.688   0.625 -0.5069  0.0131  0.4655
15152TIP3    H166947   2.917   4.704   0.571 -1.4123  2.5308 -0.2018
15152TIP3    H266948   2.787   4.627   0.574  0.1459 -0.2029  0.0415
15153TIP3   OH266949   1.614   6.044  11.210 -0.3755  0.4678 -0.5155
15153TIP3    H166950   1.676   6.074  11.144 -0.2078  2.1886  0.3738
15153TIP3    H266951   1.657   6.061  11.293 -1.7829  1.1716  0.1137
15154TIP3   OH266952   5.839   1.521   2.508  0.2018 -0.2690  0.1249
15154TIP3    H166953   5.799   1.451   2.559 -1.3050  1.1441  0.9398
15154TIP3    H266954   5.766   1.563   2.462  1.0752  0.7504 -0.3868
15155TIP3   OH266955   1.180   4.475   3.134 -0.1700 -0.5489 -0.7948
15155TIP3    H166956   1.155   4.565   3.111 -1.8567 -0.4762  1.0376
15155TIP3    H266957   1.275   4.474   3.129  0.0726  2.0147  1.2448
15156TIP3   OH266958   0.447   3.336  13.137  0.4407 -0.2803 -0.1833
15156TIP3    H166959   0.514   3.372  13.196  0.8836 -0.2376 -0.7089
15156TIP3    H266960   0.443   3.243  13.159  2.0715 -0.6985 -1.4569
15157TIP3   OH266961   4.657   4.406   2.104  0.3505 -0.3021  0.1571
15157TIP3    H166962   4.723   4.475   2.098 -1.3656  1.5545  1.2275
15157TIP3    H266963   4.615   4.406   2.018 -0.6322  1.0908  0.6133
15158TIP3   OH266964   2.071   6.424  16.089  0.3386  0.2322  0.2588
15158TIP3    H166965   2.118   6.418  16.172  1.5046 -0.8101 -0.4451
15158TIP3    H266966   2.048   6.517  16.082  2.9076  0.9672  0.3506
15159TIP3   OH266967   5.157   4.700   5.430  0.2127  0.0629 -0.0901
15159TIP3    H166968   5.211   4.629   5.395  1.6818  0.0938  1.8686
15159TIP3    H266969   5.210   4.779   5.417 -1.0570  0.7142 -1.5348
15160TIP3   OH266970   5.885   0.148  13.832  0.5395  0.4269  0.1222
15160TIP3    H166971   5.908   0.058  13.856 -1.1412 -0.2272 -0.5577
15160TIP3    H266972   5.918   0.158  13.743 -2.6716 -0.9463 -1.3438
15161TIP3   OH266973   1.985   1.652   0.444 -0.0253 -0.4312 -0.3828
15161TIP3    H166974   2.067   1.685   0.409  1.3153 -0.6434  2.2510
15161TIP3    H266975   1.993   1.666   0.539 -2.2525 -2.1357  0.1366
15162TIP3   OH266976   2.797   1.044  14.429 -0.0662  0.0456 -0.2701
15162TIP3    H166977   2.876   1.077  14.387  0.4878  1.1305  1.5235
15162TIP3    H266978   2.725   1.077  14.376  0.6281  0.6684 -0.8396
15163TIP3   OH266979   0.774   0.476   5.402 -0.0090  0.9321 -0.6046
15163TIP3    H166980   0.764   0.537   5.476  2.5508 -0.6227  1.1790
15163TIP3    H266981   0.833   0.521   5.342  2.5884  0.0756  1.1158
15164TIP3   OH266982   2.117   1.396  15.376  0.2828  0.5117  0.1875
15164TIP3    H166983   2.181   1.459  15.343  0.4884  0.1586 -0.0934
15164TIP3    H266984   2.072   1.364  15.297 -1.7426  2.3316  0.5159
15165TIP3   OH266985   0.011   0.526   4.868  0.0446 -0.0572  0.4409
15165TIP3    H166986   0.062   0.604   4.893  1.6096 -1.2048  0.9853
15165TIP3    H266987  -0.054   0.517   4.938 -1.2709  1.6550 -0.4681
15166TIP3   OH266988   4.486   1.587   4.984 -0.6594  0.2125 -0.4591
15166TIP3    H166989   4.422   1.518   4.964 -0.5645 -0.0594  0.1721
15166TIP3    H266990   4.558   1.541   5.028 -0.8914  0.8082  0.5678
15167TIP3   OH266991   3.739   5.142  13.119  0.3783  0.1912  0.1018
15167TIP3    H166992   3.741   5.080  13.047 -0.7629  1.2370 -0.8804
15167TIP3    H266993   3.822   5.189  13.112 -0.0426  0.8053 -1.0369
15168TIP3   OH266994   0.759   3.592   2.095  0.5307  0.5150  0.2715
15168TIP3    H166995   0.692   3.567   2.031  0.1129  0.7470  0.6142
15168TIP3    H266996   0.838   3.606   2.042  0.4581 -0.3098 -0.0694
15169TIP3   OH266997   3.317   6.728  16.450 -0.7438  0.5285  0.0924
15169TIP3    H166998   3.245   6.790  16.466  0.0800  1.6253 -0.2914
15169TIP3    H266999   3.379   6.778  16.397  1.1320  0.2269  1.8828
15170TIP3   OH267000   3.825   5.710  14.609  0.2169  0.2603 -0.5789
15170TIP3    H167001   3.770   5.667  14.674 -1.0497 -0.7546 -2.2140
15170TIP3    H267002   3.913   5.708  14.646 -0.3637 -0.7817  0.8253
15171TIP3   OH267003   4.519   3.255  13.694 -0.4020  0.7425  0.3797
15171TIP3    H167004   4.548   3.336  13.736 -0.1150  0.0998  1.4691
15171TIP3    H267005   4.558   3.186  13.747 -0.0897 -0.1199 -0.9221
15172TIP3   OH267006   1.870   3.315   1.621  0.4758 -0.3573 -0.0488
15172TIP3    H167007   1.791   3.323   1.568  0.7906  2.5743 -0.2498
15172TIP3    H267008   1.839   3.319   1.711  0.2634 -1.4088 -0.0597
15173TIP3   OH267009   2.945   5.845  16.575  0.0692 -0.1442  0.2689
15173TIP3    H167010   2.883   5.867  16.506  0.5210 -1.1281 -0.4771
15173TIP3    H267011   3.030   5.837  16.530  0.2237 -1.6321  0.7634
15174TIP3   OH267012   1.472   1.876  11.259 -0.0547 -0.2099 -0.2715
15174TIP3    H167013   1.477   1.955  11.206 -2.0055  0.1130 -0.0620
15174TIP3    H267014   1.393   1.831  11.229 -1.4795  0.1803  2.5090
15175TIP3   OH267015   5.495   4.221  14.448  0.2620 -0.2132 -0.5096
15175TIP3    H167016   5.563   4.242  14.512 -0.4675  0.9421 -0.0701
15175TIP3    H267017   5.532   4.247  14.364  0.6045 -0.1993 -0.3548
15176TIP3   OH267018   0.309   3.936   4.777  0.3936  0.4827 -0.1601
15176TIP3    H167019   0.247   3.984   4.832 -0.5844 -2.0316  1.1073
15176TIP3    H267020   0.257   3.905   4.703  0.8743  0.8207 -0.6551
15177TIP3   OH267021   5.338   0.351   1.058 -0.9312  0.7618  0.0834
15177TIP3    H167022   5.419   0.391   1.091  0.2149 -0.8332 -0.6661
15177TIP3    H267023   5.295   0.315   1.135  1.8437 -3.1798  0.0787
15178TIP3   OH267024   0.132   6.638   5.147 -0.4560  0.1096 -0.1602
15178TIP3    H167025   0.139   6.563   5.207 -0.4729 -0.3108 -0.6702
15178TIP3    H267026   0.101   6.710   5.202  0.2006 -0.0834  0.4735
15179TIP3   OH267027   5.966   1.867  13.706  0.0848  0.2310 -0.7816
15179TIP3    H167028   5.957   1.781  13.665 -0.7659  1.2462 -2.8585
15179TIP3    H267029   5.885   1.879  13.755 -0.7050  0.6144 -2.1162
15180TIP3   OH267030   0.172   6.170   5.156  0.3461  0.4302  0.3139
15180TIP3    H167031   0.252   6.117   5.159  0.5387  0.7128  0.1811
15180TIP3    H267032   0.174   6.213   5.071  1.0044  1.8940  1.0399
15181TIP3   OH267033   4.511   2.473   6.930 -0.5573  0.3154 -0.8924
15181TIP3    H167034   4.564   2.551   6.916 -0.6889  0.5981  0.1072
15181TIP3    H267035   4.474   2.452   6.844  0.9465  0.2720 -1.5533
15182TIP3   OH267036   5.235   3.760  13.380  0.2792 -0.3813  0.7513
15182TIP3    H167037   5.220   3.723  13.293 -0.3851  0.7693  0.3593
15182TIP3    H267038   5.149   3.787  13.410  0.8990  2.2138  0.3805
15183TIP3   OH267039   3.749   4.202   5.049  0.1864  0.2193  0.6133
15183TIP3    H167040   3.693   4.155   4.986  0.0689  0.3123  0.6494
15183TIP3    H267041   3.688   4.240   5.112  0.2465  0.8444  0.3028
15184TIP3   OH267042   2.639   0.741  11.819 -0.4300  0.4566 -0.0061
15184TIP3    H167043   2.570   0.721  11.882  0.8043 -1.5476  0.8118
15184TIP3    H267044   2.707   0.784  11.870  0.7287 -1.4931  0.1833
15185TIP3   OH267045   3.187   2.553   5.438 -0.5074  0.1636  0.3038
15185TIP3    H167046   3.204   2.539   5.531 -1.0502 -2.0490  0.1113
15185TIP3    H267047   3.207   2.470   5.396 -1.5239  0.7068 -1.3835
15186TIP3   OH267048   0.145   5.844   5.149 -0.4048  0.2540 -0.3977
15186TIP3    H167049   0.106   5.891   5.075 -0.1148 -1.4444 -1.6919
15186TIP3    H267050   0.137   5.904   5.223 -2.4597  1.2662 -1.3604
15187TIP3   OH267051   3.983   4.579  15.341  0.4612  0.8058  0.1346
15187TIP3    H167052   4.068   4.606  15.374  0.4567 -0.9772  1.7569
15187TIP3    H267053   3.978   4.485  15.359 -0.4371  0.0872 -3.0972
15188TIP3   OH267054   1.341   3.087   6.598  0.5276  0.1763 -0.0630
15188TIP3    H167055   1.310   2.998   6.585  0.1406  0.1720  0.8268
15188TIP3    H267056   1.262   3.140   6.606  0.7547  0.5371 -0.1703
15189TIP3   OH267057   2.318   2.823   2.135 -0.0985  1.0094  0.3525
15189TIP3    H167058   2.274   2.811   2.219  0.9093  0.0175  0.7603
15189TIP3    H267059   2.324   2.735   2.098  1.3657  1.1376  0.2259
15190TIP3   OH267060   4.081   1.708  15.131  0.2452  0.1987 -0.1338
15190TIP3    H167061   4.019   1.636  15.144 -0.5132  1.0102  0.8714
15190TIP3    H267062   4.134   1.681  15.056  0.5063 -1.7643  0.6955
15191TIP3   OH267063   3.896   4.031   3.487  0.1869 -0.8973  0.1177
15191TIP3    H167064   3.928   4.042   3.576 -0.0208  0.2786  0.0645
15191TIP3    H267065   3.941   3.952   3.455  1.9995 -0.0588  0.4828
15192TIP3   OH267066   1.421   4.254   5.675 -0.7213  0.4464  0.6551
15192TIP3    H167067   1.515   4.244   5.689 -1.0692 -1.6269  2.0285
15192TIP3    H267068   1.396   4.328   5.730  0.3499  2.4251 -1.3433
15193TIP3   OH267069   1.959   1.023  14.931  0.6080 -1.1702  0.5830
15193TIP3    H167070   1.863   1.021  14.926  0.4948 -0.4206  1.9176
15193TIP3    H267071   1.977   1.080  15.005  2.0765 -2.2900  1.1298
15194TIP3   OH267072   3.000   3.880   4.740 -0.7570 -0.4632  0.1446
15194TIP3    H167073   3.005   3.789   4.769 -1.3568 -0.4872  0.1869
15194TIP3    H267074   2.963   3.927   4.815 -1.3633 -0.3544 -0.2138
15195TIP3   OH267075   1.458   0.454   4.199  0.1436  0.0255 -0.1056
15195TIP3    H167076   1.501   0.460   4.284  0.2213 -0.4743 -0.1079
15195TIP3    H267077   1.528   0.472   4.136  0.7324 -2.2270 -0.1804
15196TIP3   OH267078   2.939   0.654   1.553  0.6054  0.6668 -0.0173
15196TIP3    H167079   2.898   0.738   1.573  0.6952  0.7148 -0.0342
15196TIP3    H267080   2.925   0.643   1.459  0.4836  0.6038  0.0088
15197TIP3   OH267081   4.668   1.360  12.594  0.0143 -0.2009  0.1055
15197TIP3    H167082   4.628   1.443  12.568 -1.1352 -0.8468 -0.3117
15197TIP3    H267083   4.760   1.380  12.610  0.3608  0.6592 -2.5301
15198TIP3   OH267084   4.633   5.616   4.430  0.0725  0.3462  0.2120
15198TIP3    H167085   4.676   5.541   4.471  0.3491 -0.3380 -1.2851
15198TIP3    H267086   4.645   5.604   4.336 -2.6399  0.5628 -0.2697
15199TIP3   OH267087   2.658   2.725   1.737 -0.2965 -0.0756  0.4671
15199TIP3    H167088   2.604   2.701   1.662 -0.6944 -0.4461  0.8665
15199TIP3    H267089   2.748   2.721   1.704 -0.2166 -3.1552  0.7339
15200TIP3   OH267090   5.627   2.957  16.652 -0.1811 -0.4276 -0.8833
15200TIP3    H167091   5.624   2.949  16.747 -3.5520  1.8703 -0.6597
15200TIP3    H267092   5.575   3.035  16.632  1.1236 -0.3030 -4.5969
15201TIP3   OH267093   4.542   4.328   3.297  0.0580  0.3601  0.5913
15201TIP3    H167094   4.459   4.296   3.264 -0.6623  0.7833  1.9210
15201TIP3    H267095   4.523   4.417   3.327  1.0290  0.5246  0.7570
15202TIP3   OH267096   2.821   2.406  12.699  0.4913 -0.0808 -0.1157
15202TIP3    H167097   2.814   2.437  12.609  0.3049  1.2237  0.3271
15202TIP3    H267098   2.730   2.404  12.731  0.6135  0.1104  0.2488
15203TIP3   OH267099   5.702   3.010   5.879  0.1337 -0.1532 -0.5955
15203TIP3    H167100   5.709   3.105   5.893 -1.4068 -0.1606  0.4705
15203TIP3    H267101   5.789   2.976   5.901  0.2081  0.8343  0.7892
15204TIP3   OH267102   3.759   5.442   5.312  0.3911 -0.5147 -0.5794
15204TIP3    H167103   3.822   5.427   5.382 -0.6593 -0.8616  0.3284
15204TIP3    H267104   3.680   5.395   5.341 -0.4360  0.3033 -1.4407
15205TIP3   OH267105   4.133   3.035   2.610 -0.0908  0.1033 -0.6125
15205TIP3    H167106   4.077   2.997   2.678  1.0185  1.8573  1.3932
15205TIP3    H267107   4.081   3.106   2.573 -0.2672 -0.1152 -0.7847
15206TIP3   OH267108   2.859   0.544   4.461 -0.6864  0.3628  0.3646
15206TIP3    H167109   2.810   0.621   4.431 -1.2166 -0.2156 -0.2938
15206TIP3    H267110   2.882   0.564   4.551 -1.4072  1.0045  0.4179
15207TIP3   OH267111   1.799   5.121  14.577  0.3193 -0.4217  0.5374
15207TIP3    H167112   1.858   5.119  14.653  2.1033  0.8438 -0.7437
15207TIP3    H267113   1.843   5.178  14.514 -2.0798  0.2008 -0.6793
15208TIP3   OH267114   0.304   6.808  12.816 -0.3076  0.3026  0.4832
15208TIP3    H167115   0.257   6.740  12.767 -1.5111  0.6810  1.0532
15208TIP3    H267116   0.276   6.890  12.775  0.7159  0.4932  0.1449
15209TIP3   OH267117   5.821   0.313  16.294  0.0032 -0.5061  0.1185
15209TIP3    H167118   5.807   0.288  16.203 -1.7240 -1.3239  0.5816
15209TIP3    H267119   5.904   0.362  16.292 -0.3944  0.1905 -1.9977
15210TIP3   OH267120   2.459   2.362  16.414  0.1723  0.3821  0.2997
15210TIP3    H167121   2.383   2.418  16.403 -0.4031 -0.6541 -1.3483
15210TIP3    H267122   2.426   2.284  16.458  0.4244  0.2318  0.2285
15211TIP3   OH267123   3.192   4.784   4.171 -1.0677 -0.2733 -0.0093
15211TIP3    H167124   3.183   4.691   4.150 -2.1290 -0.2992  0.4692
15211TIP3    H267125   3.287   4.798   4.177 -0.8514 -1.0439 -1.2283
15212TIP3   OH267126   6.459   0.569  16.411  0.6750  0.1893 -0.4055
15212TIP3    H167127   6.455   0.664  16.409  0.8279  0.2791 -4.1092
15212TIP3    H267128   6.535   0.548  16.465  0.6698  2.1486  0.4152
15213TIP3   OH267129   1.497   5.753   4.054  0.3510 -0.5500  0.0469
15213TIP3    H167130   1.556   5.810   4.104 -0.5656  1.1546 -0.7542
15213TIP3    H267131   1.409   5.777   4.083 -0.1273 -0.4547 -1.3883
15214TIP3   OH267132   5.486   2.270   0.559 -0.9762  1.3190 -0.3146
15214TIP3    H167133   5.497   2.194   0.502  0.2004 -0.4304  2.0635
15214TIP3    H267134   5.575   2.302   0.574 -1.1707  1.2915  1.0577
15215TIP3   OH267135   0.067   2.722  16.450 -0.0382 -0.1116 -0.6109
15215TIP3    H167136   0.002   2.681  16.507 -0.0340 -0.6430 -0.9753
15215TIP3    H267137   0.146   2.728  16.504 -0.8425  2.1878  0.4424
15216TIP3   OH267138   1.313   0.194  10.896 -0.5061  0.0647  0.2891
15216TIP3    H167139   1.303   0.120  10.835  0.1810 -0.4960  0.8358
15216TIP3    H267140   1.373   0.254  10.852  1.3469 -1.1212  1.0610
15217TIP3   OH267141   1.355   5.251  17.141  0.2622 -0.3948 -0.0071
15217TIP3    H167142   1.270   5.241  17.183 -0.1470 -0.0089 -0.7094
15217TIP3    H267143   1.377   5.164  17.108 -1.6645  0.1158 -3.1034
15218TIP3   OH267144   2.584   6.769  11.987  0.2418 -0.0912 -0.2656
15218TIP3    H167145   2.658   6.828  11.974  0.4489 -0.6977 -1.9946
15218TIP3    H267146   2.511   6.827  12.009  0.8513  0.6533 -0.1900
15219TIP3   OH267147   2.591   5.496  13.785  0.1635  0.3423  0.3208
15219TIP3    H167148   2.588   5.555  13.860 -1.4488  0.5726  0.1107
15219TIP3    H267149   2.500   5.490  13.755  0.5225 -1.0285 -0.6177
15220TIP3   OH267150   6.628   4.327   1.575  0.0578  0.6392 -0.1359
15220TIP3    H167151   6.599   4.307   1.663  0.3503  0.1378 -0.1509
15220TIP3    H267152   6.647   4.242   1.535  1.2963  0.9265 -0.2088
15221TIP3   OH267153   2.866   5.470   0.230  0.1624 -0.2711  0.4149
15221TIP3    H167154   2.783   5.469   0.182  1.1879  2.1754 -1.6279
15221TIP3    H267155   2.848   5.524   0.307  0.0605  1.3149 -0.6512
15222TIP3   OH267156   2.113   1.799   2.383 -0.1023  0.0478  0.7130
15222TIP3    H167157   2.134   1.793   2.476  2.0196 -1.7759  0.2075
15222TIP3    H267158   2.190   1.841   2.344  0.6791 -2.4208 -0.6269
15223TIP3   OH267159   4.826   5.808  15.909 -0.1506  0.5586  0.0339
15223TIP3    H167160   4.832   5.771  15.821  0.6638  2.6762 -0.8617
15223TIP3    H267161   4.741   5.852  15.911 -0.9549 -0.9394  0.9685
15224TIP3   OH267162   3.065   3.796  12.245 -0.1612  0.6145  0.3227
15224TIP3    H167163   2.990   3.763  12.295 -1.5692  1.2389 -1.2947
15224TIP3    H267164   3.029   3.865  12.189  1.2515 -0.2260 -1.7634
15225TIP3   OH267165   0.978   4.096  15.752 -0.5436 -0.3640  0.6986
15225TIP3    H167166   1.026   4.170  15.714  0.3944 -0.5420  1.4798
15225TIP3    H267167   0.939   4.051  15.678  1.9440 -1.2149 -0.1837
15226TIP3   OH267168   2.543   4.171  10.394  0.6258  0.8424 -0.0730
15226TIP3    H167169   2.481   4.113  10.349  1.2296  0.5212 -0.4967
15226TIP3    H267170   2.514   4.260  10.371  0.2064  0.6976 -0.1062
15227TIP3   OH267171   3.896   0.856  16.525 -0.6851  0.0063 -0.0189
15227TIP3    H167172   3.865   0.942  16.496  1.5425  0.7086 -0.4626
15227TIP3    H267173   3.991   0.863  16.523 -0.3932 -2.9720 -1.5935
15228TIP3   OH267174   2.225   4.659  14.581 -0.8091  0.6190  0.0381
15228TIP3    H167175   2.154   4.605  14.547 -1.4401  1.1793  0.4272
15228TIP3    H267176   2.244   4.623  14.667 -0.0645 -0.0208 -0.3746
15229TIP3   OH267177   4.331   5.279   2.766  0.1778 -0.5347 -0.1112
15229TIP3    H167178   4.316   5.342   2.695  2.7681  0.2119 -0.1002
15229TIP3    H267179   4.274   5.309   2.837 -1.4917 -0.5358 -1.3688
15230TIP3   OH267180   3.077   6.548  12.907 -0.1358  0.4200  0.1294
15230TIP3    H167181   3.130   6.617  12.868 -0.3941  0.8164  0.4710
15230TIP3    H267182   3.116   6.467  12.874  0.3304  0.7182 -0.0714
15231TIP3   OH267183   4.363   3.116   3.605  0.3886 -0.4649 -0.1812
15231TIP3    H167184   4.379   3.105   3.699  1.5058 -0.6994 -0.3798
15231TIP3    H267185   4.299   3.048   3.584  0.2543 -0.5185  0.3842
15232TIP3   OH267186   3.777   5.385   4.814 -0.1111  0.4133  0.4601
15232TIP3    H167187   3.806   5.296   4.796 -0.2473  0.5366 -0.4217
15232TIP3    H267188   3.743   5.382   4.903  0.1848 -0.3386  0.5536
15233TIP3   OH267189   3.487   3.042  14.644 -0.7766  0.4421  0.3808
15233TIP3    H167190   3.575   3.011  14.625 -0.0602  3.0008 -0.9390
15233TIP3    H267191   3.430   2.983  14.594  0.3121 -0.1001 -0.2724
15234TIP3   OH267192   4.176   6.604   5.597 -0.0429  0.7198 -0.2583
15234TIP3    H167193   4.108   6.562   5.650  0.9680 -0.2982  0.2599
15234TIP3    H267194   4.161   6.572   5.508 -0.7015  1.1113 -0.2976
15235TIP3   OH267195   6.384   2.131  13.766  0.2761 -0.1243  0.4062
15235TIP3    H167196   6.435   2.096  13.838 -0.4914 -0.4303  0.8078
15235TIP3    H267197   6.449   2.176  13.711  1.2573 -1.9328  0.0017
15236TIP3   OH267198   2.743   5.019   2.732  0.3682  0.1268 -0.4331
15236TIP3    H167199   2.701   5.082   2.790  0.7531  1.6957 -1.7765
15236TIP3    H267200   2.698   5.032   2.648 -1.3666 -3.2350 -0.2210
15237TIP3   OH267201   2.244   6.781  13.507 -0.7848  0.5134  0.6104
15237TIP3    H167202   2.247   6.703  13.453 -0.0389  0.2069  1.0849
15237TIP3    H267203   2.168   6.830  13.474 -1.4051 -0.5127  0.4723
15238TIP3   OH267204   4.819   4.502   4.404  0.9758 -0.6271  0.3887
15238TIP3    H167205   4.728   4.517   4.380  1.1306 -0.1840  0.0699
15238TIP3    H267206   4.815   4.467   4.493  0.6407  2.1657  1.5697
15239TIP3   OH267207   1.799   3.522  12.619 -0.6215 -0.2044  0.4470
15239TIP3    H167208   1.762   3.501  12.705 -0.6471 -0.9531  0.2575
15239TIP3    H267209   1.893   3.520  12.633 -0.6291  0.4253  0.6286
15240TIP3   OH267210   1.105   2.034  11.925  0.8281 -0.1865  0.4941
15240TIP3    H167211   1.183   2.050  11.873  0.5029 -0.9100 -0.2540
15240TIP3    H267212   1.046   1.987  11.865 -0.0675  0.1052  1.1219
15241TIP3   OH267213   5.284   3.281   1.648 -0.4084 -0.1651 -0.2883
15241TIP3    H167214   5.212   3.343   1.637  0.3483  0.5449 -1.3722
15241TIP3    H267215   5.336   3.317   1.720  0.9467  1.4342 -1.9641
15242TIP3   OH267216   4.806   3.876  14.368 -0.1479  0.1288  0.4672
15242TIP3    H167217   4.723   3.917  14.341 -0.8058 -1.2574  0.2906
15242TIP3    H267218   4.780   3.796  14.412  1.1213 -0.7973 -0.3975
15243TIP3   OH267219   4.085   3.885  15.432  0.5631  0.0760  0.2163
15243TIP3    H167220   4.073   3.856  15.341 -0.3225 -0.3430  0.4560
15243TIP3    H267221   4.137   3.965  15.425 -0.8768  0.9664 -0.7812
15244TIP3   OH267222   0.094   3.133  15.575  0.3601  0.0419  0.2992
15244TIP3    H167223   0.139   3.209  15.538  0.2060  0.3831  0.7908
15244TIP3    H267224   0.072   3.160  15.665  0.7322 -0.7567  0.6430
15245TIP3   OH267225   5.036   3.144   5.012 -0.0987 -0.7726  0.2343
15245TIP3    H167226   5.004   3.227   5.049 -0.2307 -1.1487  0.9983
15245TIP3    H267227   4.979   3.127   4.938  1.0116  0.6884 -1.0372
15246TIP3   OH267228   1.908   6.604  14.141 -0.2888 -0.3102  0.6081
15246TIP3    H167229   1.933   6.512  14.149  1.3102  0.0636  0.2059
15246TIP3    H267230   1.942   6.631  14.056 -0.2624  0.8023  0.9651
15247TIP3   OH267231   5.386   4.406   3.116 -0.1838  0.5555 -0.3743
15247TIP3    H167232   5.342   4.448   3.042 -0.5306  2.5286  0.8575
15247TIP3    H267233   5.401   4.316   3.088 -2.0411  0.7126 -2.0942
15248TIP3   OH267234   6.435   1.507   3.725 -0.2620 -1.0039  0.0886
15248TIP3    H167235   6.460   1.470   3.641  0.1612  0.5847 -0.5171
15248TIP3    H267236   6.427   1.431   3.783  2.3700 -1.9099 -0.6041
15249TIP3   OH267237   5.242   4.013   3.428 -0.0572  0.2155 -0.4572
15249TIP3    H167238   5.295   4.093   3.427  0.3552 -0.0447 -0.1138
15249TIP3    H267239   5.306   3.943   3.444 -0.4856 -0.1251 -0.2324
15250TIP3   OH267240   4.870   1.988  11.531  0.5015 -0.1670  0.1695
15250TIP3    H167241   4.899   2.026  11.614  0.2886 -2.0378  1.1534
15250TIP3    H267242   4.949   1.983  11.478  0.6904  0.8138  0.3366
15251TIP3   OH267243   5.121   5.332   0.750 -0.2572  0.0254  0.2898
15251TIP3    H167244   5.136   5.315   0.657 -0.4087 -1.0142  0.4438
15251TIP3    H267245   5.040   5.383   0.752  0.8488  1.8757 -0.2600
15252TIP3   OH267246   2.535   3.521  16.929  0.3205 -0.0176  0.5588
15252TIP3    H167247   2.456   3.530  16.983 -0.4028 -1.7095 -0.1332
15252TIP3    H267248   2.573   3.609  16.927 -1.3765  0.7754  1.1733
15253TIP3   OH267249   2.742   0.136   5.206 -0.5258  0.5761  0.8720
15253TIP3    H167250   2.736   0.059   5.149  0.1520 -0.0570  1.6296
15253TIP3    H267251   2.796   0.198   5.158  1.0224 -0.3993  1.2590
15254TIP3   OH267252   0.231   3.488   1.847 -0.0207  0.0090 -0.0763
15254TIP3    H167253   0.203   3.572   1.810 -0.5922 -0.7668 -1.4877
15254TIP3    H267254   0.289   3.451   1.780  2.7720  0.6209  1.8530
15255TIP3   OH267255   3.551   6.258  14.600  0.6305 -0.2970 -0.2494
15255TIP3    H167256   3.527   6.327  14.662  0.7026 -0.8533  0.4172
15255TIP3    H267257   3.540   6.177  14.650  0.5316 -0.7674 -1.0245
15256TIP3   OH267258   1.796   5.920   1.371  0.1244  0.2456  0.0639
15256TIP3    H167259   1.890   5.922   1.356  0.2033 -0.4853  0.4405
15256TIP3    H267260   1.777   5.831   1.400 -0.5870  0.5437  0.5726
15257TIP3   OH267261   1.277   0.586  16.130  0.1223 -0.1176 -0.3658
15257TIP3    H167262   1.330   0.666  16.134  0.5767 -0.4237 -0.1508
15257TIP3    H267263   1.337   0.519  16.097  0.3591 -0.8468  1.4155
15258TIP3   OH267264   0.449   3.750  17.260  0.4732 -0.4061  0.1901
15258TIP3    H167265   0.378   3.804  17.295 -0.6914 -1.4729 -0.4377
15258TIP3    H267266   0.483   3.801  17.186  1.5999  0.9241  1.5550
15259TIP3   OH267267   0.044   6.622  12.405  0.6669 -0.1120 -0.6391
15259TIP3    H167268   0.003   6.618  12.319  1.1813 -0.8697 -0.8535
15259TIP3    H267269   0.135   6.595  12.390  0.1840 -2.6698  0.4961
15260TIP3   OH267270   6.752   4.221   0.865  0.0624 -0.1406 -0.1405
15260TIP3    H167271   6.796   4.257   0.788  0.8746  0.0989  0.4161
15260TIP3    H267272   6.660   4.243   0.853  0.1105 -0.4659 -1.2348
15261TIP3   OH267273   0.536   5.476   3.525 -0.2818 -0.6020  0.1749
15261TIP3    H167274   0.541   5.410   3.455  0.8622 -0.9005  0.5270
15261TIP3    H267275   0.606   5.537   3.506 -0.8397  0.0861  0.3006
15262TIP3   OH267276   3.872   2.492   4.291  0.1389 -0.1295  0.0963
15262TIP3    H167277   3.874   2.471   4.198  1.1153 -0.0078  0.0836
15262TIP3    H267278   3.892   2.410   4.335  1.6044  0.2148  0.1214
15263TIP3   OH267279   6.759   2.625  11.258  0.0105 -0.1955 -0.6621
15263TIP3    H167280   6.718   2.690  11.201  1.1580  1.5305  0.3836
15263TIP3    H267281   6.726   2.541  11.226 -0.1312  0.7425 -3.2540
15264TIP3   OH267282   6.346   4.319   1.514 -0.0909  0.6499 -0.0828
15264TIP3    H167283   6.326   4.231   1.545 -3.5495  1.6029  0.9001
15264TIP3    H267284   6.437   4.334   1.540  1.3685 -3.2746 -2.1932
15265TIP3   OH267285   4.227   0.131  15.003 -0.0177  0.3592 -0.2842
15265TIP3    H167286   4.198   0.114  15.093  0.2986  1.9893  0.1492
15265TIP3    H267287   4.163   0.085  14.948 -0.1367 -0.7799  0.7569
15266TIP3   OH267288   3.137   5.317   2.215 -0.2792  0.2361 -0.2527
15266TIP3    H167289   3.196   5.242   2.219 -3.3867 -2.4565 -0.7538
15266TIP3    H267290   3.176   5.375   2.149  0.9923 -2.1947 -1.7890
15267TIP3   OH267291   5.210   5.575   2.698 -0.5101 -0.6040 -0.3746
15267TIP3    H167292   5.217   5.621   2.782 -0.0375 -0.1043 -0.6868
15267TIP3    H267293   5.141   5.510   2.713 -1.7151  0.6747 -0.1456
15268TIP3   OH267294   0.255   2.720   1.309  0.0881  0.7985  0.1663
15268TIP3    H167295   0.214   2.646   1.265  2.4339 -0.6627  0.2520
15268TIP3    H267296   0.182   2.774   1.339 -1.6830 -0.8711 -0.9068
15269TIP3   OH267297   5.509   0.532  14.597  0.5183  0.6198  0.0005
15269TIP3    H167298   5.551   0.468  14.541  1.6014  0.3946  1.0400
15269TIP3    H267299   5.479   0.482  14.673  0.8752  1.2304  0.5583
15270TIP3   OH267300   5.251   6.678   2.207  0.1178 -0.0778  0.5361
15270TIP3    H167301   5.345   6.666   2.213  0.4900  2.0394 -0.2574
15270TIP3    H267302   5.229   6.737   2.279 -0.5283 -0.1738  0.4292
15271TIP3   OH267303   0.338   2.972  13.703  0.3553  0.1668  0.2713
15271TIP3    H167304   0.327   2.914  13.778 -0.2093 -0.8303 -0.5599
15271TIP3    H267305   0.421   2.944  13.663 -0.6753 -1.1955 -1.0433
15272TIP3   OH267306   0.639   2.355   6.155  0.1534 -0.3814 -0.5147
15272TIP3    H167307   0.563   2.335   6.100 -0.1879 -1.0608  0.1785
15272TIP3    H267308   0.603   2.365   6.243  0.5704  1.6105 -0.5355
15273TIP3   OH267309   2.233   1.470   6.338 -0.2358  0.3990  0.4781
15273TIP3    H167310   2.287   1.419   6.278  1.7135  1.0933  1.5667
15273TIP3    H267311   2.284   1.476   6.419 -1.9576  1.0840  1.5898
15274TIP3   OH267312   1.025   3.571  14.451  0.2654  0.1323 -0.4077
15274TIP3    H167313   0.933   3.547  14.445 -0.2986  2.1670 -0.7198
15274TIP3    H267314   1.025   3.656  14.494  1.8780  0.8415 -1.6737
15275TIP3   OH267315   1.569   0.907  12.170 -0.4528  0.2817 -0.5111
15275TIP3    H167316   1.528   0.909  12.083  2.1701  0.3681 -1.8404
15275TIP3    H267317   1.532   0.983  12.215 -1.0351  0.8957 -1.9652
15276TIP3   OH267318   3.251   6.328  12.804  0.3495  0.0377 -0.4867
15276TIP3    H167319   3.318   6.279  12.757 -1.9401 -1.4766 -2.4015
15276TIP3    H267320   3.185   6.348  12.737 -2.1129 -0.4245  1.6481
15277TIP3   OH267321   4.940   6.303  12.077 -0.2506 -0.1507  0.3115
15277TIP3    H167322   5.021   6.297  12.027 -0.5970 -1.3141 -0.1249
15277TIP3    H267323   4.878   6.245  12.032 -1.6836  1.5266 -0.0021
15278TIP3   OH267324   3.573   2.626   0.198 -0.7843 -0.0393 -0.4815
15278TIP3    H167325   3.664   2.655   0.192 -0.7045  0.5867  2.2619
15278TIP3    H267326   3.535   2.683   0.265 -2.8303 -1.1890 -0.5946
15279TIP3   OH267327   5.844   2.058   6.551 -0.8409  0.2743  0.6101
15279TIP3    H167328   5.750   2.060   6.564 -0.8449  1.3184  0.4633
15279TIP3    H267329   5.861   2.124   6.484 -0.1728 -0.9535 -0.4776
15280TIP3   OH267330   5.146   1.926  11.345 -0.0130  0.8398  0.0795
15280TIP3    H167331   5.114   1.915  11.255  1.2560 -2.1746 -0.1020
15280TIP3    H267332   5.234   1.963  11.334  0.7549 -0.9462 -0.0680
15281TIP3   OH267333   5.696   1.220  15.483 -0.0588 -0.3380 -0.1034
15281TIP3    H167334   5.646   1.289  15.527 -0.9901 -0.6867 -0.5797
15281TIP3    H267335   5.699   1.148  15.546  1.8787  0.5050  0.8352
15282TIP3   OH267336   5.456   6.463   5.561 -0.1472  0.4107  0.3865
15282TIP3    H167337   5.386   6.497   5.506 -0.1238 -0.1877 -0.0281
15282TIP3    H267338   5.487   6.384   5.515  0.5067  0.4272  0.7776
15283TIP3   OH267339   5.967   4.156   4.414  0.3834  0.7500  0.0629
15283TIP3    H167340   5.990   4.176   4.505  1.2605  0.4516 -0.0849
15283TIP3    H267341   5.875   4.182   4.406  0.3035  0.7911  1.0295
15284TIP3   OH267342   0.307   5.642   2.578 -0.5894  0.4524  0.4566
15284TIP3    H167343   0.251   5.710   2.615  1.0563  2.1628 -0.0439
15284TIP3    H267344   0.393   5.683   2.570  0.2992 -1.4693 -0.5627
15285TIP3   OH267345   2.899   5.129   1.429  0.5852 -0.7913 -0.0992
15285TIP3    H167346   2.971   5.071   1.402 -1.0581 -2.6280 -0.7955
15285TIP3    H267347   2.829   5.109   1.367 -0.5744  0.8850  0.6148
15286TIP3   OH267348   5.208   6.523   3.156 -0.0811  0.3760 -0.0988
15286TIP3    H167349   5.269   6.589   3.189  0.7890 -1.9307  3.5119
15286TIP3    H267350   5.133   6.530   3.215 -1.5250  0.3504 -1.8489
15287TIP3   OH267351   4.455   1.741   5.642  0.1512  0.4465 -0.3583
15287TIP3    H167352   4.376   1.715   5.689  0.0229 -1.9324 -1.7893
15287TIP3    H267353   4.525   1.731   5.707 -0.3811  0.0572  0.1685
15288TIP3   OH267354   3.207   3.380   4.214  0.2549 -0.2695  0.5538
15288TIP3    H167355   3.158   3.462   4.217 -0.2722 -0.5946  1.0287
15288TIP3    H267356   3.173   3.334   4.137  0.9998  0.2292 -0.0794
15289TIP3   OH267357   5.329   0.797   2.063  0.1417 -0.5882  0.2321
15289TIP3    H167358   5.259   0.788   2.128  0.1008  0.2667  0.3240
15289TIP3    H267359   5.392   0.856   2.105 -1.2918  2.5085 -1.5813
15290TIP3   OH267360   0.860   3.608   4.882  0.6628 -0.6109  0.5940
15290TIP3    H167361   0.947   3.606   4.921  0.5212 -0.4230  0.9185
15290TIP3    H267362   0.845   3.700   4.861 -0.0532 -0.4236  1.8742
15291TIP3   OH267363   1.876   1.330  12.972 -0.1619  0.1124  0.6428
15291TIP3    H167364   1.868   1.337  13.067  0.0129 -0.0744  0.6742
15291TIP3    H267365   1.789   1.350  12.938 -0.0370  0.9831  0.7960
15292TIP3   OH267366   1.400   4.400  15.845 -0.1683  0.0796 -0.0617
15292TIP3    H167367   1.305   4.397  15.840 -0.0982 -1.7029 -1.5200
15292TIP3    H267368   1.428   4.433  15.759  0.5157  0.7111  0.3944
15293TIP3   OH267369   3.485   0.861   3.989 -0.0063  0.5493 -0.2907
15293TIP3    H167370   3.489   0.952   4.019 -0.8290  0.4444  0.1840
15293TIP3    H267371   3.576   0.836   3.973  0.4946  0.6853  1.9667
15294TIP3   OH267372   0.668   0.163   0.520 -0.2544  0.0406  0.4347
15294TIP3    H167373   0.645   0.141   0.610 -0.7023 -0.4378  0.2042
15294TIP3    H267374   0.706   0.251   0.526 -0.7470  0.2173  1.0217
15295TIP3   OH267375   6.248   4.363   4.471 -0.0166  0.8143  0.6043
15295TIP3    H167376   6.236   4.288   4.529 -0.4433  1.4482  1.3724
15295TIP3    H267377   6.337   4.355   4.438  0.1467  0.3000  1.1563
15296TIP3   OH267378   6.260   3.172  17.282 -0.1004 -0.1961 -0.0231
15296TIP3    H167379   6.238   3.080  17.293  2.7165 -1.2121 -1.8341
15296TIP3    H267380   6.347   3.172  17.241  0.0494  3.2731 -0.0490
15297TIP3   OH267381   6.559   5.994   0.774 -0.0123  0.5870 -0.7200
15297TIP3    H167382   6.605   6.064   0.729 -1.4989  1.6973 -0.6065
15297TIP3    H267383   6.469   6.000   0.742 -0.4750 -0.4115  0.2898
15298TIP3   OH267384   6.276   3.843  11.460 -0.2236  0.1837 -0.1808
15298TIP3    H167385   6.331   3.768  11.435 -1.0035 -0.8278  0.9959
15298TIP3    H267386   6.263   3.892  11.379  0.2717 -0.9914 -0.9935
15299TIP3   OH267387   0.015   5.316  15.663 -0.1335 -0.4543 -0.1245
15299TIP3    H167388   0.083   5.281  15.605 -0.1410  0.1503 -0.5071
15299TIP3    H267389  -0.041   5.240  15.682  0.3595 -0.8459 -0.2124
15300TIP3   OH267390   1.476   3.158   6.329 -0.5497 -0.5315  0.5472
15300TIP3    H167391   1.562   3.151   6.370 -0.9869 -1.1664  1.3806
15300TIP3    H267392   1.415   3.126   6.395 -1.1737 -2.8161 -0.9967
15301TIP3   OH267393   0.186   1.803   4.833 -0.3106 -0.2106 -0.1802
15301TIP3    H167394   0.148   1.886   4.860 -0.1603  0.0497 -0.7479
15301TIP3    H267395   0.112   1.750   4.804 -0.2279  0.4221 -1.6179
15302TIP3   OH267396   4.603   5.228   2.887  0.3014 -0.1079 -0.8556
15302TIP3    H167397   4.538   5.263   2.825 -1.1391 -1.5253 -0.2248
15302TIP3    H267398   4.551   5.178   2.950  2.0235 -1.2969 -0.3039
15303TIP3   OH267399   6.619   3.067   0.962 -0.2632  0.6906  0.4081
15303TIP3    H167400   6.639   3.086   0.871 -2.4082  0.9968 -0.0542
15303TIP3    H267401   6.589   2.976   0.961  0.7210  0.3424  1.0104
15304TIP3   OH267402   4.423   4.352  16.584 -0.5069  0.0207  0.4466
15304TIP3    H167403   4.339   4.393  16.563 -0.1371  1.6888  2.0142
15304TIP3    H267404   4.475   4.422  16.624  1.4849 -1.0843 -0.0745
15305TIP3   OH267405   0.684   5.016   6.209  0.5511  0.5011  0.0827
15305TIP3    H167406   0.702   5.085   6.273  1.7981  0.5806 -0.3264
15305TIP3    H267407   0.753   5.025   6.144 -0.7674  0.5254 -1.3906
15306TIP3   OH267408   1.229   2.301  14.902 -0.0075  0.0464  0.0676
15306TIP3    H167409   1.288   2.376  14.896 -1.0341  0.7838 -2.0491
15306TIP3    H267410   1.191   2.307  14.990  0.7252  1.3980  0.3197
15307TIP3   OH267411   4.054   4.778  14.425  0.2046 -0.3147 -0.1603
15307TIP3    H167412   4.123   4.841  14.406  0.9239 -1.0320  0.0622
15307TIP3    H267413   4.088   4.726  14.497 -1.4551  0.7314  1.4828
15308TIP3   OH267414   6.447   0.279   3.490  0.3568  0.3199  0.2797
15308TIP3    H167415   6.518   0.333   3.454 -0.0167  0.4625 -0.2425
15308TIP3    H267416   6.445   0.201   3.434 -1.2669  1.2539 -1.0171
15309TIP3   OH267417   4.457   1.497   0.647 -0.8210 -0.4103  0.0439
15309TIP3    H167418   4.495   1.552   0.578 -1.6743  1.5304  1.0743
15309TIP3    H267419   4.532   1.447   0.681  0.1262  0.6605 -0.4004
15310TIP3   OH267420   1.488   4.976   3.423  0.2076  0.5991 -0.4076
15310TIP3    H167421   1.423   4.934   3.367 -0.5419 -0.7470  1.3818
15310TIP3    H267422   1.528   4.903   3.471 -0.3681  1.7883  2.0179
15311TIP3   OH267423   0.465   3.653  15.231 -0.6033  0.4627 -0.2021
15311TIP3    H167424   0.415   3.588  15.182  2.4904 -0.6199 -2.1629
15311TIP3    H267425   0.462   3.732  15.176  0.1085  0.2893 -0.4907
15312TIP3   OH267426   3.342   2.591   3.858  0.3628  0.1558 -0.2031
15312TIP3    H167427   3.323   2.511   3.809 -0.8591 -0.9194  1.8997
15312TIP3    H267428   3.418   2.629   3.813 -0.9125 -0.4938 -3.1529
15313TIP3   OH267429   2.443   2.764   4.665  0.8349  0.0877 -0.1343
15313TIP3    H167430   2.410   2.787   4.752 -1.6617  0.0858 -0.9985
15313TIP3    H267431   2.432   2.669   4.659  0.9566  0.0946 -0.4670
15314TIP3   OH267432   5.591   4.470   0.589 -0.1183 -0.3091 -0.3057
15314TIP3    H167433   5.671   4.417   0.581  0.2404 -0.0784  1.3732
15314TIP3    H267434   5.620   4.560   0.571 -0.2959 -0.4139 -1.1110
15315TIP3   OH267435   5.693   2.145  16.942 -0.3421  0.1081  0.1656
15315TIP3    H167436   5.623   2.211  16.948 -0.0940  0.5117 -1.0347
15315TIP3    H267437   5.705   2.132  16.848 -2.2713 -3.7071  0.2425
15316TIP3   OH267438   5.891   2.227   1.063  0.5814  0.3012  0.4084
15316TIP3    H167439   5.860   2.159   1.003  0.8495  0.3846  0.1746
15316TIP3    H267440   5.811   2.270   1.093  0.2589 -1.2301  1.9053
15317TIP3   OH267441   2.193   4.150   1.548  0.6078  0.3416 -0.3204
15317TIP3    H167442   2.187   4.071   1.602  1.4871  0.1958 -0.4303
15317TIP3    H267443   2.281   4.148   1.512  0.4556  1.1031 -0.7506
15318TIP3   OH267444   5.188   5.287   0.486 -0.2047 -0.2938  0.1365
15318TIP3    H167445   5.216   5.376   0.469 -0.7235  0.1953  1.6464
15318TIP3    H267446   5.239   5.233   0.426  2.1090  0.7739  1.0222
15319TIP3   OH267447   5.755   4.698  14.242 -0.3761  0.4197  0.2920
15319TIP3    H167448   5.718   4.783  14.217 -1.5394  0.2572  1.3487
15319TIP3    H267449   5.831   4.720  14.297 -0.9435  0.7998  0.9471
15320TIP3   OH267450   2.357   6.610   3.403  0.2213 -0.0921  0.2142
15320TIP3    H167451   2.420   6.650   3.463  0.0127 -0.5775  0.7732
15320TIP3    H267452   2.399   6.614   3.318  0.2371  1.2415  0.2580
15321TIP3   OH267453   3.443   2.337   3.375 -0.0736 -0.0237  0.1391
15321TIP3    H167454   3.489   2.416   3.347 -0.4332 -0.6454 -2.4715
15321TIP3    H267455   3.354   2.347   3.341 -0.3601 -1.1960  0.4847
15322TIP3   OH267456   3.025   6.524  17.179 -0.4097 -0.3066  0.5004
15322TIP3    H167457   3.046   6.470  17.103 -0.8339  1.4268 -0.9419
15322TIP3    H267458   3.104   6.577  17.193 -1.1659  1.1455 -0.3873
15323TIP3   OH267459   5.759   3.899   4.415 -0.1804  0.4900  0.0540
15323TIP3    H167460   5.854   3.899   4.401 -0.2249  0.3988 -0.2580
15323TIP3    H267461   5.743   3.824   4.471 -0.1374  0.1500 -0.3844
15324TIP3   OH267462   1.262   0.069  16.043 -0.4043  0.3827 -0.3931
15324TIP3    H167463   1.358   0.073  16.048 -0.4123 -0.4458  1.2480
15324TIP3    H267464   1.235   0.158  16.024  0.6649  0.8602  0.2470
15325TIP3   OH267465   2.978   2.665  14.254  0.9142  0.0726 -0.1836
15325TIP3    H167466   2.960   2.757  14.275 -0.2500  0.0747 -1.1124
15325TIP3    H267467   3.071   2.664  14.230  1.3932  0.6805  1.5049
15326TIP3   OH267468   4.000   1.117  14.872  0.2068  0.0032 -0.2815
15326TIP3    H167469   3.943   1.045  14.899  1.0096 -0.6144 -0.1796
15326TIP3    H267470   4.016   1.100  14.779  0.7989 -0.2375 -0.1377
15327TIP3   OH267471   6.645   3.424   5.026 -0.1140 -0.3546  0.5537
15327TIP3    H167472   6.732   3.386   5.020 -0.8405 -2.4926  2.1586
15327TIP3    H267473   6.593   3.359   5.073 -2.7514  0.5621 -0.8372
15328TIP3   OH267474   1.432   3.200   0.618 -0.0082  0.1887 -0.4437
15328TIP3    H167475   1.447   3.143   0.543 -0.8864  0.3350 -0.7533
15328TIP3    H267476   1.485   3.164   0.688  2.6899  1.3777 -1.7417
15329TIP3   OH267477   0.852   0.957   5.941  0.6746  0.1587  0.8031
15329TIP3    H167478   0.797   1.034   5.928  0.5721  0.0057  0.2898
15329TIP3    H267479   0.791   0.883   5.943  0.9799 -0.3739 -2.7942
15330TIP3   OH267480   3.334   4.532  12.737  0.5279 -0.2304 -0.4054
15330TIP3    H167481   3.375   4.613  12.710  1.1083 -0.6739 -0.8771
15330TIP3    H267482   3.401   4.487  12.789  0.0709 -0.2282  0.2003
15331TIP3   OH267483   4.403   6.154  11.565  0.3692  0.4543 -0.1101
15331TIP3    H167484   4.442   6.182  11.482  0.4892 -1.3215 -0.6804
15331TIP3    H267485   4.353   6.076  11.543  2.1196 -1.3237  1.8343
15332TIP3   OH267486   0.699   6.765  12.930 -0.4279 -0.1216 -0.0416
15332TIP3    H167487   0.673   6.687  12.979  0.3469  0.8493  2.0468
15332TIP3    H267488   0.641   6.834  12.963  0.2118  0.5852 -0.3646
15333TIP3   OH267489   5.808   3.185  16.899  0.1183 -0.2906 -0.2421
15333TIP3    H167490   5.747   3.248  16.939 -0.4025 -0.5419 -0.6236
15333TIP3    H267491   5.879   3.239  16.864 -0.9309  0.2346 -1.6686
15334TIP3   OH267492   0.607   2.355   3.038  0.0893  0.0667  0.6762
15334TIP3    H167493   0.609   2.353   3.133 -0.3490  0.7124  0.7013
15334TIP3    H267494   0.519   2.386   3.016 -1.0289 -3.1180  0.0188
15335TIP3   OH267495   3.072   4.532  12.434 -1.6134 -0.6818  0.0098
15335TIP3    H167496   3.092   4.447  12.473 -2.6465 -1.7132 -1.5398
15335TIP3    H267497   3.155   4.563  12.398 -1.4230 -1.5681 -0.3385
15336TIP3   OH267498   0.470   0.005  16.457 -0.2682  0.1260  0.4066
15336TIP3    H167499   0.382  -0.009  16.494 -0.8894  0.6005 -0.8222
15336TIP3    H267500   0.457   0.072  16.389  0.7981 -0.7759 -0.7272
15337TIP3   OH267501   2.173   6.733   6.104  0.3649  0.3851 -0.3722
15337TIP3    H167502   2.257   6.714   6.063  1.4313 -0.9081  2.1917
15337TIP3    H267503   2.190   6.806   6.162 -0.5733  0.8124 -0.6222
15338TIP3   OH267504   6.437   0.175   4.978 -0.3494  0.8079 -0.2705
15338TIP3    H167505   6.474   0.092   4.949  0.0529  0.1640  1.8745
15338TIP3    H267506   6.512   0.227   5.005 -0.6871  1.3788 -0.4155
15339TIP3   OH267507   1.434   4.283  11.579  0.3033  0.1428  0.1921
15339TIP3    H167508   1.516   4.300  11.624  0.0681 -1.0979  1.1579
15339TIP3    H267509   1.452   4.207  11.524 -0.5131 -0.9944  1.4339
15340TIP3   OH267510   4.775   3.243   4.347 -0.4780 -0.9578  0.3846
15340TIP3    H167511   4.865   3.217   4.365 -0.3560 -1.1239 -0.3978
15340TIP3    H267512   4.729   3.160   4.329 -0.5268 -0.7982 -0.2760
15341TIP3   OH267513   2.048   2.390  11.650  0.1698 -0.3631  0.0851
15341TIP3    H167514   2.129   2.351  11.681 -0.6858 -1.9105  0.5058
15341TIP3    H267515   2.076   2.461  11.592  1.9133 -2.7859 -2.3230
15342TIP3   OH267516   4.049   1.933   3.670 -0.5671 -0.1029 -0.2377
15342TIP3    H167517   4.019   1.857   3.719 -1.7261  0.2996 -0.2916
15342TIP3    H267518   4.140   1.946   3.699 -0.9358 -0.4112  1.1461
15343TIP3   OH267519   1.504   1.707  13.287 -0.3476  0.3643 -0.1834
15343TIP3    H167520   1.451   1.630  13.309  0.3560 -0.5988 -1.6937
15343TIP3    H267521   1.593   1.681  13.310 -0.1159  0.7385 -0.6501
15344TIP3   OH267522   6.578   0.255   1.707  0.2161  0.9961  0.4005
15344TIP3    H167523   6.648   0.320   1.698 -0.0635  1.4411  1.3191
15344TIP3    H267524   6.531   0.281   1.786 -1.6609  1.3382 -0.7530
15345TIP3   OH267525   0.775   6.394  12.614  0.1173 -0.2448 -0.6952
15345TIP3    H167526   0.719   6.318  12.603 -1.8680  0.8661  1.0921
15345TIP3    H267527   0.737   6.462  12.558  0.1727  0.2665 -0.1312
15346TIP3   OH267528   0.976   0.945  16.866 -0.3209 -0.1669  0.7822
15346TIP3    H167529   1.027   0.982  16.939  1.0155 -1.5223  0.5851
15346TIP3    H267530   0.900   1.002  16.859 -0.5505 -0.0235  3.3130
15347TIP3   OH267531   4.245   0.797   6.637 -0.0383  0.5145  0.4632
15347TIP3    H167532   4.285   0.731   6.694 -2.1097  0.0498  1.4903
15347TIP3    H267533   4.156   0.764   6.622  0.4401  0.5200 -3.2552
15348TIP3   OH267534   3.228   0.663   4.397 -0.2436  0.3325  0.1523
15348TIP3    H167535   3.193   0.734   4.452  0.2156  0.0275  0.8617
15348TIP3    H267536   3.227   0.698   4.308  0.1545  1.3070  0.5192
15349TIP3   OH267537   6.613   2.884  11.620 -0.2606 -0.1806  0.2386
15349TIP3    H167538   6.578   2.867  11.532 -0.7021  0.2536  0.3263
15349TIP3    H267539   6.543   2.858  11.679 -0.6120  1.0758  0.4018
15350TIP3   OH267540   5.501   2.807  13.084  0.2808  0.9157  0.0925
15350TIP3    H167541   5.552   2.867  13.029 -1.2639  2.6357  0.4409
15350TIP3    H267542   5.544   2.811  13.169  0.1202  1.6703  0.1487
15351TIP3   OH267543   6.480   3.945   5.624 -0.1245 -0.6283  0.1878
15351TIP3    H167544   6.448   3.858   5.600 -1.5973 -0.1533  0.3398
15351TIP3    H267545   6.404   3.989   5.660  0.8533  0.3931  1.0561
15352TIP3   OH267546   6.527   3.059  15.418  0.1331  0.3402  0.2963
15352TIP3    H167547   6.551   3.017  15.336 -0.7107  1.1104 -0.3699
15352TIP3    H267548   6.543   3.152  15.403  1.0086  0.3974  1.3931
15353TIP3   OH267549   0.342   0.858  14.899  0.0675  0.1784 -0.5394
15353TIP3    H167550   0.387   0.942  14.912 -0.5917  0.3574  0.7846
15353TIP3    H267551   0.250   0.878  14.917  0.0709 -1.0745  1.0569
15354TIP3   OH267552   5.656   6.109  15.855 -1.1514  0.0020 -0.4235
15354TIP3    H167553   5.733   6.155  15.821 -1.1847  0.0882 -0.3816
15354TIP3    H267554   5.637   6.043  15.788 -1.0530 -0.0063 -0.4431
15355TIP3   OH267555   3.563   3.054   0.476 -0.1252 -0.2326 -0.5262
15355TIP3    H167556   3.650   3.013   0.469  0.3596  0.8569 -1.1590
15355TIP3    H267557   3.502   2.987   0.444  0.5092 -0.9274 -0.3023
15356TIP3   OH267558   4.154   3.687  15.618 -0.2411  0.4169  0.5570
15356TIP3    H167559   4.160   3.721  15.707 -0.5166 -1.0714  1.1773
15356TIP3    H267560   4.107   3.754  15.569 -0.2687  1.1597  1.5868
15357TIP3   OH267561   1.625   5.181  16.409  0.3356  0.1754  0.2863
15357TIP3    H167562   1.565   5.190  16.335  1.1923 -0.7464 -0.5337
15357TIP3    H267563   1.701   5.235  16.386  0.7617 -0.3966  0.3152
15358TIP3   OH267564   6.724   2.920   3.420  0.3104 -0.2336  0.2127
15358TIP3    H167565   6.735   2.830   3.389 -1.3624 -0.5140  0.3141
15358TIP3    H267566   6.735   2.914   3.515  1.9778  0.0124  0.0617
15359TIP3   OH267567   1.091   5.685   0.847 -0.3473 -0.1369  0.2090
15359TIP3    H167568   1.134   5.770   0.842  1.1589 -0.7724  1.4905
15359TIP3    H267569   1.013   5.695   0.793  1.9163  0.7468 -3.2801
15360TIP3   OH267570   3.722   5.495   1.249 -0.0907  0.2239 -0.3303
15360TIP3    H167571   3.783   5.565   1.223 -0.8923  1.2873  0.5757
15360TIP3    H267572   3.753   5.418   1.201  2.0967  0.6751  0.2357
15361TIP3   OH267573   1.339   1.589  10.666  0.2619  0.9434  0.3652
15361TIP3    H167574   1.420   1.625  10.630  0.2865  0.9172  0.3944
15361TIP3    H267575   1.354   1.494  10.668  0.4774  0.9908  0.9855
15362TIP3   OH267576   6.695   3.914  13.827 -0.3302 -0.1409  0.6240
15362TIP3    H167577   6.724   3.974  13.895  0.5265 -1.5875  1.5775
15362TIP3    H267578   6.745   3.940  13.749  2.6349 -1.7021  1.8878
15363TIP3   OH267579   4.889   5.098  14.588 -0.4063 -0.9393  0.2046
15363TIP3    H167580   4.863   5.171  14.531  2.0571 -0.4595 -0.4287
15363TIP3    H267581   4.809   5.047  14.600 -2.2068  1.7775  0.5890
15364TIP3   OH267582   6.627   1.261  15.514 -0.4739 -0.1344 -0.2216
15364TIP3    H167583   6.534   1.239  15.523 -0.4648 -0.2157 -0.3383
15364TIP3    H267584   6.628   1.354  15.494 -0.4381  0.6881  2.9532
15365TIP3   OH267585   2.661   1.884   1.555 -0.0098  0.1258  0.2666
15365TIP3    H167586   2.713   1.891   1.475 -0.2944  1.4829  0.1723
15365TIP3    H267587   2.677   1.795   1.587  0.5375 -0.2505 -0.9953
15366TIP3   OH267588   1.535   4.417   1.785  0.0091 -0.4989  0.0103
15366TIP3    H167589   1.474   4.490   1.770 -0.1100 -0.8932 -1.6996
15366TIP3    H267590   1.621   4.452   1.759  0.0325 -0.8125 -0.3408
15367TIP3   OH267591   2.161   1.197  17.210 -0.3110  0.0707 -0.3804
15367TIP3    H167592   2.173   1.204  17.115 -0.3768  0.5199 -0.3579
15367TIP3    H267593   2.067   1.208  17.223 -0.4420 -1.0327 -0.3442
15368TIP3   OH267594   4.223   4.777   3.294 -0.2235 -0.3262 -0.0874
15368TIP3    H167595   4.131   4.806   3.291 -0.1775  0.0105  1.2357
15368TIP3    H267596   4.223   4.705   3.357  0.1721 -1.3906 -1.2520
15369TIP3   OH267597   0.717   4.902  14.505 -0.3047 -0.2687 -0.0398
15369TIP3    H167598   0.763   4.879  14.425  0.2966  0.3968  0.1008
15369TIP3    H267599   0.681   4.819  14.537 -1.7125 -0.3563 -1.6802
15370TIP3   OH267600   4.686   2.052   0.752  0.6293  0.3958  0.3328
15370TIP3    H167601   4.593   2.072   0.744  0.8390  0.6803 -2.1893
15370TIP3    H267602   4.689   1.963   0.785 -0.4588  1.1115  2.5730
15371TIP3   OH267603   4.732   1.047   0.706  0.0669  0.0444 -0.1210
15371TIP3    H167604   4.826   1.055   0.685 -0.0405  1.2834 -0.2027
15371TIP3    H267605   4.730   1.016   0.796  0.5506 -1.1739 -0.5197
15372TIP3   OH267606   2.287   2.327   5.829 -0.3950 -0.6096  0.4441
15372TIP3    H167607   2.300   2.234   5.811  0.4843 -1.4341  4.4875
15372TIP3    H267608   2.366   2.353   5.877 -0.4314  2.3928 -0.9246
15373TIP3   OH267609   2.191   6.587   3.810 -0.0846 -0.4290 -0.1058
15373TIP3    H167610   2.216   6.677   3.788  3.6623 -1.3931 -0.3769
15373TIP3    H267611   2.095   6.588   3.804 -0.2800  3.6315  0.4341
15374TIP3   OH267612   5.754   6.664   1.248  0.2613  0.2269  0.2286
15374TIP3    H167613   5.784   6.732   1.187  1.7150 -2.3799 -2.2061
15374TIP3    H267614   5.818   6.667   1.319  0.5058  1.1675 -0.0122
15375TIP3   OH267615   0.330   3.979  11.725 -0.1142 -0.6114  0.0783
15375TIP3    H167616   0.277   3.983  11.805  0.8981 -0.9815  0.7899
15375TIP3    H267617   0.286   4.038  11.664 -1.2421 -0.7816  0.7006
15376TIP3   OH267618   6.161   4.371  13.645 -0.4868 -0.1105  0.0362
15376TIP3    H167619   6.226   4.352  13.576 -1.2448 -0.1006 -0.6984
15376TIP3    H267620   6.119   4.287  13.661  0.7219 -0.4623  1.6194
15377TIP3   OH267621   4.913   6.323  13.474 -0.1525  0.5402  0.2163
15377TIP3    H167622   5.003   6.294  13.491  0.9223  1.7298 -2.7681
15377TIP3    H267623   4.862   6.287  13.547  2.7706  0.1285  2.2250
15378TIP3   OH267624   6.814   5.285   1.915 -0.5141  0.1188  0.7546
15378TIP3    H167625   6.725   5.253   1.904 -1.3323  2.2321  0.8013
15378TIP3    H267626   6.857   5.219   1.968 -1.3882 -2.0259 -1.0259
15379TIP3   OH267627   2.289   3.738   0.308  0.5952 -0.3795 -0.1581
15379TIP3    H167628   2.310   3.649   0.337  0.2797 -0.7096 -0.9067
15379TIP3    H267629   2.252   3.781   0.385  2.1186 -0.4138  0.6383
15380TIP3   OH267630   3.280   0.402  14.932 -0.3185 -0.9640 -0.3130
15380TIP3    H167631   3.221   0.399  15.008 -0.2452 -2.1589 -0.2907
15380TIP3    H267632   3.290   0.496  14.914  0.4179 -0.6065  1.7298
15381TIP3   OH267633   4.598   4.137   6.671  0.5380 -0.0322  0.3413
15381TIP3    H167634   4.668   4.200   6.689  0.8176 -0.7821  2.1329
15381TIP3    H267635   4.638   4.051   6.688  0.0297 -0.6958 -1.5610
15382TIP3   OH267636   6.064   4.733  14.307  0.6075  0.1255  0.0188
15382TIP3    H167637   6.055   4.828  14.304  0.4576  0.1310  0.6705
15382TIP3    H267638   6.081   4.709  14.216 -1.7013  0.5398 -0.6044
15383TIP3   OH267639   0.021   5.267  16.091  0.5580  0.6400 -0.4852
15383TIP3    H167640   0.050   5.338  16.147  1.3170 -0.5466  0.6812
15383TIP3    H267641   0.071   5.279  16.010  1.3970  0.8928  0.0519
15384TIP3   OH267642   6.212   4.030  12.361 -0.0041 -0.8769  0.2834
15384TIP3    H167643   6.225   3.939  12.387 -2.4835 -1.0451  1.2728
15384TIP3    H267644   6.224   4.031  12.266 -0.9728 -2.4976  0.1093
15385TIP3   OH267645   1.356   4.890  13.113 -0.0789  0.8471 -0.2065
15385TIP3    H167646   1.414   4.821  13.145  1.3245  1.8011 -0.6300
15385TIP3    H267647   1.325   4.934  13.193 -1.0941 -0.3021  0.0772
15386TIP3   OH267648   0.566   6.642   2.811  0.3629 -0.5847  0.0560
15386TIP3    H167649   0.580   6.674   2.722  1.3123  0.1596  0.4640
15386TIP3    H267650   0.653   6.641   2.850  0.0166 -1.3827  0.8260
15387TIP3   OH267651   1.630   6.045  11.664  0.3263  0.0906 -0.2582
15387TIP3    H167652   1.692   5.986  11.707 -0.7890 -0.7711  0.2529
15387TIP3    H267653   1.544   6.018  11.699 -0.3545  1.0762 -1.1102
15388TIP3   OH267654   3.675   6.395   2.385 -0.2121  0.4588 -0.1056
15388TIP3    H167655   3.681   6.305   2.354 -0.2347 -0.1349  1.5150
15388TIP3    H267656   3.764   6.430   2.375 -0.0454  0.0325 -0.1368
15389TIP3   OH267657   4.965   1.566   2.447  0.0478 -0.5023 -0.0485
15389TIP3    H167658   4.931   1.486   2.489 -0.6410  0.2100  0.7947
15389TIP3    H267659   4.940   1.557   2.355 -3.1791  0.2833  0.6292
15390TIP3   OH267660   0.533   0.937   3.954 -0.2486 -0.0527 -0.0949
15390TIP3    H167661   0.619   0.900   3.973  0.3835  1.1029 -0.6173
15390TIP3    H267662   0.495   0.876   3.890 -0.0408 -0.8372  0.5096
15391TIP3   OH267663   0.925   0.811  16.353  0.1303  0.8593  0.4536
15391TIP3    H167664   0.927   0.887  16.294 -1.6183  0.3020 -0.4013
15391TIP3    H267665   0.956   0.845  16.437  0.9826  2.1053 -0.3197
15392TIP3   OH267666   3.769   3.511   3.427 -0.8048 -0.1336  0.4681
15392TIP3    H167667   3.749   3.596   3.389 -0.6580 -0.7687 -1.1120
15392TIP3    H267668   3.737   3.448   3.362 -0.2389 -1.2718  1.2610
15393TIP3   OH267669   6.314   3.011   1.089 -0.4418  0.5749  0.2586
15393TIP3    H167670   6.270   3.094   1.107 -0.5560  0.5982 -0.1067
15393TIP3    H267671   6.375   3.000   1.162 -0.7118  0.7795  0.5212
15394TIP3   OH267672   4.694   2.116   1.037 -0.0493 -0.5882  0.2039
15394TIP3    H167673   4.774   2.091   0.991  0.3968  0.0847  0.5889
15394TIP3    H267674   4.686   2.211   1.022 -0.7090 -0.6229  0.2725
15395TIP3   OH267675   4.650   3.732   3.077 -0.3680  0.0790  0.1912
15395TIP3    H167676   4.657   3.638   3.061 -1.5140  0.2163 -1.3513
15395TIP3    H267677   4.716   3.771   3.019 -0.3443  0.2468  0.3330
15396TIP3   OH267678   2.797   4.197   5.100 -0.7023  0.4633 -0.3229
15396TIP3    H167679   2.722   4.229   5.049 -0.9541 -1.0009 -0.9158
15396TIP3    H267680   2.801   4.104   5.080  0.7410  0.3500  0.4111
15397TIP3   OH267681   5.072   6.824   4.917 -0.3005 -0.4610  0.7388
15397TIP3    H167682   5.156   6.819   4.963 -1.3147 -3.8748  2.5743
15397TIP3    H267683   5.094   6.801   4.826  0.9919  0.9908  0.6370
15398TIP3   OH267684   5.496   4.150   2.959  0.0442 -0.1663 -0.3249
15398TIP3    H167685   5.553   4.207   2.907  0.2350 -0.7669 -0.7845
15398TIP3    H267686   5.555   4.105   3.019  0.0131 -0.5420 -0.5730
15399TIP3   OH267687   0.007   6.360  14.818 -0.3660 -0.2851  0.3517
15399TIP3    H167688   0.012   6.386  14.726  0.1779  1.0812  0.7403
15399TIP3    H267689   0.080   6.300  14.831  0.4341  0.6222  0.1992
15400TIP3   OH267690   1.222   3.299   0.464  0.7658  0.0150 -0.3905
15400TIP3    H167691   1.231   3.262   0.376 -0.1959 -0.2970 -0.3735
15400TIP3    H267692   1.289   3.254   0.515  1.7488  0.6419 -1.0857
15401TIP3   OH267693   4.745   0.282  11.343  0.0508  0.4059  0.6934
15401TIP3    H167694   4.799   0.334  11.285 -0.0159  1.9609  1.9770
15401TIP3    H267695   4.665   0.266  11.292  0.9797 -0.4892 -0.5735
15402TIP3   OH267696   5.957   5.442  16.491 -0.0348 -0.3052  0.7370
15402TIP3    H167697   5.879   5.410  16.444  0.4228 -0.1778 -0.1327
15402TIP3    H267698   6.003   5.362  16.517  1.8841 -0.5360 -2.7298
15403TIP3   OH267699   2.102   6.624  11.030  0.0600 -0.1184 -0.2036
15403TIP3    H167700   2.074   6.558  10.967  0.5942  0.3731 -0.9651
15403TIP3    H267701   2.082   6.708  10.989 -0.0251  0.2023  0.4796
15404TIP3   OH267702   4.609   1.685   6.312  0.1633  0.8852  0.2385
15404TIP3    H167703   4.616   1.590   6.323  1.3812  0.8099 -0.9117
15404TIP3    H267704   4.537   1.711   6.369 -0.3429 -0.7623  0.3852
15405TIP3   OH267705   3.116   3.430  10.524  0.3876  0.4948  0.1758
15405TIP3    H167706   3.107   3.339  10.552  0.1464  0.1042 -1.0982
15405TIP3    H267707   3.192   3.430  10.467 -0.7336  0.6596 -1.3904
15406TIP3   OH267708   1.241   3.750   0.136 -0.3316 -0.7696 -0.2117
15406TIP3    H167709   1.165   3.733   0.080  1.0343  0.3442 -2.5846
15406TIP3    H267710   1.205   3.796   0.212 -1.8881  1.7060 -2.2541
15407TIP3   OH267711   2.567   3.859  12.282 -0.1491 -0.4486  0.3307
15407TIP3    H167712   2.615   3.800  12.224  1.5114 -0.9597  2.1342
15407TIP3    H267713   2.484   3.814  12.298  0.2590 -1.3142  0.0725
15408TIP3   OH267714   3.923   2.815  13.361  0.0345 -0.5307  0.2910
15408TIP3    H167715   3.834   2.787  13.337 -0.5322  0.4615  1.1730
15408TIP3    H267716   3.958   2.741  13.411 -0.4631 -0.7395  0.3378
15409TIP3   OH267717   3.839   0.027   4.254 -0.2421  0.1380 -0.2345
15409TIP3    H167718   3.774   0.096   4.242 -0.9741 -0.4505  0.2641
15409TIP3    H267719   3.801  -0.031   4.320  0.9064 -0.0759  0.2660
15410TIP3   OH267720   2.765   3.569   0.349 -0.3609  0.0381 -0.5675
15410TIP3    H167721   2.756   3.664   0.339 -1.4215 -0.0278 -0.4071
15410TIP3    H267722   2.700   3.532   0.289  0.7682 -0.6254 -1.4082
15411TIP3   OH267723   2.699   2.108  15.775  0.4364 -0.4597  0.6387
15411TIP3    H167724   2.689   2.203  15.778  1.1094 -0.3824  0.4972
15411TIP3    H267725   2.620   2.077  15.729  0.8123  0.1365 -0.4528
15412TIP3   OH267726   4.928   1.532   2.166  0.1104  0.2842 -0.3037
15412TIP3    H167727   5.003   1.562   2.115 -1.4765  0.7504 -2.4935
15412TIP3    H267728   4.904   1.449   2.126 -0.2688 -0.0904  0.6865
15413TIP3   OH267729   4.771   5.584   4.184  0.2388 -0.0482  0.4709
15413TIP3    H167730   4.836   5.514   4.178  0.4896 -0.1462  3.1417
15413TIP3    H267731   4.820   5.664   4.170  0.5561 -0.2349  0.5048
15414TIP3   OH267732   2.560   1.341   0.965 -0.0562 -0.4321  0.0682
15414TIP3    H167733   2.535   1.301   1.048  0.5863 -1.3173 -0.1578
15414TIP3    H267734   2.624   1.408   0.990  2.0468 -2.3746  0.0912
15415TIP3   OH267735   6.260   4.826  12.950 -0.2287 -0.3357  0.3789
15415TIP3    H167736   6.274   4.876  12.869  0.2814 -0.6114  0.2912
15415TIP3    H267737   6.344   4.782  12.965  0.1970  0.8520  1.8373
15416TIP3   OH267738   2.065   6.584  11.657  0.3107 -0.3368 -0.4445
15416TIP3    H167739   2.114   6.552  11.581 -0.9808 -3.5379 -0.0664
15416TIP3    H267740   2.124   6.569  11.731 -0.1680 -1.5972 -0.3072
15417TIP3   OH267741   0.190   4.040   2.237 -0.0542  0.5339 -0.1387
15417TIP3    H167742   0.189   4.104   2.165 -1.3041 -0.0369 -0.6601
15417TIP3    H267743   0.145   4.084   2.309 -2.5906 -0.3559 -1.0897
15418TIP3   OH267744   5.328   5.440  11.483  0.1390  0.4989 -0.1989
15418TIP3    H167745   5.269   5.498  11.435 -0.6934  0.1725  0.3948
15418TIP3    H267746   5.409   5.489  11.492 -0.4518  1.4508  0.0392
15419TIP3   OH267747   0.479   1.052  17.210  0.2401 -0.2308 -0.0420
15419TIP3    H167748   0.474   0.957  17.212  1.2108 -0.2978  1.9383
15419TIP3    H267749   0.395   1.080  17.175 -1.2405 -1.7856  1.9979
15420TIP3   OH267750   4.756   4.037  13.763  0.6615  0.4389 -0.3341
15420TIP3    H167751   4.840   4.009  13.728  1.2190  1.2380  0.3107
15420TIP3    H267752   4.699   3.961  13.755  1.0789  0.2753 -1.9324
15421TIP3   OH267753   3.788   2.027  14.974  0.1201 -0.1664  0.3597
15421TIP3    H167754   3.735   1.999  15.049 -1.0785 -0.0225 -0.4126
15421TIP3    H267755   3.810   1.945  14.929  0.9866 -0.2676  0.9486
15422TIP3   OH267756   4.450   1.496  14.258  0.4142 -0.6030  0.2766
15422TIP3    H167757   4.469   1.519  14.167 -0.7400 -3.7939 -0.9505
15422TIP3    H267758   4.358   1.521  14.270  0.6790  0.1838  0.7435
15423TIP3   OH267759   5.642   6.292   5.893 -0.5716 -0.2096  0.3488
15423TIP3    H167760   5.724   6.310   5.846 -1.0760  0.9179 -0.1447
15423TIP3    H267761   5.601   6.221   5.843 -2.4583  2.8059 -2.8007
15424TIP3   OH267762   0.731   2.005  12.042 -0.3372 -0.9260 -0.1823
15424TIP3    H167763   0.717   2.081  11.985 -0.8610  0.3480  1.5727
15424TIP3    H267764   0.814   2.022  12.085 -1.3446 -0.3566  1.6410
15425TIP3   OH267765   4.746   1.818  11.321  0.3923 -0.3867 -0.0794
15425TIP3    H167766   4.659   1.831  11.284  0.8249  2.3125 -0.3814
15425TIP3    H267767   4.801   1.881  11.274  2.2171 -1.0862  1.0375
15426TIP3   OH267768   2.745   5.155   2.088 -0.5012  0.0675 -0.6529
15426TIP3    H167769   2.731   5.127   2.178 -1.7981  2.9591  0.1523
15426TIP3    H267770   2.670   5.119   2.040 -1.4977  1.0488  0.1082
15427TIP3   OH267771   4.482   2.880   4.583 -0.0899 -0.0147 -0.6125
15427TIP3    H167772   4.389   2.888   4.564 -0.4757 -1.8567  0.2495
15427TIP3    H267773   4.489   2.802   4.638  2.0373 -0.3079 -1.1878
15428TIP3   OH267774   5.192   5.892   3.765 -0.1383 -0.2454  0.3072
15428TIP3    H167775   5.261   5.957   3.781 -0.8606  0.2012  1.8310
15428TIP3    H267776   5.116   5.926   3.812 -1.1809 -1.1210 -0.6927
15429TIP3   OH267777   5.244   3.962  15.395  0.1507 -0.1862 -0.1963
15429TIP3    H167778   5.284   3.975  15.309 -0.3882 -0.5822 -0.5140
15429TIP3    H267779   5.172   4.025  15.398  0.8796  0.6387  0.4401
15430TIP3   OH267780   1.999   0.639  13.675 -0.1923  0.0998  0.7348
15430TIP3    H167781   2.010   0.730  13.647 -0.4513  0.5653  2.0814
15430TIP3    H267782   2.079   0.618  13.722 -1.5648  0.8982  3.6584
15431TIP3   OH267783   1.187   3.701  17.028 -0.1809  0.4434 -0.1402
15431TIP3    H167784   1.211   3.648  16.951  0.9502 -1.3873  1.3811
15431TIP3    H267785   1.106   3.662  17.060  0.0705  0.3174  0.3559
15432TIP3   OH267786   2.381   2.953   3.881 -0.2603  0.0272 -0.4653
15432TIP3    H167787   2.403   3.020   3.817  1.8711  0.9438  1.0986
15432TIP3    H267788   2.288   2.967   3.900 -0.1884  1.6678 -1.1793
15433TIP3   OH267789   6.343   1.233   5.426 -0.2714  0.0069  0.5015
15433TIP3    H167790   6.366   1.308   5.371 -1.8526 -1.3421 -2.2351
15433TIP3    H267791   6.425   1.187   5.441  0.0672 -0.3458 -2.0606
15434TIP3   OH267792   0.309   1.231  10.651  0.3575 -0.0554 -0.1241
15434TIP3    H167793   0.299   1.136  10.642  0.3546 -0.0591 -0.0811
15434TIP3    H267794   0.271   1.250  10.737  1.5929 -0.1904  0.4631
15435TIP3   OH267795   2.943   4.195  11.153 -0.5906 -0.3023 -0.7004
15435TIP3    H167796   3.009   4.126  11.146 -1.1553 -0.6999 -3.3036
15435TIP3    H267797   2.899   4.195  11.067 -2.2858  1.6303  0.0732
15436TIP3   OH267798   1.817   0.173  15.407 -0.4708 -0.1834 -0.2242
15436TIP3    H167799   1.880   0.245  15.402  1.3578 -1.5974  1.1409
15436TIP3    H267800   1.853   0.107  15.348 -0.8717 -0.8604  0.2817
15437TIP3   OH267801   5.736   0.236  16.059  0.0978 -0.1160  0.4626
15437TIP3    H167802   5.655   0.282  16.040 -0.1382 -0.2037  1.2305
15437TIP3    H267803   5.750   0.178  15.984 -0.2521  0.3034  0.0727
15438TIP3   OH267804   0.486   1.106  13.572 -0.0994 -0.4235 -0.2641
15438TIP3    H167805   0.579   1.107  13.548 -0.2889  0.1026 -1.0383
15438TIP3    H267806   0.484   1.142  13.661  0.4736 -0.7870 -0.1010
15439TIP3   OH267807   5.106   6.320   4.219  0.3785  0.0436 -0.1601
15439TIP3    H167808   5.091   6.401   4.267 -0.4589 -1.0763  1.5903
15439TIP3    H267809   5.150   6.347   4.138  0.2144  2.1985  0.4161
15440TIP3   OH267810   0.464   1.061   2.511 -0.4387  0.0399  0.0509
15440TIP3    H167811   0.374   1.033   2.529 -0.4336 -0.8239 -1.1907
15440TIP3    H267812   0.478   1.041   2.419  1.2647 -0.4790  0.3874
15441TIP3   OH267813   3.905   2.173   3.157 -0.3070  0.0076  0.1077
15441TIP3    H167814   3.951   2.089   3.157 -0.4982 -0.1030 -0.8974
15441TIP3    H267815   3.942   2.220   3.082 -0.6481  0.5740  0.2938
15442TIP3   OH267816   0.868   0.894  15.276 -0.0016  0.3972 -0.1995
15442TIP3    H167817   0.837   0.858  15.193 -2.6197 -1.0363  1.2924
15442TIP3    H267818   0.788   0.912  15.326  1.4214  2.8092  1.4180
15443TIP3   OH267819   0.244   2.316  13.887  0.1514  0.4518 -0.8383
15443TIP3    H167820   0.231   2.307  13.792  1.9783  1.9336 -1.2818
15443TIP3    H267821   0.332   2.283  13.902  1.1693  3.1985 -0.2197
15444TIP3   OH267822   5.979   5.958   5.946 -0.2907  0.2746  0.3531
15444TIP3    H167823   5.889   5.966   5.978 -0.5959  1.1318 -0.6781
15444TIP3    H267824   5.972   5.972   5.852  0.8599 -0.2242  0.1786
15445TIP3   OH267825   1.799   5.959  14.977 -0.3549  0.0540 -0.4192
15445TIP3    H167826   1.832   5.940  15.065  0.3686  1.6025 -0.3170
15445TIP3    H267827   1.849   5.901  14.920 -0.5607 -0.7010  0.1468
15446TIP3   OH267828   5.919   3.683   3.087 -0.1505  0.0333  0.6036
15446TIP3    H167829   6.015   3.677   3.079 -0.0729 -3.2553  2.3916
15446TIP3    H267830   5.886   3.647   3.005  0.2095 -1.1466  0.9588
15447TIP3   OH267831   1.037   4.541   5.305  0.8480  0.3682  0.2496
15447TIP3    H167832   0.951   4.535   5.347 -0.4821 -0.8195 -2.3664
15447TIP3    H267833   1.084   4.464   5.337 -0.0287 -0.3632 -0.1435
15448TIP3   OH267834   6.243   2.256  12.286  0.3819 -0.0663  0.5567
15448TIP3    H167835   6.202   2.170  12.272  0.2765 -0.1213  1.1980
15448TIP3    H267836   6.233   2.272  12.379  1.6265  0.0297  0.6799
15449TIP3   OH267837   0.226   4.441  13.039  0.0926  0.6095  0.0975
15449TIP3    H167838   0.301   4.403  12.994  0.4628  0.9444  0.4226
15449TIP3    H267839   0.264   4.504  13.100 -0.5668  2.8194 -1.6533
15450TIP3   OH267840   0.995   6.407  14.270  0.0667 -0.2365  0.3992
15450TIP3    H167841   0.901   6.423  14.277  0.0384 -0.5858  0.9097
15450TIP3    H267842   1.015   6.415  14.177 -0.6737 -1.2576  0.1449
15451TIP3   OH267843   4.681   0.083   2.408 -0.1669 -0.4154 -0.6002
15451TIP3    H167844   4.642   0.148   2.350 -1.9742 -1.4605 -0.6305
15451TIP3    H267845   4.629   0.088   2.488  1.1787 -0.2153  0.2918
15452TIP3   OH267846   3.138   3.316   2.449 -0.5410  0.2857  0.2790
15452TIP3    H167847   3.099   3.263   2.518 -1.1083 -1.1345 -1.0730
15452TIP3    H267848   3.064   3.348   2.398 -0.1250  1.1990  0.2291
15453TIP3   OH267849   5.347   2.050  12.461 -0.4681  0.4267 -0.0665
15453TIP3    H167850   5.430   2.009  12.439  0.2683  1.1107  1.3225
15453TIP3    H267851   5.338   2.121  12.397 -0.2347  0.0453 -0.5283
15454TIP3   OH267852   1.684   0.524   1.339  0.5797  0.3475  0.2776
15454TIP3    H167853   1.624   0.482   1.278  1.5992 -0.7687  0.0020
15454TIP3    H267854   1.637   0.524   1.422 -0.8545  1.9631 -0.4837
15455TIP3   OH267855   2.765   1.293  14.212  0.0211 -0.4298  0.0066
15455TIP3    H167856   2.674   1.316  14.230  0.1505 -0.2921  0.5302
15455TIP3    H267857   2.816   1.356  14.264  0.4080 -0.6822 -0.0592
15456TIP3   OH267858   4.146   6.377   2.862  0.7826 -0.8912  0.1052
15456TIP3    H167859   4.176   6.356   2.950  3.2199 -2.2899 -0.9431
15456TIP3    H267860   4.194   6.316   2.805  0.5093  1.0022 -2.3254
15457TIP3   OH267861   3.906   4.685  11.701 -0.0053 -0.3811  0.2005
15457TIP3    H167862   3.874   4.715  11.616  1.1633  0.3150 -0.0127
15457TIP3    H267863   3.832   4.698  11.760 -0.9210 -1.1063 -0.7384
15458TIP3   OH267864   3.265   2.805   6.767 -0.2117  0.2056  0.3255
15458TIP3    H167865   3.312   2.800   6.683 -0.0690  0.7675  0.3689
15458TIP3    H267866   3.318   2.754   6.828 -0.9272 -1.2137 -0.1979
15459TIP3   OH267867   3.635   4.829   2.008 -0.4132  0.2702  0.2944
15459TIP3    H167868   3.661   4.812   1.918  0.3089  2.4953  0.0051
15459TIP3    H267869   3.714   4.812   2.060  0.3649  2.5211 -0.0157
15460TIP3   OH267870   0.670   2.950  11.722  0.0314  0.2450 -0.2513
15460TIP3    H167871   0.736   2.991  11.779 -1.2050  0.6053  0.9775
15460TIP3    H267872   0.590   2.952  11.774 -1.5717  2.0623 -2.6085
15461TIP3   OH267873   2.409   5.021  15.797  0.0250  1.3135  0.2038
15461TIP3    H167874   2.478   4.959  15.821 -1.3586 -0.8344 -0.9742
15461TIP3    H267875   2.426   5.039  15.704 -1.5949 -0.2356 -0.4632
15462TIP3   OH267876   2.843   5.468   0.654  0.6480 -0.2091 -0.1196
15462TIP3    H167877   2.878   5.385   0.687  0.9171  0.1652  0.5605
15462TIP3    H267878   2.891   5.535   0.704 -0.8758  0.3269  0.6756
15463TIP3   OH267879   0.042   2.711   6.582  0.0618 -0.6924 -0.1467
15463TIP3    H167880   0.062   2.621   6.608  1.1280 -0.2195  0.7298
15463TIP3    H267881   0.123   2.759   6.596 -0.0053  0.1025 -2.1182
15464TIP3   OH267882   3.308   0.878   5.302 -0.2706  0.3874  0.1392
15464TIP3    H167883   3.248   0.808   5.328  2.1907 -2.5376 -1.3477
15464TIP3    H267884   3.379   0.874   5.366 -0.3697  1.9781  0.3802
15465TIP3   OH267885   4.239   5.021  16.811  0.5103 -0.0945 -0.2577
15465TIP3    H167886   4.234   4.935  16.854  0.4895 -0.2572 -0.5830
15465TIP3    H267887   4.317   5.015  16.756  1.2958  0.5741  0.7395
15466TIP3   OH267888   2.134   0.264   1.101  0.8445  0.5266  0.0592
15466TIP3    H167889   2.064   0.326   1.117  0.5996 -0.1346  1.7694
15466TIP3    H267890   2.110   0.186   1.152  1.1793 -0.9577 -1.9450
15467TIP3   OH267891   5.063   6.731   3.707 -0.9122  0.1668 -0.1186
15467TIP3    H167892   4.969   6.713   3.708 -0.7609 -0.6677  1.6609
15467TIP3    H267893   5.070   6.822   3.680 -2.3087  0.5670  0.8063
15468TIP3   OH267894   3.170   1.135   5.486 -0.0132 -0.5044 -0.2710
15468TIP3    H167895   3.174   1.090   5.402 -1.7509 -1.5336  0.1430
15468TIP3    H267896   3.102   1.201   5.474  1.2716  0.8432 -0.3179
15469TIP3   OH267897   2.901   0.743  13.569 -0.3025 -0.0130 -0.3928
15469TIP3    H167898   2.923   0.790  13.489 -2.0135  1.2411 -0.1836
15469TIP3    H267899   2.867   0.811  13.628  3.1368 -0.4028  2.3749
15470TIP3   OH267900   4.756   2.568  16.548  0.3363  0.0285 -0.2504
15470TIP3    H167901   4.710   2.555  16.631 -2.7482  2.2439 -1.3961
15470TIP3    H267902   4.698   2.529  16.483  0.5435  1.9795 -1.7021
15471TIP3   OH267903   4.624   5.972  16.346  0.0050  0.4362  0.2626
15471TIP3    H167904   4.593   5.890  16.385 -0.7164  0.6819  0.2164
15471TIP3    H267905   4.544   6.022  16.327  0.4157  0.9521 -0.1472
15472TIP3   OH267906   1.993   4.936   4.146 -0.1918 -0.1518  0.2078
15472TIP3    H167907   1.940   4.950   4.224  1.3080  0.7910  1.1131
15472TIP3    H267908   2.009   4.842   4.144 -0.8482 -0.2771  0.6168
15473TIP3   OH267909   1.965   4.485   2.057 -0.2523  0.0396  0.0622
15473TIP3    H167910   1.908   4.409   2.045 -1.6118  0.9578  0.4624
15473TIP3    H267911   1.939   4.545   1.987 -0.2568  0.7379  0.6518
15474TIP3   OH267912   5.734   5.897  11.366  0.2146  0.6829  0.0103
15474TIP3    H167913   5.775   5.823  11.322 -0.3713 -0.7647  1.7483
15474TIP3    H267914   5.673   5.933  11.302  1.6156  0.6665 -1.3901
15475TIP3   OH267915   2.328   0.314   0.247  0.0060 -0.4156 -0.3730
15475TIP3    H167916   2.415   0.335   0.281  1.4254 -0.5874 -3.5436
15475TIP3    H267917   2.319   0.220   0.262 -0.2795 -0.1547  1.2265
15476TIP3   OH267918   0.887   2.000  11.696 -0.2990  0.8923  0.0858
15476TIP3    H167919   0.892   1.906  11.713 -1.5933  0.2824 -2.4952
15476TIP3    H267920   0.811   2.029  11.746 -0.6149  0.3332 -0.0651
15477TIP3   OH267921   2.869   5.639  12.024  0.0640  0.1859 -0.3421
15477TIP3    H167922   2.896   5.563  12.075 -0.3168  0.8720  0.9194
15477TIP3    H267923   2.935   5.646  11.955  2.2116  0.8645  1.6880
15478TIP3   OH267924   0.075   4.184  15.143  0.2856 -0.4909  0.2633
15478TIP3    H167925  -0.003   4.192  15.089 -1.3007 -1.2531  2.3391
15478TIP3    H267926   0.081   4.268  15.190  0.0259 -0.8542  0.9610
15479TIP3   OH267927   0.198   5.486  15.364  0.1487 -0.6287 -0.0432
15479TIP3    H167928   0.124   5.544  15.386  1.0995  0.3801  0.5854
15479TIP3    H267929   0.163   5.429  15.296 -0.5264  1.4016 -1.4968
15480TIP3   OH267930   4.721   5.513  16.875  0.3706  0.0471  0.4990
15480TIP3    H167931   4.670   5.548  16.948 -0.5187  0.5276 -0.3165
15480TIP3    H267932   4.796   5.572  16.867  0.3857  0.0880  0.9071
15481TIP3   OH267933   2.566   1.321  11.384  0.3875 -0.5583 -0.1227
15481TIP3    H167934   2.507   1.396  11.370 -0.8870 -1.4315  0.4110
15481TIP3    H267935   2.571   1.279  11.298  1.1806  0.1624 -0.4485
15482TIP3   OH267936   4.999   2.108  12.547  0.0030  0.1701  0.5088
15482TIP3    H167937   4.984   2.150  12.632  0.3896  0.4181  0.4585
15482TIP3    H267938   5.080   2.059  12.558 -0.7369 -1.0454  0.7391
15483TIP3   OH267939   1.340   2.740  13.728 -0.4287  0.1476 -0.0597
15483TIP3    H167940   1.275   2.751  13.659  1.0778 -0.5086 -1.6440
15483TIP3    H267941   1.335   2.647  13.751 -1.0244  0.3898  0.8581
15484TIP3   OH267942   1.728   2.672  15.125 -0.0234  0.5212 -0.0483
15484TIP3    H167943   1.690   2.679  15.213  0.6044 -0.9657  0.3714
15484TIP3    H267944   1.666   2.717  15.068 -1.5982 -0.4437  0.8440
15485TIP3   OH267945   1.103   2.141  17.160 -0.1658 -0.2735  0.5246
15485TIP3    H167946   1.017   2.144  17.117  0.2003 -0.1429 -0.1997
15485TIP3    H267947   1.085   2.171  17.249 -0.8174  0.0707  0.2889
15486TIP3   OH267948   3.518   0.473   4.267  0.3749  0.4970 -0.1360
15486TIP3    H167949   3.454   0.482   4.337  0.0507  1.9407 -0.5842
15486TIP3    H267950   3.471   0.497   4.188  1.3533  1.2578 -0.5162
15487TIP3   OH267951   6.061   1.405  13.435  0.2318 -0.4126  0.6946
15487TIP3    H167952   6.151   1.383  13.460  0.2695 -0.2501  0.6981
15487TIP3    H267953   6.031   1.328  13.385 -0.0944 -1.0523  1.8442
15488TIP3   OH267954   2.997   0.266   1.840  0.2222  0.1302 -0.1548
15488TIP3    H167955   3.088   0.287   1.817  0.0550  0.2747 -0.6887
15488TIP3    H267956   2.959   0.231   1.759  0.1916 -1.2350  0.4271
15489TIP3   OH267957   1.764   5.761  11.041  0.5965 -0.7573 -0.4242
15489TIP3    H167958   1.729   5.673  11.045  0.6211 -0.8212 -1.2951
15489TIP3    H267959   1.688   5.818  11.038  0.5233 -0.5468  2.5689
15490TIP3   OH267960   2.626   6.255   2.630 -0.5301 -0.3527 -0.1394
15490TIP3    H167961   2.630   6.243   2.725 -0.4034  4.6755  0.8026
15490TIP3    H267962   2.532   6.263   2.611 -0.4903  0.8563  0.0659
15491TIP3   OH267963   6.352   6.678  11.998 -0.1245  0.3971 -0.3360
15491TIP3    H167964   6.338   6.742  12.068 -1.0141  0.4100 -0.5224
15491TIP3    H267965   6.365   6.595  12.045  0.1154  0.5489 -0.1279
15492TIP3   OH267966   6.736   3.765  13.013 -0.2052  0.4454  0.1794
15492TIP3    H167967   6.792   3.766  12.935  1.2858  0.4384  1.2278
15492TIP3    H267968   6.789   3.803  13.082 -1.0085 -0.8267  1.5497
15493TIP3   OH267969   4.408   3.342   4.080  0.4537 -0.5089  0.3733
15493TIP3    H167970   4.503   3.344   4.069  0.2153 -0.9004 -2.4294
15493TIP3    H267971   4.377   3.289   4.007 -2.0050  0.4117  0.6684
15494TIP3   OH267972   6.106   4.564   2.833  0.3656 -0.2607  0.3260
15494TIP3    H167973   6.133   4.631   2.897  0.1589 -0.5832  0.7581
15494TIP3    H267974   6.072   4.493   2.887  0.2437 -0.5624 -0.1497
15495TIP3   OH267975   0.446   2.026   3.069 -0.4745 -0.1737 -0.0348
15495TIP3    H167976   0.426   1.975   2.991 -2.5241 -0.4601  0.6346
15495TIP3    H267977   0.417   2.115   3.048  0.0899  0.0236 -0.0105
15496TIP3   OH267978   2.496   2.595   3.421  0.1484  0.5005 -0.2487
15496TIP3    H167979   2.477   2.687   3.441 -0.6360  0.3124 -0.1035
15496TIP3    H267980   2.422   2.547   3.459  1.1359 -0.2999  0.7152
15497TIP3   OH267981   1.219   3.753  10.677 -0.1180 -0.3036  0.2090
15497TIP3    H167982   1.295   3.731  10.623  0.0119  1.6005 -0.4618
15497TIP3    H267983   1.255   3.768  10.764  0.3288  0.7066 -0.1296
15498TIP3   OH267984   3.970   0.521   2.864 -1.0492 -0.4310  1.4333
15498TIP3    H167985   3.896   0.560   2.819 -1.1716 -1.4932  0.6686
15498TIP3    H267986   3.935   0.441   2.904 -0.5861 -0.3113  2.1011
15499TIP3   OH267987   2.329   1.448  12.486 -0.3279 -0.2695  0.0818
15499TIP3    H167988   2.260   1.493  12.438 -0.1678  1.6247  1.5428
15499TIP3    H267989   2.409   1.466  12.436  0.1840  3.3738  1.8896
15500TIP3   OH267990   1.376   3.773  10.919  0.0306 -0.0162 -0.9796
15500TIP3    H167991   1.452   3.822  10.888  0.9607 -0.6453  0.2280
15500TIP3    H267992   1.411   3.688  10.944 -0.3733  0.7660  2.7618
15501TIP3   OH267993   3.918   1.788  15.823 -1.0991  0.5217  0.5796
15501TIP3    H167994   3.998   1.740  15.800 -0.7428  0.2302  2.2938
15501TIP3    H267995   3.950   1.868  15.866 -1.7139  0.0919  1.8718
15502TIP3   OH267996   0.156   5.549   6.385  0.2647  0.3150 -0.1352
15502TIP3    H167997   0.249   5.535   6.403  0.1042  0.1016  0.5385
15502TIP3    H267998   0.111   5.506   6.457 -0.3687  0.1875 -0.6037
15503TIP3   OH267999   3.478   4.507  11.604  0.3848 -0.0048  0.3599
15503TIP3    H168000   3.456   4.577  11.542  0.1940 -2.1068 -2.1395
15503TIP3    H268001   3.550   4.460  11.562 -0.3878 -2.1016  1.2480
15504TIP3   OH268002   0.157   0.935   3.510 -0.5773 -0.5477 -0.0438
15504TIP3    H168003   0.158   0.851   3.556 -1.5979 -1.5363 -1.7216
15504TIP3    H268004   0.236   0.933   3.456 -0.8173 -0.6046 -0.3920
15505TIP3   OH268005   3.315   0.701   5.011 -0.0685 -0.1100 -0.2620
15505TIP3    H168006   3.340   0.788   4.980 -2.1366  0.6826  0.1312
15505TIP3    H268007   3.228   0.713   5.051 -1.3282 -2.6737 -1.9162
15506TIP3   OH268008   5.659   5.631  15.196  0.0335  0.1428 -0.3427
15506TIP3    H168009   5.577   5.630  15.146  0.2335 -0.0157 -0.6736
15506TIP3    H268010   5.644   5.571  15.269 -0.0555 -0.0883 -0.5496
15507TIP3   OH268011   1.522   4.027  12.613 -0.5477  0.5135  0.5452
15507TIP3    H168012   1.600   3.977  12.590 -0.7813  0.5809 -0.4627
15507TIP3    H268013   1.551   4.119  12.608 -0.6736  0.5366  0.2284
15508TIP3   OH268014   1.245   2.791  15.926 -0.2236 -0.3560  0.3901
15508TIP3    H168015   1.340   2.801  15.928 -0.1599 -0.9670  0.5447
15508TIP3    H268016   1.213   2.875  15.894  0.4560 -0.6351 -1.1163
15509TIP3   OH268017   3.221   1.360   4.734  0.3288 -0.3976  0.4867
15509TIP3    H168018   3.140   1.397   4.699  0.0764 -1.3384  0.0510
15509TIP3    H268019   3.270   1.435   4.766  0.4182  0.4664 -1.5541
15510TIP3   OH268020   3.422   5.389  13.093  0.1872  0.3464 -0.4114
15510TIP3    H168021   3.464   5.470  13.122  1.5506 -0.5213  0.1443
15510TIP3    H268022   3.364   5.416  13.022  1.3840  1.6603 -0.9346
15511TIP3   OH268023   5.475   4.001  10.721 -0.1946  0.0942  0.2881
15511TIP3    H168024   5.524   3.950  10.656  0.2490  0.9179 -0.0360
15511TIP3    H268025   5.402   3.944  10.746  0.5734 -0.9027  0.3146
15512TIP3   OH268026   2.040   4.825   1.440 -0.4572  0.2228  0.2872
15512TIP3    H168027   2.013   4.839   1.350 -2.2589 -0.8902  0.5979
15512TIP3    H268028   2.003   4.899   1.488 -1.1618 -0.1773  0.3798
15513TIP3   OH268029   1.388   4.797   2.508 -0.0110 -0.0054 -0.1610
15513TIP3    H168030   1.438   4.868   2.549  0.8889 -1.3478  1.1785
15513TIP3    H268031   1.363   4.740   2.580  0.8581 -2.0054 -1.3569
15514TIP3   OH268032   1.878   5.378  13.050 -0.1244  0.6722 -0.0515
15514TIP3    H168033   1.810   5.423  13.101  0.3190 -0.2459  1.4060
15514TIP3    H268034   1.836   5.358  12.966 -1.4138  0.7442  0.5579
15515TIP3   OH268035   0.834   0.592  12.790 -0.4198  0.4024  0.0489
15515TIP3    H168036   0.906   0.533  12.767 -0.4986  0.6954 -0.9960
15515TIP3    H268037   0.756   0.550  12.755 -0.6936  0.3406  0.7245
15516TIP3   OH268038   3.618   6.755   0.946  0.1368 -0.4176  0.1264
15516TIP3    H168039   3.666   6.689   0.897  1.3327 -0.5570  1.4089
15516TIP3    H268040   3.684   6.821   0.968 -0.7964  0.6559 -0.1788
15517TIP3   OH268041   3.386   4.326  16.576  0.1905  0.0824  0.7129
15517TIP3    H168042   3.477   4.339  16.603 -0.4420  1.3570  2.4323
15517TIP3    H268043   3.364   4.238  16.605  0.9835 -0.3973 -0.1007
15518TIP3   OH268044   1.171   1.558   5.168 -0.1143  0.4687 -0.0759
15518TIP3    H168045   1.119   1.594   5.096 -1.5109  0.0730  0.7090
15518TIP3    H268046   1.130   1.474   5.188  1.3761 -0.2699 -0.0028
15519TIP3   OH268047   5.116   1.823   5.120  0.1009  0.3173  0.2821
15519TIP3    H168048   5.046   1.758   5.123  0.3987 -0.0174  0.1208
15519TIP3    H268049   5.181   1.791   5.182 -0.3320  1.1624  1.2033
15520TIP3   OH268050   1.066   6.194  15.941 -0.9563 -0.0805 -0.2015
15520TIP3    H168051   1.144   6.237  15.907 -2.2761  3.4435  0.8277
15520TIP3    H268052   1.100   6.119  15.991  2.1662  2.9032  2.7108
15521TIP3   OH268053   1.506   3.001   2.492 -0.3332  0.0496 -0.4979
15521TIP3    H168054   1.471   3.036   2.574 -0.5409 -0.0310 -0.5505
15521TIP3    H268055   1.601   3.003   2.503 -0.3245  1.1836 -0.7283
15522TIP3   OH268056   3.742   2.146  14.719  0.1290  0.6555 -0.3067
15522TIP3    H168057   3.674   2.112  14.661  1.1731  0.8003 -1.6739
15522TIP3    H268058   3.694   2.176  14.797 -1.1677 -0.7793 -0.5043
15523TIP3   OH268059   6.228   5.817  13.999  0.0048 -0.2224 -0.0226
15523TIP3    H168060   6.136   5.838  14.020 -0.1620 -0.1854 -0.7484
15523TIP3    H268061   6.222   5.757  13.925  0.5745 -0.0368 -0.2228
15524TIP3   OH268062   2.660   6.743   3.316  0.7898 -0.0218 -0.6094
15524TIP3    H168063   2.646   6.833   3.344  3.7036  0.6464 -1.0029
15524TIP3    H268064   2.582   6.721   3.265 -0.9399  1.4876  1.2495
15525TIP3   OH268065   0.794   1.817  12.253  0.6385 -0.5424  0.2771
15525TIP3    H168066   0.729   1.842  12.319  0.3504 -1.3246  0.3023
15525TIP3    H268067   0.771   1.869  12.175 -0.3338 -1.1856  0.1239
15526TIP3   OH268068   2.365   0.656   4.318 -0.4976 -0.3354  0.4314
15526TIP3    H168069   2.423   0.680   4.245 -1.3168 -0.8432 -0.4090
15526TIP3    H268070   2.385   0.720   4.386 -0.2109  0.6073 -0.5064
15527TIP3   OH268071   3.740   5.890  10.803  0.5332  0.1055  0.0632
15527TIP3    H168072   3.832   5.904  10.781  0.3020 -1.3678 -2.2134
15527TIP3    H268073   3.693   5.956  10.751  0.2206 -0.3474 -0.2359
15528TIP3   OH268074   3.199   3.981  12.720  0.6334 -0.0536 -0.7096
15528TIP3    H168075   3.200   4.050  12.785  0.3092 -0.1926 -0.5557
15528TIP3    H268076   3.220   4.025  12.638 -0.1172  0.3296 -0.7052
15529TIP3   OH268077   0.537   0.805   2.660  0.1917 -0.3615  0.3791
15529TIP3    H168078   0.576   0.717   2.664 -0.4444 -0.6094  1.8144
15529TIP3    H268079   0.503   0.812   2.571  1.2560 -1.1140 -0.1141
15530TIP3   OH268080   1.700   0.183   0.234 -0.1205  0.2828 -0.1421
15530TIP3    H168081   1.715   0.149   0.322  1.2743 -1.5917 -1.0392
15530TIP3    H268082   1.740   0.118   0.176  0.2273  2.1473 -2.1064
15531TIP3   OH268083   2.300   4.190   0.727 -0.0977  0.2135  0.1567
15531TIP3    H168084   2.300   4.251   0.653 -0.5933  0.2072  0.1449
15531TIP3    H268085   2.305   4.104   0.686 -1.1424  0.1700  0.0744
15532TIP3   OH268086   5.742   5.860  17.249 -0.7129  0.3560  0.0534
15532TIP3    H168087   5.813   5.923  17.264  0.8814 -1.3699  0.1061
15532TIP3    H268088   5.666   5.899  17.292 -0.0370  2.6388 -0.6757
15533TIP3   OH268089   4.398   1.232  17.090  0.9083  0.0528 -0.3320
15533TIP3    H168090   4.435   1.253  17.004  0.2768  2.2463 -0.1460
15533TIP3    H268091   4.474   1.232  17.149  1.2013 -0.3321 -0.7045
15534TIP3   OH268092   6.276   6.245  11.225 -0.1255 -0.1409 -0.1792
15534TIP3    H168093   6.242   6.320  11.176 -0.4259 -0.8426 -1.0537
15534TIP3    H268094   6.209   6.227  11.291 -1.6028 -1.6115 -1.9845
15535TIP3   OH268095   1.248   2.439   2.792 -0.4296  0.7495 -0.2185
15535TIP3    H168096   1.190   2.457   2.866  0.0216  1.0984  0.0587
15535TIP3    H268097   1.198   2.465   2.715 -1.4634 -0.9419 -0.1727
15536TIP3   OH268098   1.489   0.609   6.423  0.2024 -0.0807 -0.2806
15536TIP3    H168099   1.428   0.644   6.358 -0.9302  1.9939  1.7350
15536TIP3    H268100   1.576   0.634   6.391 -0.2386 -0.1312 -1.5527
15537TIP3   OH268101   6.357   3.185   1.737 -1.0236 -0.0209  0.3623
15537TIP3    H168102   6.279   3.200   1.791 -1.3626  1.6566 -0.4965
15537TIP3    H268103   6.413   3.260   1.755 -0.5391 -0.1444 -0.5510
15538TIP3   OH268104   4.748   3.738  16.550 -0.4602  0.0379  0.1536
15538TIP3    H168105   4.801   3.817  16.556 -1.6495  1.0988 -1.9744
15538TIP3    H268106   4.798   3.679  16.494 -0.7691  0.3824 -0.4940
15539TIP3   OH268107   4.747   1.841   4.908 -0.2465 -0.7918  0.4370
15539TIP3    H168108   4.803   1.855   4.831  0.9724 -3.1071  0.8216
15539TIP3    H268109   4.666   1.804   4.871 -0.3304 -0.3080  0.1295
15540TIP3   OH268110   5.173   0.524  12.487  0.1274 -0.5332  0.1491
15540TIP3    H168111   5.194   0.583  12.415  1.2799 -1.8752 -0.6635
15540TIP3    H268112   5.211   0.566  12.564  0.0123  0.2747 -0.2190
15541TIP3   OH268113   0.553   0.513   5.133 -0.3988 -0.6691  0.6864
15541TIP3    H168114   0.556   0.439   5.195 -0.7372  0.0539  1.5862
15541TIP3    H268115   0.498   0.578   5.177 -0.6607 -0.1490 -0.4025
15542TIP3   OH268116   5.894   1.585   1.113 -0.4956  0.1418  0.0526
15542TIP3    H168117   5.919   1.617   1.026  2.2662 -1.9396 -0.0380
15542TIP3    H268118   5.924   1.653   1.173  0.1655  0.2966 -0.4454
15543TIP3   OH268119   5.227   6.136   2.769 -0.4616  0.0917  0.1199
15543TIP3    H168120   5.169   6.206   2.742 -0.3900  0.0241 -0.2128
15543TIP3    H268121   5.171   6.074   2.815 -0.2614  1.1036  1.7867
15544TIP3   OH268122   6.153   4.789  12.180  0.5488  0.8508  0.4150
15544TIP3    H168123   6.163   4.882  12.198  0.8913  0.7404  0.8137
15544TIP3    H268124   6.229   4.765  12.127 -0.1801  1.0575 -0.7623
15545TIP3   OH268125   1.485   3.254   5.515  0.6837 -0.2075  0.0938
15545TIP3    H168126   1.471   3.323   5.579  0.0800  0.5784 -0.8520
15545TIP3    H268127   1.565   3.279   5.470  1.2111 -0.8577  0.6526
15546TIP3   OH268128   0.545   2.728  12.754 -0.3235 -0.4502 -0.4059
15546TIP3    H168129   0.587   2.647  12.725 -0.2890 -0.0879 -1.4017
15546TIP3    H268130   0.600   2.797  12.718  0.0347  0.0395  1.0045
15547TIP3   OH268131   4.815   4.430  13.269  0.5843  0.5221  0.0496
15547TIP3    H168132   4.814   4.494  13.340 -0.0774  1.7565 -1.0356
15547TIP3    H268133   4.771   4.353  13.305 -1.5578  1.8430  0.3829
15548TIP3   OH268134   3.584   1.940  15.666 -0.4082  0.0134 -0.2899
15548TIP3    H168135   3.591   1.883  15.589  0.7840  1.2444 -1.1433
15548TIP3    H268136   3.674   1.971  15.681 -0.8939  1.0204  0.6567
15549TIP3   OH268137   6.489   2.719   1.930  0.3496  0.5520 -0.4801
15549TIP3    H168138   6.446   2.711   1.844 -0.6074  0.8765 -0.0386
15549TIP3    H268139   6.418   2.741   1.990  1.1871  1.3788  0.2161
15550TIP3   OH268140   4.704   3.501   2.837 -0.0390 -0.7390 -0.1210
15550TIP3    H168141   4.665   3.421   2.802 -0.2201 -0.8154  0.2438
15550TIP3    H268142   4.759   3.470   2.910 -0.1384 -0.5305  0.0450
15551TIP3   OH268143   4.253   5.290   3.250  0.1574  0.0934  0.1484
15551TIP3    H168144   4.248   5.385   3.261  0.3910  0.1300 -0.0447
15551TIP3    H268145   4.177   5.268   3.196 -0.8703 -0.0580  1.5931
15552TIP3   OH268146   4.721   1.596  11.710 -0.0999 -0.2439  0.6378
15552TIP3    H168147   4.630   1.625  11.713  0.4237  1.4802  0.8556
15552TIP3    H268148   4.770   1.669  11.747  1.5866 -0.1592 -1.5769
15553TIP3   OH268149   2.165   6.350  12.256 -0.1688  0.1915  0.1012
15553TIP3    H168150   2.115   6.270  12.239  0.2043  0.2017 -1.1265
15553TIP3    H268151   2.101   6.421  12.242 -0.1367  0.1562 -0.2417
15554TIP3   OH268152   6.009   2.258  11.293 -0.1486  0.2748  0.2813
15554TIP3    H168153   5.955   2.334  11.269 -0.7965  0.4682  2.2210
15554TIP3    H268154   5.957   2.183  11.265  0.6239  0.4816 -1.9155
15555TIP3   OH268155   1.754   3.141   4.673 -0.6050 -0.4183 -0.4010
15555TIP3    H168156   1.734   3.228   4.637  2.0278  0.1655 -0.6957
15555TIP3    H268157   1.686   3.126   4.738 -2.6840  0.6503 -2.2238
15556TIP3   OH268158   0.183   2.536   2.123 -0.0394 -0.4524  0.1224
15556TIP3    H168159   0.144   2.462   2.170  0.6026  0.2296  1.8030
15556TIP3    H268160   0.151   2.527   2.033  0.4151 -3.0378  0.1473
15557TIP3   OH268161   1.631   5.594  12.129  0.0246 -0.2415  0.5771
15557TIP3    H168162   1.687   5.667  12.104 -1.5904  1.2766  1.0976
15557TIP3    H268163   1.646   5.584  12.224 -1.3175  0.9129  0.9448
15558TIP3   OH268164   4.331   3.099  12.859 -0.1869  0.4272 -0.0539
15558TIP3    H168165   4.266   3.117  12.926  0.3320  1.3879  0.2154
15558TIP3    H268166   4.415   3.102  12.905  0.1771  1.1770 -0.7444
15559TIP3   OH268167   5.897   6.371   6.034  0.4995  0.3786 -0.3558
15559TIP3    H168168   5.901   6.331   5.947  0.9744 -0.8689  0.2172
15559TIP3    H268169   5.986   6.400   6.052  0.1605  1.7213 -0.7587
15560TIP3   OH268170   6.702   2.800  14.540 -0.6435  0.0327 -0.5075
15560TIP3    H168171   6.667   2.889  14.541 -0.7022  0.0197 -1.1639
15560TIP3    H268172   6.688   2.768  14.629 -2.1602  0.0954 -0.6965
15561TIP3   OH268173   1.237   4.584   0.502 -0.3006 -0.2243  0.0904
15561TIP3    H168174   1.249   4.662   0.557 -0.6325  0.1572 -0.3766
15561TIP3    H268175   1.145   4.586   0.477 -0.0935 -0.2506 -0.7045
15562TIP3   OH268176   4.559   5.122  13.952 -0.3712  0.3279 -0.3258
15562TIP3    H168177   4.608   5.193  13.910 -1.7356  3.6344  3.1357
15562TIP3    H268178   4.472   5.125  13.911 -0.2831  0.2925 -0.5183
15563TIP3   OH268179   6.070   5.845   2.778  0.4798 -0.0960  0.1152
15563TIP3    H168180   6.028   5.888   2.703  1.9545 -1.8694 -1.8681
15563TIP3    H268181   6.065   5.752   2.757  2.4544 -0.5338  1.3911
15564TIP3   OH268182   5.948   6.448   3.486  0.3241 -0.3534  0.2011
15564TIP3    H168183   5.876   6.494   3.529  1.4495  1.4555  0.2660
15564TIP3    H268184   6.023   6.462   3.544  0.9955 -1.2420 -0.4235
15565TIP3   OH268185   6.808   4.102  11.717 -0.1747 -0.9617  0.3526
15565TIP3    H168186   6.738   4.133  11.775 -1.5148  2.9537 -2.9119
15565TIP3    H268187   6.877   4.166  11.728 -0.6254  0.1210 -2.4892
15566TIP3   OH268188   1.296   2.480  13.800 -0.1309  0.3747  0.7787
15566TIP3    H168189   1.227   2.435  13.850  0.0561  0.9432  1.5826
15566TIP3    H268190   1.376   2.434  13.824 -0.0283  0.7082  1.0871
15567TIP3   OH268191   4.380   6.686  12.115 -0.4664 -0.8556  0.4526
15567TIP3    H168192   4.348   6.656  12.200 -0.1043  0.9897  1.2925
15567TIP3    H268193   4.439   6.759  12.136  0.6738 -1.2034 -1.3099
15568TIP3   OH268194   3.786   0.588  13.288 -0.0743 -0.5172  0.0365
15568TIP3    H168195   3.708   0.570  13.236  0.3763 -1.3876 -0.3406
15568TIP3    H268196   3.798   0.683  13.281 -1.3721 -0.2909  0.5006
15569TIP3   OH268197   2.229   6.744  17.116  0.4593 -0.0551 -0.2798
15569TIP3    H168198   2.227   6.827  17.164 -0.7640  0.6030 -1.3901
15569TIP3    H268199   2.190   6.680  17.176  0.3472  0.4124  0.1520
15570TIP3   OH268200   5.908   2.257   5.230  0.2741  0.4377  0.6142
15570TIP3    H168201   5.881   2.272   5.321  2.5518  0.9801  1.2775
15570TIP3    H268202   5.984   2.314   5.219  0.2065  0.1642 -1.5654
15571TIP3   OH268203   5.594   4.413   4.743 -0.0124  0.4434  0.6991
15571TIP3    H168204   5.675   4.372   4.713 -0.5344  0.2596 -0.5114
15571TIP3    H268205   5.579   4.485   4.682 -1.2204 -0.0681  0.3754
15572TIP3   OH268206   3.428   0.131   0.482 -0.1328 -0.1667  0.3684
15572TIP3    H168207   3.486   0.056   0.493  0.5777 -0.1033 -2.3119
15572TIP3    H268208   3.344   0.093   0.455  0.2255 -0.0387 -0.9838
15573TIP3   OH268209   3.848   6.266   5.304  0.3665 -0.3726  0.1093
15573TIP3    H168210   3.766   6.314   5.309  0.8155  0.3299  0.9004
15573TIP3    H268211   3.880   6.263   5.395  1.8155  0.4292 -0.3491
15574TIP3   OH268212   0.320   5.861  15.355  0.1838  0.3647  0.2439
15574TIP3    H168213   0.360   5.783  15.394  0.1182 -0.4918 -1.3518
15574TIP3    H268214   0.377   5.884  15.282 -0.9617  0.5208 -0.6239
15575TIP3   OH268215   1.950   5.160   3.976  0.1671 -0.1258 -0.3260
15575TIP3    H168216   1.996   5.123   3.901  0.5144 -2.6067  1.0081
15575TIP3    H268217   1.953   5.092   4.042  0.5073  2.2102  2.2596
15576TIP3   OH268218   6.621   3.056   0.284 -0.9050 -0.3633 -0.6139
15576TIP3    H168219   6.697   3.012   0.247 -0.7890 -0.0435 -0.7569
15576TIP3    H268220   6.598   3.004   0.361  0.3578  0.3467  0.2913
15577TIP3   OH268221   2.901   4.532  15.992 -0.1222 -0.0676 -0.6125
15577TIP3    H168222   2.856   4.550  15.910 -0.1051  0.8959 -0.4266
15577TIP3    H268223   2.987   4.574  15.982  0.7884 -1.9193 -0.9797
15578TIP3   OH268224   6.782   6.604  13.797 -0.4680  0.1330 -0.4548
15578TIP3    H168225   6.796   6.532  13.858 -2.1785 -0.4085 -0.6514
15578TIP3    H268226   6.735   6.564  13.723  0.3634  1.0431 -1.5160
15579TIP3   OH268227   2.387   0.285   3.877 -0.1651  0.8553  0.2532
15579TIP3    H168228   2.426   0.198   3.867 -1.5906  0.3156 -1.1581
15579TIP3    H268229   2.331   0.278   3.954 -0.6786  0.3415 -0.1578
15580TIP3   OH268230   6.330   5.062  12.136  0.1953 -0.1513  0.0981
15580TIP3    H168231   6.314   5.086  12.045 -0.6995  0.9014  0.5030
15580TIP3    H268232   6.422   5.037  12.138 -0.0124 -1.1335 -1.2741
15581TIP3   OH268233   5.933   5.702  12.895  0.5038  0.1499 -0.2614
15581TIP3    H168234   5.867   5.762  12.930  0.8122  1.6948 -2.1365
15581TIP3    H268235   5.938   5.725  12.802  2.9044 -0.6698 -0.3859
15582TIP3   OH268236   1.731   1.784   0.306 -0.1490 -0.2796  0.1502
15582TIP3    H168237   1.711   1.694   0.332  0.3780 -0.6977 -0.8522
15582TIP3    H268238   1.826   1.788   0.302 -0.1967 -0.1575 -1.4060
15583TIP3   OH268239   2.129   5.152  13.534  0.0591  0.4413  1.0958
15583TIP3    H168240   2.219   5.135  13.508 -0.2679 -0.0157  0.2350
15583TIP3    H268241   2.077   5.138  13.455 -0.7999  0.4533  1.6376
15584TIP3   OH268242   6.504   3.457   5.453  0.1851  0.0478 -0.5630
15584TIP3    H168243   6.486   3.382   5.395 -0.3240  1.6518 -2.6044
15584TIP3    H268244   6.599   3.458   5.462  0.1197 -2.0241  1.2574
15585TIP3   OH268245   5.334   6.123  12.134  0.4550 -0.4091  0.0629
15585TIP3    H168246   5.385   6.141  12.055  1.0931 -1.5385  0.1892
15585TIP3    H268247   5.394   6.140  12.206  0.3613 -0.8248  0.2454
15586TIP3   OH268248   2.795   5.101  13.256 -0.1237 -0.6032 -0.4060
15586TIP3    H168249   2.730   5.161  13.293 -0.6705 -1.0355 -0.6479
15586TIP3    H268250   2.806   5.033  13.322 -0.0763 -0.6417 -0.4531
15587TIP3   OH268251   5.117   2.371  12.875 -0.1438 -0.3574  0.8440
15587TIP3    H168252   5.197   2.326  12.903  1.0484  0.8115 -0.4659
15587TIP3    H268253   5.130   2.461  12.902 -0.3535  0.1357 -0.6100
15588TIP3   OH268254   5.678   0.713  15.978 -0.2392 -0.0560  0.0393
15588TIP3    H168255   5.628   0.718  16.059 -1.7123 -1.4821 -0.7283
15588TIP3    H268256   5.734   0.636  15.988  1.4657  1.1908  0.6537
15589TIP3   OH268257   0.833   5.747  13.709 -0.0103 -0.8830  0.0917
15589TIP3    H168258   0.859   5.698  13.787  0.1566 -2.5063 -0.9270
15589TIP3    H268259   0.755   5.795  13.735 -0.1844 -1.7090  1.1473
15590TIP3   OH268260   3.052   0.660  12.680  0.2527 -0.9681  0.1665
15590TIP3    H168261   3.052   0.658  12.776 -0.7859  0.4407  0.2254
15590TIP3    H268262   3.145   0.664  12.656  0.5249 -1.3925  1.1053
15591TIP3   OH268263   5.971   6.091   4.106 -0.4091 -0.4155 -0.2798
15591TIP3    H168264   6.008   6.161   4.052  0.4656 -0.8081 -0.2022
15591TIP3    H268265   5.980   6.122   4.196 -2.2330  0.4179 -0.3263
15592TIP3   OH268266   5.205   1.151   4.176 -0.2695  0.4937 -0.2772
15592TIP3    H168267   5.218   1.232   4.226 -1.7047  0.4011  0.2890
15592TIP3    H268268   5.162   1.179   4.096 -0.0332  0.3746 -0.4467
15593TIP3   OH268269   5.665   2.236  11.232 -0.0041 -0.6604 -0.2167
15593TIP3    H168270   5.670   2.264  11.140 -0.3964  1.1474  0.2738
15593TIP3    H268271   5.581   2.190  11.238 -0.6385  0.4388 -0.4706
15594TIP3   OH268272   2.265   4.066  16.724 -0.2817 -0.0837  0.0248
15594TIP3    H168273   2.293   4.018  16.803  0.7170  0.5096  0.0448
15594TIP3    H268274   2.282   4.158  16.745 -0.8598  0.1602 -0.5525
15595TIP3   OH268275   2.590   3.624  13.198  0.3032  0.1270 -0.2745
15595TIP3    H168276   2.588   3.593  13.289 -1.6056  1.4746  0.2051
15595TIP3    H268277   2.633   3.554  13.149  1.7107 -0.4764  1.6995
15596TIP3   OH268278   2.984   5.190   2.419  0.0595 -0.5227 -0.4671
15596TIP3    H168279   2.958   5.280   2.436  2.4611 -0.1946  2.4613
15596TIP3    H268280   3.064   5.198   2.367  0.4144 -0.9099  0.0053
15597TIP3   OH268281   3.878   0.662  13.566 -0.2641 -0.6101  0.3206
15597TIP3    H168282   3.854   0.640  13.476  0.8034 -2.8855  0.5159
15597TIP3    H268283   3.965   0.701  13.560 -0.6584  0.2843  0.2904
15598TIP3   OH268284   4.403   0.678  11.691 -0.0909 -0.4061  0.4515
15598TIP3    H168285   4.319   0.668  11.737  0.3131 -1.5431  0.9808
15598TIP3    H268286   4.394   0.623  11.612  0.9713 -2.5378  1.7147
15599TIP3   OH268287   0.469   2.627  16.778 -0.1086  0.4075 -0.1770
15599TIP3    H168288   0.445   2.656  16.690  0.2013  3.3082  0.5922
15599TIP3    H268289   0.406   2.671  16.835  2.4948  2.4852  1.3489
15600TIP3   OH268290   5.246   0.197  12.787  1.2708 -0.1586 -0.2858
15600TIP3    H168291   5.169   0.150  12.819  0.5169 -0.4976 -2.4123
15600TIP3    H268292   5.314   0.129  12.781  1.0257 -0.3790 -0.6360
15601TIP3   OH268293   0.095   5.813  12.045 -0.2134 -1.1435  0.6720
15601TIP3    H168294   0.168   5.847  11.993 -2.7193  1.6601 -1.3865
15601TIP3    H268295   0.043   5.761  11.984 -0.8602 -1.6011  1.5840
15602TIP3   OH268296   5.362   5.654   4.793  0.0313 -0.3694  0.0860
15602TIP3    H168297   5.357   5.593   4.867  1.0326 -0.7956 -0.1799
15602TIP3    H268298   5.320   5.734   4.825 -1.1622 -1.1314  0.4973
15603TIP3   OH268299   4.637   4.176   1.530 -0.1349 -0.0433  0.1060
15603TIP3    H168300   4.671   4.194   1.617 -1.8159  0.6783  0.6556
15603TIP3    H268301   4.654   4.257   1.481  0.3879 -0.2767 -0.1000
15604TIP3   OH268302   5.770   6.131  13.177 -0.2648  0.5393  0.0745
15604TIP3    H168303   5.678   6.153  13.193 -0.6740  0.2958 -1.7569
15604TIP3    H268304   5.768   6.042  13.143  0.6757  0.4594  0.1960
15605TIP3   OH268305   4.939   6.403   0.841 -0.5697 -0.0470  0.0069
15605TIP3    H168306   4.852   6.432   0.813 -0.3430 -0.6766 -1.4727
15605TIP3    H268307   4.999   6.468   0.806 -0.3958 -0.0097  0.3770
15606TIP3   OH268308   1.378   6.645   4.585  0.5031 -0.0938 -0.1322
15606TIP3    H168309   1.402   6.654   4.677 -2.0478 -0.2629  0.6471
15606TIP3    H268310   1.455   6.673   4.536  1.8144  0.3050  2.0547
15607TIP3   OH268311   4.470   2.293   3.091  0.1839 -0.1304  0.8907
15607TIP3    H168312   4.559   2.287   3.126 -0.6330  0.9321  3.4323
15607TIP3    H268313   4.478   2.267   3.000  3.2318  0.7222  0.8115
15608TIP3   OH268314   5.458   6.540   4.207 -0.3309  0.2277 -0.5811
15608TIP3    H168315   5.537   6.592   4.220 -2.8053  4.0722  0.8083
15608TIP3    H268316   5.478   6.456   4.250  2.1445  1.9333  2.0232
15609TIP3   OH268317   0.887   5.191  16.315 -0.0043 -0.5321 -0.2254
15609TIP3    H168318   0.959   5.128  16.322  0.0689 -0.3787  0.5175
15609TIP3    H268319   0.816   5.151  16.366  0.2166  0.2143  0.6912
15610TIP3   OH268320   2.805   3.071   3.492  0.5825  0.1068 -0.5893
15610TIP3    H168321   2.851   3.030   3.419 -0.0585  1.3943 -1.7755
15610TIP3    H268322   2.864   3.140   3.523  0.8733 -0.4664  0.1530
15611TIP3   OH268323   0.857   3.882   1.386  0.6533 -0.0838  0.2895
15611TIP3    H168324   0.932   3.940   1.400  0.1488  0.4682  0.7591
15611TIP3    H268325   0.853   3.871   1.291  0.0113  1.6692  0.0814
15612TIP3   OH268326   4.901   4.028  14.605  0.0449  0.2524  0.1801
15612TIP3    H168327   4.835   4.098  14.605  2.0448  2.3216 -2.0116
15612TIP3    H268328   4.876   3.971  14.533  0.1259  0.4749 -0.0224
15613TIP3   OH268329   1.291   2.251   1.203 -0.3890 -0.2822 -0.2026
15613TIP3    H168330   1.315   2.267   1.112  1.1791  0.2567  0.2874
15613TIP3    H268331   1.195   2.252   1.202 -0.4383 -1.2664 -2.0100
15614TIP3   OH268332   6.217   6.011   2.325  0.2489  0.2825  0.6248
15614TIP3    H168333   6.269   6.002   2.404  0.5545 -0.5234  0.3344
15614TIP3    H268334   6.171   5.928   2.316  2.0190 -0.5626 -1.3134
15615TIP3   OH268335   0.597   2.848   1.844 -0.2712  0.0544 -0.6931
15615TIP3    H168336   0.670   2.847   1.782  1.2880 -1.2845  1.0662
15615TIP3    H268337   0.581   2.756   1.864  2.2517  0.3767  4.0940
15616TIP3   OH268338   5.184   5.395   1.997 -0.2166 -0.4879 -0.3091
15616TIP3    H168339   5.276   5.421   1.993 -0.7387  1.3685 -1.6018
15616TIP3    H268340   5.185   5.312   2.045  1.9736  0.1721  0.9679
15617TIP3   OH268341   1.896   0.350  15.890  0.0038 -0.3744 -0.1327
15617TIP3    H168342   1.945   0.268  15.895  2.7059  1.1643  0.9435
15617TIP3    H268343   1.806   0.323  15.876  0.5555 -3.5925  1.4667
15618TIP3   OH268344   6.825   3.979  10.976 -0.3148  0.5250 -0.1134
15618TIP3    H168345   6.825   3.939  11.064  1.2366 -1.4418 -0.9177
15618TIP3    H268346   6.908   3.951  10.938  0.1046  3.2572 -1.4267
15619TIP3   OH268347   0.628   4.218   4.274  0.0637  0.4472  0.1976
15619TIP3    H168348   0.544   4.180   4.250  0.8441 -0.7932 -0.7022
15619TIP3    H268349   0.653   4.174   4.355  0.4695 -0.1973 -0.2702
15620TIP3   OH268350   5.909   3.524  12.522  0.1098  0.3375 -0.3019
15620TIP3    H168351   5.830   3.567  12.488  0.1868 -0.0559 -1.0034
15620TIP3    H268352   5.883   3.490  12.607 -0.6432 -0.2236 -0.7366
15621TIP3   OH268353   6.146   2.132  16.589 -0.5953  0.1376 -0.2926
15621TIP3    H168354   6.227   2.183  16.583 -0.6583  0.1508 -1.1487
15621TIP3    H268355   6.164   2.053  16.538 -0.8568 -0.2232  0.1657
15622TIP3   OH268356   5.019   0.195  16.711  0.2336 -0.3636  0.0588
15622TIP3    H168357   5.080   0.126  16.739  0.1421 -0.3594  0.2753
15622TIP3    H268358   4.995   0.240  16.792  0.8914  0.4237 -0.1641
15623TIP3   OH268359   4.322   5.172  14.994  0.1472 -0.2773  0.0464
15623TIP3    H168360   4.384   5.235  15.031  1.2688 -1.9905  1.2386
15623TIP3    H268361   4.342   5.090  15.039 -0.8908 -1.6331 -1.8314
15624TIP3   OH268362   4.394   0.888   4.681  0.3653 -0.4320  0.3789
15624TIP3    H168363   4.480   0.927   4.699  1.0628 -0.7611 -1.8756
15624TIP3    H268364   4.381   0.826   4.753  1.9611 -0.2962  0.8466
15625TIP3   OH268365   1.263   1.435  16.321 -0.4577  0.1158  0.2990
15625TIP3    H168366   1.276   1.361  16.261 -1.9077 -0.2225  0.3844
15625TIP3    H268367   1.193   1.407  16.379 -1.8353  1.9964 -0.3765
15626TIP3   OH268368   1.945   1.981  12.261  0.8711  0.0697  0.5657
15626TIP3    H168369   1.971   1.927  12.185  1.4740 -1.1062  1.5671
15626TIP3    H268370   1.945   2.071  12.228 -1.3548 -0.5663 -1.5166
15627TIP3   OH268371   6.732   1.913  15.945  0.4003  0.0517  0.5587
15627TIP3    H168372   6.796   1.898  16.015  0.3258  1.2240  0.8990
15627TIP3    H268373   6.669   1.974  15.983  0.1891  0.4669 -0.4304
15628TIP3   OH268374   1.131   6.027  11.750 -0.5619 -0.1698 -0.2964
15628TIP3    H168375   1.180   6.063  11.824  1.1032 -0.9248 -0.9766
15628TIP3    H268376   1.044   6.065  11.758 -0.2947  0.1100  1.7845
15629TIP3   OH268377   4.467   1.933  11.792 -0.0162 -0.0765 -0.2301
15629TIP3    H168378   4.519   1.924  11.712 -0.8254  1.2068 -0.9530
15629TIP3    H268379   4.378   1.911  11.764  0.0651 -2.1454  0.9582
15630TIP3   OH268380   4.896   2.004  10.709 -0.6734  0.4583 -0.1915
15630TIP3    H168381   4.858   1.969  10.789  0.1830  0.3553  0.1821
15630TIP3    H268382   4.850   2.087  10.695  0.4645  1.4210  1.4697
15631TIP3   OH268383   4.357   6.790   5.628 -0.9660  0.6108 -0.2372
15631TIP3    H168384   4.284   6.745   5.585  0.3855 -1.0520 -0.8782
15631TIP3    H268385   4.410   6.824   5.555 -0.8793  1.4993  0.2191
15632TIP3   OH268386   6.793   3.843  15.295  0.5489  0.2573  0.0892
15632TIP3    H168387   6.788   3.760  15.247  1.9975 -0.3057  0.8648
15632TIP3    H268388   6.734   3.902  15.247 -0.7408 -1.2818 -0.3075
15633TIP3   OH268389   6.745   4.411  15.292  0.1995 -0.1645  0.5358
15633TIP3    H168390   6.678   4.479  15.288  0.0756 -0.3472 -1.9594
15633TIP3    H268391   6.714   4.342  15.233  1.5850 -1.1995  0.9399
15634TIP3   OH268392   4.292   0.239  14.669 -0.2844 -0.6800 -0.6399
15634TIP3    H168393   4.260   0.318  14.713  0.4761 -0.9652  0.4428
15634TIP3    H268394   4.231   0.170  14.695  0.0801 -0.8172 -0.1318
15635TIP3   OH268395   2.645   2.809  14.866  0.3186 -0.2609  0.3111
15635TIP3    H168396   2.703   2.885  14.871  0.9531 -0.6787 -0.5683
15635TIP3    H268397   2.562   2.843  14.834  0.1667  0.2799  1.2352
15636TIP3   OH268398   5.232   1.107   1.935  0.4481  0.4606 -0.2233
15636TIP3    H168399   5.236   1.124   1.841  2.6412 -1.4577 -0.5685
15636TIP3    H268400   5.157   1.049   1.946 -0.8824  2.0488 -0.4652
15637TIP3   OH268401   6.301   3.241   4.780  0.3097 -0.1419  0.6356
15637TIP3    H168402   6.324   3.325   4.820 -0.1798  0.5127 -0.4056
15637TIP3    H268403   6.220   3.215   4.824  0.3419  0.0451  0.8077
15638TIP3   OH268404   3.279   3.545  12.180  0.7133  0.3656  0.5204
15638TIP3    H168405   3.258   3.633  12.212 -1.2351  0.7523 -1.6001
15638TIP3    H268406   3.311   3.558  12.091  1.2290 -1.0454  0.4666
15639TIP3   OH268407   4.238   2.112  13.222  0.4905  0.1705  0.4138
15639TIP3    H168408   4.191   2.184  13.262 -1.6204 -1.0287  0.2556
15639TIP3    H268409   4.325   2.147  13.203 -0.7801  3.0150 -0.7011
15640TIP3   OH268410   1.707   1.004   0.421  0.0866  0.3285 -0.2175
15640TIP3    H168411   1.768   0.962   0.361  0.7050  1.2004 -0.2181
15640TIP3    H268412   1.620   0.977   0.389  0.4328 -0.0188 -0.8911
15641TIP3   OH268413   3.288   4.957   0.155  0.2684 -1.0427 -0.1996
15641TIP3    H168414   3.301   5.046   0.188  3.7832 -1.0262 -1.2236
15641TIP3    H268415   3.215   4.965   0.094 -0.7868  0.6762  1.1759
15642TIP3   OH268416   6.424   1.986  15.184 -0.3180 -0.2827  0.7202
15642TIP3    H168417   6.512   1.983  15.147 -0.1649  0.4473  1.0045
15642TIP3    H268418   6.435   1.961  15.275 -0.4295 -0.3798  0.7071
15643TIP3   OH268419   4.191   0.174  13.064  0.2945 -0.4091 -0.3215
15643TIP3    H168420   4.285   0.171  13.044  0.3679 -0.2128 -0.0197
15643TIP3    H268421   4.175   0.097  13.118  0.6074  0.3708  0.9386
15644TIP3   OH268422   5.186   5.415  13.741 -0.0150  0.2703 -0.0324
15644TIP3    H168423   5.224   5.501  13.722 -0.2046  0.3261 -0.1555
15644TIP3    H268424   5.159   5.381  13.655 -0.9380  0.5526  0.1417
15645TIP3   OH268425   6.317   0.117  15.027 -0.3701  0.1191 -0.0483
15645TIP3    H168426   6.300   0.158  14.942  2.1076  0.2648 -0.5398
15645TIP3    H268427   6.231   0.114  15.070 -1.0290  3.9246 -0.8016
15646TIP3   OH268428   5.117   4.685   5.107  0.0557  0.3373 -0.1469
15646TIP3    H168429   5.138   4.777   5.124 -2.3864  1.5311 -2.7492
15646TIP3    H268430   5.193   4.652   5.059  0.8615  1.0213  0.6115
15647TIP3   OH268431   5.517   4.658  14.815 -0.0321  0.0980  0.2511
15647TIP3    H168432   5.537   4.751  14.812 -0.9681  0.3191  0.5581
15647TIP3    H268433   5.458   4.643  14.742 -1.0776  0.0622  1.0741
15648TIP3   OH268434   0.349   3.698  16.518  0.0462 -0.2428 -0.4025
15648TIP3    H168435   0.298   3.622  16.547 -0.1056 -0.3089 -0.8281
15648TIP3    H268436   0.376   3.676  16.429  1.5140 -0.5534  0.0993
15649TIP3   OH268437   6.358   0.236  13.435 -0.3768 -0.1027  0.3919
15649TIP3    H168438   6.359   0.288  13.515  0.6715  0.1570  0.2284
15649TIP3    H268439   6.451   0.224  13.413 -0.6116 -1.3926  0.0043
15650TIP3   OH268440   1.090   1.076  15.357 -0.4008  0.3072 -0.1971
15650TIP3    H168441   1.056   0.991  15.384 -0.1679  0.6049  1.0831
15650TIP3    H268442   1.013   1.126  15.330 -0.6416  0.0032 -0.0692
15651TIP3   OH268443   0.334   3.771  12.931 -0.0991  0.3828 -0.1495
15651TIP3    H168444   0.286   3.698  12.969 -0.0839  0.7013  0.4951
15651TIP3    H268445   0.385   3.731  12.860 -0.7809 -0.0691 -0.3969
15652TIP3   OH268446   3.575   2.340   5.842  0.9635  0.1670  0.4865
15652TIP3    H168447   3.644   2.351   5.908 -0.0395 -1.0347  1.8011
15652TIP3    H268448   3.571   2.246   5.826 -1.8033 -0.1178  2.1375
15653TIP3   OH268449   2.914   3.356   1.799 -0.3536  0.0794  0.0532
15653TIP3    H168450   2.826   3.318   1.809 -0.3123 -0.3267 -0.9433
15653TIP3    H268451   2.973   3.281   1.806 -0.3159 -0.3011 -2.8502
15654TIP3   OH268452   2.032   4.059  11.399 -0.0303 -0.3131 -0.1901
15654TIP3    H168453   2.035   4.010  11.317 -0.8497  0.3230 -0.6214
15654TIP3    H268454   1.941   4.051  11.428 -0.3118  1.2622 -0.5071
15655TIP3   OH268455   1.695   3.373   4.409  0.2623  0.0457  0.1505
15655TIP3    H168456   1.664   3.382   4.499  1.5532  0.7216  0.5544
15655TIP3    H268457   1.632   3.424   4.357  0.4924  1.1425  0.9050
15656TIP3   OH268458   3.824   2.500   2.443 -0.2209 -0.3688 -0.7549
15656TIP3    H168459   3.779   2.438   2.501 -2.0094  0.9812 -0.5941
15656TIP3    H268460   3.895   2.536   2.496 -0.4031 -0.8289 -0.1882
15657TIP3   OH268461   0.094   2.710   4.067 -0.2314  0.2549 -0.4851
15657TIP3    H168462   0.103   2.670   4.153  0.6990  1.1865 -0.1290
15657TIP3    H268463   0.179   2.751   4.050 -0.7255  0.9383 -1.4125
15658TIP3   OH268464   6.100   1.215   1.732 -0.0181  0.5396 -0.1149
15658TIP3    H168465   6.104   1.294   1.677  2.2669 -0.3055 -1.2986
15658TIP3    H268466   6.176   1.223   1.790  0.6597 -1.0761 -0.7238
15659TIP3   OH268467   4.922   2.250  13.159 -0.9265 -0.2911 -0.5703
15659TIP3    H168468   4.890   2.340  13.155  1.0345  0.4723  0.0533
15659TIP3    H268469   4.891   2.217  13.244  0.4495  0.6742  0.3406
15660TIP3   OH268470   2.542   1.144   4.794 -0.0593  0.6226 -0.5565
15660TIP3    H168471   2.478   1.141   4.723 -0.9551 -0.2146  0.2623
15660TIP3    H268472   2.622   1.175   4.752 -0.5089 -0.0375 -1.9761
15661TIP3   OH268473   3.130   1.528  16.670  0.7012  0.2303  0.6281
15661TIP3    H168474   3.089   1.525  16.583  2.2310 -2.0625 -0.1226
15661TIP3    H268475   3.195   1.458  16.668  1.1551  0.4416  3.4852
15662TIP3   OH268476   2.402   2.502  14.917 -0.2387  0.1161  0.0325
15662TIP3    H168477   2.335   2.441  14.946 -0.7266  1.3009  1.5051
15662TIP3    H268478   2.369   2.537  14.834 -0.6049 -0.5615 -0.1142
15663TIP3   OH268479   6.031   2.809  16.385 -0.3522  0.5040  0.1953
15663TIP3    H168480   6.036   2.904  16.370 -2.1300  0.7479  0.8167
15663TIP3    H268481   5.943   2.796  16.421 -1.2253 -1.7604 -2.4735
15664TIP3   OH268482   1.717   3.723   4.917 -0.2985  0.1058  0.3229
15664TIP3    H168483   1.777   3.795   4.937  0.2719 -0.6712  1.5390
15664TIP3    H268484   1.746   3.691   4.832  0.4715  0.2942  0.5027
15665TIP3   OH268485   0.670   5.716  15.018 -0.1615  0.0772 -0.6796
15665TIP3    H168486   0.755   5.754  14.993 -0.7612 -0.0060 -3.1270
15665TIP3    H268487   0.624   5.787  15.062  0.5010  0.7059 -0.9753
15666TIP3   OH268488   3.512   0.522   0.763 -0.1346  0.7999 -0.0829
15666TIP3    H168489   3.491   0.467   0.839 -0.7180 -1.0264 -1.4944
15666TIP3    H268490   3.601   0.498   0.740 -0.6742 -0.2539 -1.2079
15667TIP3   OH268491   4.399   4.901   0.895  0.1249 -0.3043 -0.5081
15667TIP3    H168492   4.423   4.975   0.951  0.4822 -0.4539 -0.4597
15667TIP3    H268493   4.442   4.826   0.936 -2.0827 -0.9582  0.7862
15668TIP3   OH268494   2.546   1.749   5.260  0.1251 -0.4148 -0.5494
15668TIP3    H168495   2.553   1.774   5.352  0.2647 -1.3821 -0.2819
15668TIP3    H268496   2.635   1.756   5.226 -0.3269  2.5176 -1.3471
15669TIP3   OH268497   4.027   1.966   6.765  0.2069 -0.6449 -0.1799
15669TIP3    H168498   4.109   1.950   6.811 -0.4873  0.2359  1.4309
15669TIP3    H268499   4.028   2.059   6.744  0.0359 -0.8261 -1.0312
15670TIP3   OH268500   1.340   0.075   6.037  0.3473  0.4425  0.2119
15670TIP3    H168501   1.273   0.053   6.101  0.9522 -1.5916  0.2012
15670TIP3    H268502   1.401   0.002   6.039  1.2106  1.0451 -1.5999
15671TIP3   OH268503   5.989   1.667   2.678  0.2118 -0.9410 -0.2421
15671TIP3    H168504   5.950   1.614   2.609  0.6769 -0.4100 -0.9213
15671TIP3    H268505   5.925   1.736   2.694 -0.0494 -1.2615  0.1018
15672TIP3   OH268506   6.271   6.660   3.237  0.1086  0.2334 -0.5635
15672TIP3    H168507   6.302   6.692   3.152  0.9197  0.6146 -0.1246
15672TIP3    H268508   6.265   6.738   3.292  2.1936 -0.3094  0.5436
15673TIP3   OH268509   6.343   4.960  14.065 -1.1478  0.3502  0.4825
15673TIP3    H168510   6.319   5.012  13.988  1.7502 -0.0393 -0.8187
15673TIP3    H268511   6.365   4.874  14.030  1.4828  0.5160  1.4648
15674TIP3   OH268512   0.446   2.296   0.301  0.5158  0.4664 -0.0354
15674TIP3    H168513   0.435   2.208   0.337  0.5810  0.6120  0.3393
15674TIP3    H268514   0.371   2.308   0.243 -0.8483  1.0892  1.7605
15675TIP3   OH268515   3.626   6.385  12.861  0.0240  0.2415  0.1906
15675TIP3    H168516   3.658   6.296  12.852 -0.4185 -0.0457  1.2507
15675TIP3    H268517   3.618   6.418  12.771 -0.5759 -1.0623 -0.2562
15676TIP3   OH268518   3.307   6.811   4.912 -0.2214  0.3493 -0.1770
15676TIP3    H168519   3.320   6.727   4.957  0.4842 -0.0250 -1.0459
15676TIP3    H268520   3.392   6.829   4.871 -0.4783  1.3147 -0.2958
15677TIP3   OH268521   2.120   2.259   3.641  0.3750  0.6835  0.4959
15677TIP3    H168522   2.129   2.220   3.728  0.4236  2.4927  1.3477
15677TIP3    H268523   2.066   2.336   3.655  0.4191  1.0271 -1.0863
15678TIP3   OH268524   0.727   6.548   2.391  0.0448 -0.3144  0.6210
15678TIP3    H168525   0.658   6.568   2.327  1.2248  0.3942 -0.4704
15678TIP3    H268526   0.808   6.548   2.340  0.9474 -0.4215  2.0027
15679TIP3   OH268527   5.751   6.702   2.687 -0.5284 -0.0551  0.4413
15679TIP3    H168528   5.719   6.786   2.654 -0.0704  0.3071  0.9037
15679TIP3    H268529   5.836   6.691   2.643 -1.5003 -1.2948 -1.2471
15680TIP3   OH268530   2.077   5.360   4.435  0.5858 -0.1949  0.3613
15680TIP3    H168531   2.029   5.352   4.517 -0.8863 -0.4760 -0.4818
15680TIP3    H268532   2.158   5.310   4.449  0.2649 -0.4174  1.5506
15681TIP3   OH268533   4.722   0.574  11.304 -0.0044 -0.3324 -0.3794
15681TIP3    H168534   4.740   0.536  11.218  2.3510  1.8548 -1.0091
15681TIP3    H268535   4.687   0.661  11.284 -2.2470 -0.8485  0.9647
15682TIP3   OH268536   6.688   1.783  15.216 -0.5754 -0.6256 -0.1254
15682TIP3    H168537   6.684   1.837  15.136 -0.4998 -0.2441  0.1239
15682TIP3    H268538   6.751   1.828  15.272 -2.8566  0.9173  1.4325
15683TIP3   OH268539   5.056   2.658   1.987  0.4694  0.1459 -0.0981
15683TIP3    H168540   5.146   2.645   1.959  0.8747 -0.4066  1.4191
15683TIP3    H268541   5.010   2.685   1.907  2.5049  3.1967 -0.4249
15684TIP3   OH268542   5.364   5.226  11.667  0.5163  0.1673 -0.7727
15684TIP3    H168543   5.376   5.287  11.595 -0.7658  0.6405 -0.6254
15684TIP3    H268544   5.421   5.152  11.647 -0.6542 -0.2497 -2.8978
15685TIP3   OH268545   2.009   4.241  12.459  0.0226 -0.5955 -0.5391
15685TIP3    H168546   1.940   4.255  12.523 -0.5450 -0.8766 -1.0835
15685TIP3    H268547   2.081   4.203  12.509  1.5048  3.5494  0.9889
15686TIP3   OH268548   3.252   1.485  12.454 -0.2433 -0.0886 -0.3625
15686TIP3    H168549   3.190   1.419  12.423  0.8238 -1.5907  0.5952
15686TIP3    H268550   3.278   1.532  12.375 -1.2640 -0.5946 -1.0187
15687TIP3   OH268551   1.590   0.100   1.893  0.2418  0.2411 -0.3030
15687TIP3    H168552   1.670   0.135   1.853 -1.1405  0.8796 -2.6762
15687TIP3    H268553   1.565   0.166   1.958  1.9086 -0.2527  0.9157
15688TIP3   OH268554   4.264   1.038   2.672  0.0654  0.3067 -0.0117
15688TIP3    H168555   4.178   1.080   2.668  0.9380  2.0846 -1.6446
15688TIP3    H268556   4.325   1.110   2.687  1.2650 -1.0012  1.7254
15689TIP3   OH268557   0.992   1.974   1.773  0.2004 -0.1565 -0.6487
15689TIP3    H168558   0.995   1.885   1.808  1.0793 -0.0357 -0.3794
15689TIP3    H268559   1.003   1.963   1.679  1.3114 -0.2796 -0.5127
15690TIP3   OH268560   3.885   4.453   5.038 -0.9017 -0.1537 -0.2862
15690TIP3    H168561   3.843   4.368   5.049  0.2756 -0.8464 -1.0000
15690TIP3    H268562   3.938   4.444   4.959  0.2124  0.8395  0.3132
15691TIP3   OH268563   3.362   5.871  12.810  0.1235  0.3266 -0.2615
15691TIP3    H168564   3.297   5.933  12.776 -0.3388  0.3793  0.6926
15691TIP3    H268565   3.438   5.883  12.752 -0.7845  0.0773 -1.5492
15692TIP3   OH268566   0.915   4.941   0.938 -0.4257 -0.4061 -0.3115
15692TIP3    H168567   0.916   5.036   0.930 -1.6475 -0.3604 -0.0869
15692TIP3    H268568   0.823   4.917   0.934 -0.0770 -1.7865 -2.6983
15693TIP3   OH268569   5.888   5.111   1.968 -0.6435 -0.2130  0.3554
15693TIP3    H168570   5.846   5.054   2.032 -0.9532  1.1838  1.4311
15693TIP3    H268571   5.967   5.143   2.012  0.5859 -1.3153 -0.9569
15694TIP3   OH268572   4.566   0.931  12.905 -0.2369 -0.3056  0.1744
15694TIP3    H168573   4.612   0.982  12.972 -0.3115 -0.1290  0.0935
15694TIP3    H268574   4.627   0.862  12.881  0.4512  0.5812 -0.7402
15695TIP3   OH268575   1.241   3.017   4.026  0.1940 -0.3164  0.4326
15695TIP3    H168576   1.150   3.038   4.045 -0.4660 -0.9242 -1.8074
15695TIP3    H268577   1.267   2.959   4.098 -1.5418 -1.0490  0.5245
15696TIP3   OH268578   4.918   3.440  17.104 -0.3898 -1.0306  0.5082
15696TIP3    H168579   4.854   3.511  17.092  0.5511 -0.0996  0.8108
15696TIP3    H268580   4.888   3.394  17.182 -0.4105 -0.2648  0.9622
15697TIP3   OH268581   2.285   6.231  11.329 -0.2174  0.3353 -0.3778
15697TIP3    H168582   2.228   6.167  11.370 -0.0224 -0.4932 -1.3641
15697TIP3    H268583   2.246   6.246  11.242  1.3586 -0.6944 -1.3056
15698TIP3   OH268584   0.469   6.485  14.038 -0.0913 -0.3617 -0.5794
15698TIP3    H168585   0.410   6.558  14.016 -0.6150 -0.0613  1.5747
15698TIP3    H268586   0.555   6.526  14.047 -0.2572 -0.1224 -0.0448
15699TIP3   OH268587   0.399   3.356  16.895  0.7261 -0.4203 -0.1114
15699TIP3    H168588   0.423   3.307  16.974 -0.9870  0.9201  1.3335
15699TIP3    H268589   0.305   3.341  16.885  0.4570  1.3033 -0.4847
15700TIP3   OH268590   0.978   0.319   3.667 -0.0696  0.1871 -0.3087
15700TIP3    H168591   0.985   0.271   3.750 -0.2869  2.2099  0.9403
15700TIP3    H268592   1.067   0.322   3.633  0.0084 -0.7347 -0.2094
15701TIP3   OH268593   1.652   5.259   1.928 -0.4065 -0.0905  0.2280
15701TIP3    H168594   1.627   5.334   1.982  1.1266 -0.3044  1.2923
15701TIP3    H268595   1.595   5.188   1.958 -1.1685  0.3802 -0.0799
15702TIP3   OH268596   3.572   2.499  15.268 -0.1815 -0.5694  0.1874
15702TIP3    H168597   3.596   2.418  15.223  2.8799 -0.8925  2.1344
15702TIP3    H268598   3.514   2.470  15.338  0.3120 -1.0143  0.4265
15703TIP3   OH268599   3.828   2.513   0.797 -0.1150 -0.3348  0.2553
15703TIP3    H168600   3.876   2.468   0.867 -0.0355 -1.1994 -0.3444
15703TIP3    H268601   3.800   2.596   0.837 -1.6351 -1.5611  1.9139
15704TIP3   OH268602   0.105   3.094  14.193  0.3932 -0.0659 -0.2945
15704TIP3    H168603   0.067   3.174  14.229 -0.9148 -1.0546  0.6393
15704TIP3    H268604   0.198   3.114  14.183  0.2785  1.2291  0.9243
15705TIP3   OH268605   4.733   5.595   4.884  0.2132  0.0292  0.2336
15705TIP3    H168606   4.735   5.528   4.951 -0.2380  0.7464  0.9845
15705TIP3    H268607   4.764   5.674   4.928 -0.7453  0.6689 -0.2084
15706TIP3   OH268608   2.474   3.815  14.818  0.0377  0.2988  0.0338
15706TIP3    H168609   2.451   3.820  14.725  2.3311  1.5906 -0.5237
15706TIP3    H268610   2.515   3.729  14.827  2.1378  1.1389 -0.8030
15707TIP3   OH268611   4.523   1.509   6.055  0.0762 -0.1486 -0.0930
15707TIP3    H168612   4.568   1.593   6.044  0.6100 -0.2463  1.1272
15707TIP3    H268613   4.559   1.473   6.136  0.1184 -1.7322 -0.7730
15708TIP3   OH268614   1.926   2.085  15.049 -0.2904  0.0481 -0.3908
15708TIP3    H168615   1.978   2.005  15.036 -0.4220  0.0717 -1.0851
15708TIP3    H268616   1.939   2.106  15.141 -0.9166 -1.2394  0.0207
15709TIP3   OH268617   4.967   5.022  15.370 -0.0621 -0.2290  0.6377
15709TIP3    H168618   4.962   5.005  15.464 -1.4348 -1.2557  0.4134
15709TIP3    H268619   5.060   5.038  15.353  0.2655 -0.4969  2.0832
15710TIP3   OH268620   3.654   1.657   4.027 -0.2180 -0.3383  1.0354
15710TIP3    H168621   3.659   1.581   3.968  0.5850  0.4033  0.0949
15710TIP3    H268622   3.613   1.725   3.974  0.9259  0.4811  1.1539
15711TIP3   OH268623   5.081   0.950  11.577 -0.4296  0.2071  0.3537
15711TIP3    H168624   5.050   0.869  11.536  0.9388 -0.9819  1.5488
15711TIP3    H268625   5.144   0.985  11.514  2.0524 -1.8787  1.5181
15712TIP3   OH268626   4.895   0.508  16.422 -0.3645  0.4358  0.4874
15712TIP3    H168627   4.856   0.585  16.463  1.9537  1.3733  1.0507
15712TIP3    H268628   4.838   0.436  16.448 -2.2567  1.8458  0.4361
15713TIP3   OH268629   0.789   6.789  11.069 -0.1013 -0.2820  0.4236
15713TIP3    H168630   0.883   6.769  11.066 -0.0201  0.1986 -1.1423
15713TIP3    H268631   0.773   6.837  10.989 -1.5092  0.5274  1.1639
15714TIP3   OH268632   1.115   2.153  15.536  0.2078  0.4494 -0.2223
15714TIP3    H168633   1.119   2.127  15.628  0.2806  1.8274  0.1820
15714TIP3    H268634   1.037   2.208  15.530 -1.3666 -1.7275 -1.5808
15715TIP3   OH268635   5.346   2.578  17.155 -0.2873 -0.3821 -0.0664
15715TIP3    H168636   5.328   2.564  17.062  1.6832 -0.2584 -0.5141
15715TIP3    H268637   5.263   2.562  17.198 -1.1117 -1.0122 -1.7945
15716TIP3   OH268638   0.359   4.887   4.346  0.1604  0.9328  0.2241
15716TIP3    H168639   0.391   4.967   4.304  1.1412  0.9229  0.9028
15716TIP3    H268640   0.400   4.888   4.433  1.8285 -1.2592 -0.4319
15717TIP3   OH268641   6.075   3.074  12.159  0.6908  0.6818 -0.2140
15717TIP3    H168642   6.035   2.996  12.122  1.1777  0.7264 -0.8469
15717TIP3    H268643   6.053   3.144  12.098 -0.1650  1.1613  0.5983
15718TIP3   OH268644   6.640   4.362   5.502 -0.1250  0.0662 -0.1903
15718TIP3    H168645   6.717   4.306   5.513 -1.4484 -1.8783 -0.2106
15718TIP3    H268646   6.602   4.369   5.590  0.3652  1.5103 -0.0710
15719TIP3   OH268647   1.588   2.321  15.623  0.7246 -0.2352  0.0880
15719TIP3    H168648   1.536   2.321  15.704 -1.8782 -0.3995 -1.4813
15719TIP3    H268649   1.654   2.390  15.637  0.4837 -0.3798  2.3734
15720TIP3   OH268650   2.720   3.751  11.603 -0.0909  0.3033 -0.0688
15720TIP3    H168651   2.675   3.682  11.555 -0.5415  0.3619  0.2639
15720TIP3    H268652   2.659   3.777  11.672  0.2103  0.7967  0.0230
15721TIP3   OH268653   2.758   4.793   5.488  0.2757 -0.0103 -0.1596
15721TIP3    H168654   2.786   4.810   5.398  1.0494 -1.0688 -0.1355
15721TIP3    H268655   2.817   4.724   5.519  0.6774  1.0368  1.5014
15722TIP3   OH268656   3.331   3.175   2.325 -0.2192  0.0206  0.1808
15722TIP3    H168657   3.354   3.219   2.243  1.6462  2.2011  1.7596
15722TIP3    H268658   3.264   3.230   2.365 -0.9212 -0.8890  0.3126
15723TIP3   OH268659   4.358   3.500  15.708  0.1081  0.1377  0.0116
15723TIP3    H168660   4.443   3.497  15.664 -0.2104 -0.1084 -0.5914
15723TIP3    H268661   4.319   3.582  15.678 -0.5306 -0.5077 -0.9654
15724TIP3   OH268662   0.960   4.811   2.301  0.0052 -0.2882  0.0366
15724TIP3    H168663   0.916   4.761   2.232  1.5642 -0.9163 -0.5579
15724TIP3    H268664   0.913   4.894   2.305 -0.4279 -0.4392 -1.4482
15725TIP3   OH268665   5.014   1.180   2.275 -0.1338  0.3373  0.5332
15725TIP3    H168666   5.014   1.224   2.360 -0.3458 -0.3322  0.8889
15725TIP3    H268667   4.967   1.098   2.290 -1.6399  0.9496 -0.6366
15726TIP3   OH268668   2.950   6.342  14.057  0.2474 -0.0291 -0.3552
15726TIP3    H168669   2.989   6.404  13.996 -2.7583  2.3284 -0.1610
15726TIP3    H268670   2.975   6.374  14.144 -0.5352  0.3695 -0.2701
15727TIP3   OH268671   1.591   3.743   2.631  0.6862 -0.0785 -0.1787
15727TIP3    H168672   1.533   3.789   2.570  0.2437  0.1052  0.3739
15727TIP3    H268673   1.631   3.813   2.683 -1.8035 -0.3040  2.3339
15728TIP3   OH268674   0.734   6.353   5.084 -0.1370  0.5266 -0.2506
15728TIP3    H168675   0.821   6.354   5.124 -0.3715  0.8423  0.2666
15728TIP3    H268676   0.698   6.267   5.105  0.1572  0.2918 -0.7038
15729TIP3   OH268677   4.298   6.568  15.825 -0.1676  0.0687  0.0605
15729TIP3    H168678   4.239   6.502  15.860  0.3543 -0.7673 -0.6033
15729TIP3    H268679   4.358   6.587  15.897  0.7053 -1.4014 -0.2572
15730TIP3   OH268680   2.772   6.088   1.027  0.7035 -0.4265 -0.5291
15730TIP3    H168681   2.807   6.172   0.997  1.1193  0.2305  1.6515
15730TIP3    H268682   2.847   6.043   1.065 -0.3667  0.3880  2.9045
15731TIP3   OH268683   3.058   0.915   2.268 -0.0688 -0.4082 -0.3109
15731TIP3    H168684   3.000   0.955   2.203  0.3255 -0.3202 -0.6073
15731TIP3    H268685   3.133   0.973   2.273  0.4407 -1.0290 -0.6427
15732TIP3   OH268686   6.414   2.558   3.610  0.1856 -0.5849 -0.2948
15732TIP3    H168687   6.504   2.528   3.628  0.3228  0.3500  0.6215
15732TIP3    H268688   6.363   2.477   3.606  0.9665 -1.0967 -0.2899
15733TIP3   OH268689   2.430   3.806   0.909  0.0096  0.3841  0.1126
15733TIP3    H168690   2.336   3.801   0.922 -0.2425 -3.1593 -1.7228
15733TIP3    H268691   2.468   3.764   0.986 -0.1740 -1.0433 -0.5410
15734TIP3   OH268692   3.028   4.698   1.851 -0.2462  0.1916 -0.1774
15734TIP3    H168693   3.066   4.770   1.901 -0.6124  0.4330 -0.2413
15734TIP3    H268694   2.971   4.741   1.787  0.7278 -0.0876 -1.2414
15735TIP3   OH268695   1.091   5.211   0.539  0.2431 -0.1128  0.2462
15735TIP3    H168696   1.085   5.266   0.618 -0.0972 -2.1313  1.7020
15735TIP3    H268697   1.029   5.251   0.478 -0.1477  1.0045  1.3165
15736TIP3   OH268698   2.266   0.030  11.834 -0.4869  0.3626 -0.2796
15736TIP3    H168699   2.314   0.038  11.916  0.9548  0.5002 -1.1066
15736TIP3    H268700   2.208   0.107  11.832  0.3372  1.0063  0.0598
15737TIP3   OH268701   5.953   1.458   5.580  0.4951  0.7406  0.2014
15737TIP3    H168702   6.014   1.385   5.568 -0.7695 -0.0039 -2.5256
15737TIP3    H268703   6.006   1.536   5.560  0.7639  0.1412 -1.6862
15738TIP3   OH268704   6.102   3.678   5.721  0.2597 -0.3344  0.4076
15738TIP3    H168705   6.074   3.676   5.630  2.1836  1.2942 -0.2915
15738TIP3    H268706   6.139   3.592   5.737  1.2820 -0.1460 -0.8430
15739TIP3   OH268707   2.956   4.170  14.236 -0.2775 -0.1532 -0.4845
15739TIP3    H168708   2.987   4.203  14.152 -0.5535 -1.1544 -0.9933
15739TIP3    H268709   3.036   4.161  14.289  0.1018 -0.9310 -1.1549
15740TIP3   OH268710   3.995   3.999   3.739  0.9069  0.3119 -0.3141
15740TIP3    H168711   4.021   3.997   3.831  1.7341  0.0811 -0.5491
15740TIP3    H268712   3.966   3.910   3.719 -1.4728  0.8664  0.3189
15741TIP3   OH268713   5.490   1.289  16.270  1.1496  0.0752  0.7384
15741TIP3    H168714   5.576   1.296  16.228  0.8723  1.1828  0.3068
15741TIP3    H268715   5.504   1.321  16.359  1.3050 -0.2991  0.8485
15742TIP3   OH268716   6.090   1.556  11.880 -0.1741 -0.1651  0.4850
15742TIP3    H168717   6.092   1.639  11.927  0.6289  0.2652 -0.2837
15742TIP3    H268718   5.997   1.535  11.871 -0.7033  2.6563 -2.7419
15743TIP3   OH268719   2.686   3.893   3.734  0.5771  0.0315 -0.2790
15743TIP3    H168720   2.594   3.871   3.749  0.5964 -1.7254 -2.2175
15743TIP3    H268721   2.729   3.878   3.818 -0.6226 -0.8395  0.1989
15744TIP3   OH268722   6.304   3.112  11.011 -0.3243 -0.3014 -0.2086
15744TIP3    H168723   6.350   3.032  10.988  0.3268  0.1429 -0.4983
15744TIP3    H268724   6.281   3.152  10.926  1.4431  0.9873 -0.1331
15745TIP3   OH268725   1.358   4.688   0.267 -0.1681 -0.0618  0.1210
15745TIP3    H168726   1.339   4.641   0.348 -1.1044  0.2326  0.0807
15745TIP3    H268727   1.410   4.764   0.295 -0.8017  0.2395  0.4973
15746TIP3   OH268728   3.860   4.863   5.544 -0.0308  0.4200  0.1635
15746TIP3    H168729   3.824   4.857   5.456 -0.6327  1.5579  0.3119
15746TIP3    H268730   3.794   4.823   5.600 -0.7796  1.8525  0.3515
15747TIP3   OH268731   5.924   4.351   3.958 -0.0075 -0.3971  0.2434
15747TIP3    H168732   5.998   4.412   3.960 -0.7477  0.5202  0.2288
15747TIP3    H268733   5.946   4.285   4.024 -0.4959  1.4732  2.4165
15748TIP3   OH268734   2.278   5.698  12.111  0.3100  0.2479 -0.3074
15748TIP3    H168735   2.340   5.720  12.180 -0.9405  2.9351  0.1003
15748TIP3    H268736   2.290   5.765  12.044 -0.8315 -0.3013 -1.1156
15749TIP3   OH268737   4.819   4.681  14.518  0.2565  0.0436  0.2975
15749TIP3    H168738   4.724   4.686  14.512  0.0217 -0.4079  2.7992
15749TIP3    H268739   4.848   4.673  14.427 -1.9356  2.1229 -0.6994
15750TIP3   OH268740   4.471   4.390  14.282  0.1740 -0.1777  0.1723
15750TIP3    H168741   4.447   4.418  14.193 -0.1226 -2.0288 -0.3604
15750TIP3    H268742   4.428   4.454  14.339 -1.3157 -0.1132 -0.9486
15751TIP3   OH268743   3.998   0.621  14.642  0.3701  0.2809  0.2521
15751TIP3    H168744   3.932   0.573  14.691 -0.6441  0.7218 -0.6410
15751TIP3    H268745   4.055   0.660  14.709  0.1847 -0.7256  1.0140
15752TIP3   OH268746   2.805   0.773  11.165 -0.2650 -0.5819 -0.2516
15752TIP3    H168747   2.836   0.858  11.197  0.4776 -0.5741 -0.9580
15752TIP3    H268748   2.802   0.783  11.070 -0.1126 -1.3710 -0.3468
15753TIP3   OH268749   4.112   6.576   4.753 -0.0158 -0.5508 -0.6053
15753TIP3    H168750   4.120   6.665   4.720 -0.6672 -0.4611 -0.5284
15753TIP3    H268751   4.184   6.528   4.711  0.9639  0.2247  0.1372
15754TIP3   OH268752   3.055   6.240  14.681 -0.5603  0.9172 -0.6522
15754TIP3    H168753   3.105   6.162  14.703 -2.6406 -0.7090 -1.3730
15754TIP3    H268754   3.107   6.284  14.613  0.4659 -0.0252 -0.4902
15755TIP3   OH268755   3.560   0.905  10.517 -0.0711  0.2166 -0.6615
15755TIP3    H168756   3.643   0.924  10.474 -1.0567  0.5879 -2.5003
15755TIP3    H268757   3.499   0.970  10.481 -1.4937 -0.9466 -0.4522
15756TIP3   OH268758   1.317   1.194   6.762 -0.4972  0.5282  0.4352
15756TIP3    H168759   1.408   1.210   6.787 -0.4111  1.3777 -0.3788
15756TIP3    H268760   1.308   1.099   6.767 -0.0189  0.5275  2.0081
15757TIP3   OH268761   1.549   3.463  13.226 -0.3453 -0.7585  0.4351
15757TIP3    H168762   1.545   3.558  13.234  0.3518 -0.6766 -0.0837
15757TIP3    H268763   1.572   3.433  13.314 -0.7330 -0.4628  0.6391
15758TIP3   OH268764   6.126   3.712  11.956  0.6329 -0.2212 -0.3745
15758TIP3    H168765   6.192   3.725  12.023  0.7034  0.7072 -0.5987
15758TIP3    H268766   6.161   3.643  11.900  1.2188 -0.0394 -0.2395
15759TIP3   OH268767   3.829   4.957  14.392 -0.0825  0.1827  0.2387
15759TIP3    H168768   3.848   5.007  14.312  0.2412 -1.6186 -0.8518
15759TIP3    H268769   3.901   4.894  14.399 -1.3255 -1.2558  0.6245
15760TIP3   OH268770   3.592   0.105  11.409 -0.0378 -0.4118  0.0653
15760TIP3    H168771   3.623   0.047  11.478 -0.3058  0.1159  0.6306
15760TIP3    H268772   3.501   0.124  11.432 -0.0100  0.0842 -0.2197
15761TIP3   OH268773   4.873   5.364   0.620  0.5608 -0.0818 -0.0641
15761TIP3    H168774   4.796   5.343   0.673  0.3553 -0.2420 -0.4245
15761TIP3    H268775   4.884   5.458   0.631  0.0170  0.0290 -0.3952
15762TIP3   OH268776   1.063   5.433  13.330  0.2983  0.1510 -0.3819
15762TIP3    H168777   1.141   5.392  13.367  0.0450  0.6940  0.8138
15762TIP3    H268778   1.015   5.362  13.287  0.1325 -0.7283  1.1819
15763TIP3   OH268779   3.059   1.771   4.409 -0.5289 -0.2214  0.0728
15763TIP3    H168780   3.002   1.782   4.332 -0.2111 -0.9181 -0.2722
15763TIP3    H268781   3.062   1.676   4.422  0.1212 -0.1530  0.4188
15764TIP3   OH268782   5.686   3.214   6.416 -0.1869  0.0309  0.3924
15764TIP3    H168783   5.732   3.274   6.475 -0.5270  1.5595 -0.8319
15764TIP3    H268784   5.726   3.128   6.433  0.7906  0.7137  1.7027
15765TIP3   OH268785   0.058   5.442   6.143  0.3935 -0.1492  0.1398
15765TIP3    H168786   0.139   5.393   6.134  0.9010  0.8719 -1.1185
15765TIP3    H268787   0.067   5.488   6.227  0.6148 -0.9102  0.5413
15766TIP3   OH268788   1.791   0.139   2.361  0.1055 -0.1144  0.5435
15766TIP3    H168789   1.755   0.083   2.292 -0.9524  1.4521 -0.2184
15766TIP3    H268790   1.886   0.139   2.344 -0.1021 -0.0485 -0.6934
15767TIP3   OH268791   0.746   2.027  14.369  0.4732  0.1796 -0.0182
15767TIP3    H168792   0.659   2.055  14.396  1.0447  1.7777  0.2504
15767TIP3    H268793   0.737   2.007  14.275 -0.2735 -0.1472  0.1162
15768TIP3   OH268794   5.427   0.839  17.233  0.3498 -0.0161  0.3980
15768TIP3    H168795   5.435   0.749  17.203  1.9730 -0.0021  0.6996
15768TIP3    H268796   5.489   0.846  17.305 -0.4791  1.0839  1.0449
15769TIP3   OH268797   0.954   0.766   2.222  0.4260  0.1846 -0.1159
15769TIP3    H168798   1.039   0.809   2.229  0.4473  0.5676 -1.9870
15769TIP3    H268799   0.958   0.693   2.284  1.1411  1.6635  1.6521
15770TIP3   OH268800   2.253   3.218   5.503 -0.0865  0.0890  0.0013
15770TIP3    H168801   2.259   3.285   5.434 -0.0395  1.7308  1.5237
15770TIP3    H268802   2.166   3.180   5.492 -0.0896  0.3259 -0.9336
15771TIP3   OH268803   3.468   0.541   3.978 -0.1740  0.0191 -0.0664
15771TIP3    H168804   3.552   0.587   3.973  0.4640 -0.9210  1.3365
15771TIP3    H268805   3.438   0.536   3.887  0.7579  1.3139 -0.4653
15772TIP3   OH268806   4.117   3.300   5.219  0.5387  0.1087 -0.2805
15772TIP3    H168807   4.052   3.294   5.149  0.8568 -1.4660 -0.4905
15772TIP3    H268808   4.181   3.364   5.189 -0.9255  1.7657 -0.0309
15773TIP3   OH268809   0.909   0.119   3.222  0.6822 -0.3740 -0.3096
15773TIP3    H168810   0.837   0.174   3.192  2.4797  2.1070 -0.3782
15773TIP3    H268811   0.894   0.107   3.316  1.1664  1.8285  0.0977
15774TIP3   OH268812   5.127   3.047   6.265  0.5387 -0.3889  0.2823
15774TIP3    H168813   5.190   3.011   6.327  0.2705 -1.8034 -0.2327
15774TIP3    H268814   5.044   3.050   6.312  1.0251  1.9800  1.1396
15775TIP3   OH268815   6.675   0.240   3.833  0.4099 -0.1847 -0.5728
15775TIP3    H168816   6.670   0.267   3.925  1.4201 -0.4252 -0.4360
15775TIP3    H268817   6.583   0.233   3.805  0.0942  0.6845  0.1730
15776TIP3   OH268818   2.576   0.309   4.123  0.2489 -0.1796 -0.2455
15776TIP3    H168819   2.484   0.290   4.104  0.8819 -1.7940 -2.0937
15776TIP3    H268820   2.621   0.226   4.107  1.8723  0.1669  2.0586
15777TIP3   OH268821   6.665   5.076  16.450  0.3469 -0.4071  0.7007
15777TIP3    H168822   6.703   5.158  16.420 -1.5637 -0.1014 -1.1158
15777TIP3    H268823   6.665   5.084  16.545 -0.4169  2.0562  0.5851
15778TIP3   OH268824   3.358   0.754   0.159 -0.0063 -0.1165  0.4511
15778TIP3    H168825   3.263   0.745   0.162  0.0517 -0.7280  0.5501
15778TIP3    H268826   3.378   0.777   0.069 -0.4144  2.0717  0.8676
15779TIP3   OH268827   0.357   0.017   2.890 -0.5149  0.2788 -0.2743
15779TIP3    H168828   0.271  -0.003   2.855  0.1705 -1.1136 -1.2730
15779TIP3    H268829   0.399  -0.068   2.902  0.5900  0.9071  0.5400
15780TIP3   OH268830   6.299   6.708   2.761 -0.0811  0.2007 -0.2601
15780TIP3    H168831   6.344   6.786   2.729 -0.0649  0.7340  0.9893
15780TIP3    H268832   6.347   6.635   2.723  0.1792  0.7961 -1.0918
15781TIP3   OH268833   1.651   1.881  13.761  0.0240 -0.4015 -0.2350
15781TIP3    H168834   1.567   1.841  13.738 -0.0675 -0.3869  0.0754
15781TIP3    H268835   1.629   1.969  13.790  0.0205 -0.7891  0.9811
15782TIP3   OH268836   5.455   5.234  17.250 -0.3538  0.7223 -0.9129
15782TIP3    H168837   5.454   5.145  17.286  1.1674  0.9409 -0.3008
15782TIP3    H268838   5.540   5.270  17.275 -2.1089  3.5439  1.6872
15783TIP3   OH268839   3.968   5.504   2.100  0.8537  0.4845 -0.6442
15783TIP3    H168840   3.919   5.478   2.022  2.2961  1.0539 -1.7913
15783TIP3    H268841   3.919   5.578   2.136  0.7498  0.9124 -1.6414
15784TIP3   OH268842   0.141   4.722  12.398  0.0842 -0.3135 -0.0886
15784TIP3    H168843   0.058   4.763  12.421  0.8794  2.2075 -1.3012
15784TIP3    H268844   0.117   4.632  12.373 -2.2146  0.2311 -0.1102
15785TIP3   OH268845   1.860   5.696  10.584 -0.2489 -0.4214 -0.8241
15785TIP3    H168846   1.836   5.611  10.620 -0.2184 -0.0467  0.0984
15785TIP3    H268847   1.942   5.718  10.627  0.9690 -0.9394 -2.7247
15786TIP3   OH268848   2.965   0.226   5.726  0.3500 -0.1173 -0.5855
15786TIP3    H168849   2.886   0.207   5.777 -0.1470  2.2829 -0.3417
15786TIP3    H268850   2.991   0.142   5.690 -2.3437 -0.9828 -0.7189
15787TIP3   OH268851   6.385   2.961   3.295  0.8039  0.2047 -0.0975
15787TIP3    H168852   6.296   2.960   3.259  0.6624 -0.6259  0.2635
15787TIP3    H268853   6.400   2.872   3.327  1.6444  0.4215  0.1548
15788TIP3   OH268854   6.076   1.700  17.022 -0.1196  0.4848 -0.4024
15788TIP3    H168855   6.081   1.787  17.062  1.1930  0.1083  0.3051
15788TIP3    H268856   6.017   1.650  17.080 -0.6349  0.8097 -0.6443
15789TIP3   OH268857   0.236   2.718  16.902 -1.1650 -0.4863  0.0767
15789TIP3    H168858   0.158   2.771  16.919 -0.7759  1.0671 -2.4313
15789TIP3    H268859   0.210   2.628  16.922 -3.4640  0.0382 -0.3219
15790TIP3   OH268860   2.715   3.395   2.033  0.0456  0.3130 -0.0965
15790TIP3    H168861   2.701   3.401   2.128  1.1561 -0.6435  0.1528
15790TIP3    H268862   2.807   3.420   2.021  0.0686 -0.1271 -0.8515
15791TIP3   OH268863   3.498   3.940   0.072 -0.2413 -0.1842  0.4202
15791TIP3    H168864   3.454   3.963   0.154  1.7227  0.5617  1.3183
15791TIP3    H268865   3.501   4.023   0.023  0.4598 -0.1315  0.5369
15792TIP3   OH268866   0.293   4.701   4.597  0.0330  0.1043 -0.3892
15792TIP3    H168867   0.284   4.631   4.661  2.8689 -0.4126 -0.4041
15792TIP3    H268868   0.264   4.663   4.515 -0.1584 -0.4560 -0.0663
15793TIP3   OH268869   4.052   1.300   4.532 -0.4917  0.6194  0.3563
15793TIP3    H168870   4.144   1.275   4.521 -0.8146 -0.6249  0.3725
15793TIP3    H268871   4.019   1.243   4.602 -1.4855  0.4728 -0.2074
15794TIP3   OH268872   6.782   4.588   2.043 -0.3749  0.1354  0.4513
15794TIP3    H168873   6.811   4.520   2.104 -0.5769  1.1602  1.7297
15794TIP3    H268874   6.813   4.558   1.958  0.9723 -0.7447  1.2104
15795TIP3   OH268875   0.698   6.548   0.358 -0.6205 -0.0863  1.0232
15795TIP3    H168876   0.658   6.497   0.288  1.7343 -0.9204  0.1955
15795TIP3    H268877   0.706   6.487   0.431  0.5742 -0.4466  0.6237
15796TIP3   OH268878   1.890   3.757  16.160  0.3650  0.3729  0.9187
15796TIP3    H168879   1.954   3.794  16.221  1.4718 -1.5642  1.0164
15796TIP3    H268880   1.942   3.732  16.083 -0.4890 -0.0972  0.4777
15797TIP3   OH268881   6.127   6.090   1.587 -0.1399 -0.7394 -0.7989
15797TIP3    H168882   6.092   6.106   1.499  0.6480  0.0632 -0.9736
15797TIP3    H268883   6.083   6.155   1.642  0.4334 -0.2896 -0.8660
15798TIP3   OH268884   0.400   1.314  13.254  0.3461  0.0598 -0.1785
15798TIP3    H168885   0.463   1.384  13.270  0.8819 -0.1320 -1.3693
15798TIP3    H268886   0.352   1.305  13.337  1.7347  0.3353  0.6778
15799TIP3   OH268887   0.302   2.392   3.953 -0.5447 -0.7858  0.0198
15799TIP3    H168888   0.338   2.347   4.030 -0.7032  1.2666  1.3776
15799TIP3    H268889   0.326   2.336   3.879  2.2065 -1.3708  1.2333
15800TIP3   OH268890   0.670   3.134  13.436  0.0779  0.0463 -0.0277
15800TIP3    H168891   0.703   3.049  13.407  1.8002  0.6621  0.0206
15800TIP3    H268892   0.578   3.134  13.410  0.0421 -1.8233 -0.0127
15801TIP3   OH268893   4.294   1.094  14.803 -0.1393  0.0395  0.1471
15801TIP3    H168894   4.221   1.084  14.742  0.6958  1.5296 -1.1711
15801TIP3    H268895   4.259   1.149  14.873 -0.4632  0.2582 -0.1828
15802TIP3   OH268896   5.619   1.082  10.840  0.8237 -0.4827 -0.2098
15802TIP3    H168897   5.701   1.126  10.864  1.0984 -0.2823 -1.4631
15802TIP3    H268898   5.634   1.050  10.751 -0.5565 -0.2267 -0.5492
15803TIP3   OH268899   4.460   3.439  14.258  0.1245 -0.1847  0.0220
15803TIP3    H168900   4.426   3.528  14.245  0.5405 -0.2767 -1.9683
15803TIP3    H268901   4.396   3.397  14.315 -0.6281  1.0683  0.1456
15804TIP3   OH268902   0.225   4.800   0.692  0.7035  0.1898 -0.0894
15804TIP3    H168903   0.225   4.873   0.754 -0.8626 -0.0837  0.2589
15804TIP3    H268904   0.137   4.764   0.697  0.8987 -0.5686 -1.6336
15805TIP3   OH268905   4.672   4.890   3.548 -0.2842 -0.1860  0.0381
15805TIP3    H168906   4.754   4.871   3.503 -0.5813  0.8434 -0.9822
15805TIP3    H268907   4.618   4.812   3.534  0.6771 -1.0924  1.1701
15806TIP3   OH268908   4.531   3.494  13.379  0.3549  0.2211  0.2584
15806TIP3    H168909   4.589   3.419  13.396 -0.9325 -0.4770  1.8638
15806TIP3    H268910   4.465   3.459  13.318 -0.1201  0.0854  0.8385
15807TIP3   OH268911   6.501   5.682   5.334 -0.1176 -0.5099  0.0625
15807TIP3    H168912   6.517   5.748   5.267  0.4801 -2.0804 -1.4014
15807TIP3    H268913   6.428   5.717   5.386 -1.1403  0.4070 -1.8928
15808TIP3   OH268914   1.725   4.263  12.507  0.0268  0.2852 -0.1287
15808TIP3    H168915   1.772   4.340  12.476  0.3292  0.0351 -0.2974
15808TIP3    H268916   1.641   4.265  12.461  0.2908  0.1625 -0.6246
15809TIP3   OH268917   0.262   3.805  14.253 -0.3112  0.6841  0.3233
15809TIP3    H168918   0.252   3.897  14.230 -0.1726  0.8399  0.8591
15809TIP3    H268919   0.311   3.767  14.180  0.3828  1.2294  0.4900
15810TIP3   OH268920   1.655   1.959  14.426 -0.2105 -0.0749  0.3945
15810TIP3    H168921   1.577   1.933  14.474  0.2897  0.0020  1.2701
15810TIP3    H268922   1.704   1.877  14.414 -1.1247 -0.4125 -1.5327
15811TIP3   OH268923   6.044   6.082  10.859  0.2270 -0.1303 -0.4259
15811TIP3    H168924   6.038   6.159  10.802  0.8499 -0.7929 -1.4123
15811TIP3    H268925   6.005   6.011  10.808  0.4661 -0.6684  0.1282
15812TIP3   OH268926   2.643   4.861  15.903  0.1439 -0.1367  0.0745
15812TIP3    H168927   2.638   4.825  15.991  2.3117 -1.7150 -0.3690
15812TIP3    H268928   2.733   4.893  15.895 -0.2664  0.7826 -1.2848
15813TIP3   OH268929   2.720   4.078  16.141 -0.1269 -0.1901 -0.6076
15813TIP3    H168930   2.733   4.161  16.095  0.3581  0.2285  0.2647
15813TIP3    H268931   2.803   4.061  16.186 -0.9871  0.1180  1.2105
15814TIP3   OH268932   2.059   5.669  14.189  0.0324  0.1957 -0.3245
15814TIP3    H168933   2.104   5.586  14.169 -0.8421 -0.5017  0.4901
15814TIP3    H268934   2.116   5.711  14.253 -1.2363 -1.5086  2.0806
15815TIP3   OH268935   6.059   3.270  11.374  0.5638 -0.0691  0.0581
15815TIP3    H168936   6.012   3.223  11.305 -0.2883  0.8397  0.0056
15815TIP3    H268937   6.150   3.242  11.364  0.2243 -1.0377 -0.5186
15816TIP3   OH268938   2.225   6.475   5.158 -0.2106 -0.3664 -0.1781
15816TIP3    H168939   2.262   6.561   5.174  0.6427 -0.4089 -1.7439
15816TIP3    H268940   2.265   6.418   5.224  1.2052 -0.0586 -0.7477
15817TIP3   OH268941   3.747   6.180  17.124 -0.1795  0.2738 -0.3214
15817TIP3    H168942   3.790   6.219  17.048 -0.0721  0.6362 -0.0763
15817TIP3    H268943   3.790   6.220  17.200  0.5105 -0.9227 -0.0477
15818TIP3   OH268944   4.835   2.834  13.448 -0.0919 -0.2650  0.4045
15818TIP3    H168945   4.850   2.763  13.386  0.1409 -0.7697  1.0275
15818TIP3    H268946   4.856   2.797  13.534 -2.7252 -0.3383  1.1013
15819TIP3   OH268947   0.380   4.029  12.713 -0.4513 -0.1269  0.3297
15819TIP3    H168948   0.449   3.969  12.686 -0.1049  0.5369 -0.3194
15819TIP3    H268949   0.301   3.997  12.669 -0.8325 -1.5479  1.9620
15820TIP3   OH268950   4.025   1.683  16.891 -0.3050  0.0660 -0.1944
15820TIP3    H168951   3.956   1.658  16.829 -2.6200  2.2275  1.3135
15820TIP3    H268952   3.998   1.769  16.923  2.3446  0.3184  1.6498
15821TIP3   OH268953   2.181   3.120  11.880 -0.1746  0.2123 -0.5304
15821TIP3    H168954   2.139   3.102  11.796  0.7475  0.4556 -1.0579
15821TIP3    H268955   2.197   3.034  11.917 -0.8420  0.1092 -0.4655
15822TIP3   OH268956   5.733   6.145  16.351 -0.4494  0.2864 -0.0180
15822TIP3    H168957   5.770   6.057  16.355 -2.3952 -0.5466  0.3874
15822TIP3    H268958   5.674   6.143  16.276  0.0725  1.4986 -0.4848
15823TIP3   OH268959   2.628   3.523  13.859 -0.1549 -0.4091 -0.3411
15823TIP3    H168960   2.579   3.488  13.785  0.1490  0.2775 -0.8812
15823TIP3    H268961   2.656   3.610  13.830 -0.5664  0.1297  0.8212
15824TIP3   OH268962   3.618   2.667   3.737  0.0783 -0.4029 -0.1850
15824TIP3    H168963   3.662   2.583   3.747  2.5866  0.9528  1.1895
15824TIP3    H268964   3.639   2.696   3.648 -0.5983 -1.0941 -0.5786
15825TIP3   OH268965   0.372   6.026   5.601  0.1099 -0.4989 -0.0665
15825TIP3    H168966   0.353   5.972   5.525 -0.6166  0.1618 -0.3733
15825TIP3    H268967   0.465   6.047   5.593 -0.2684  0.7996 -1.6184
15826TIP3   OH268968   4.826   5.307   0.223  0.2680  0.3376  0.4067
15826TIP3    H168969   4.886   5.359   0.276 -1.2497 -0.1272  2.7507
15826TIP3    H268970   4.817   5.225   0.272 -0.7755 -0.3607 -0.8957
15827TIP3   OH268971   5.772   5.743  16.018  0.1401  0.7622  0.3492
15827TIP3    H168972   5.844   5.684  15.996 -0.5708  0.5085 -1.5087
15827TIP3    H268973   5.694   5.697  15.989 -0.5971  1.8519  0.5494
15828TIP3   OH268974   3.510   4.944   5.549 -0.2775 -0.4042  0.2141
15828TIP3    H168975   3.427   4.985   5.569  0.2513  0.8402 -0.0571
15828TIP3    H268976   3.495   4.896   5.467 -0.7844 -0.4176  0.3146
15829TIP3   OH268977   0.688   4.753  14.901  0.1830  0.3592  0.3511
15829TIP3    H168978   0.634   4.808  14.957 -0.7704 -1.1915  1.0403
15829TIP3    H268979   0.771   4.746  14.946 -0.0227  0.4574  0.7470
15830TIP3   OH268980   4.611   4.430  10.971  0.7111  0.6821 -0.4538
15830TIP3    H168981   4.644   4.381  10.896  3.6535 -0.0286  1.1539
15830TIP3    H268982   4.517   4.437  10.956  0.9497 -0.8898 -3.3240
15831TIP3   OH268983   5.144   2.863   0.986 -0.1266  0.3476  0.5605
15831TIP3    H168984   5.186   2.853   0.900 -1.1304 -0.2356  0.1254
15831TIP3    H268985   5.145   2.958   1.002 -0.4259  0.5083 -0.3423
15832TIP3   OH268986   1.930   3.923   0.100  0.5274  0.0529  0.5722
15832TIP3    H168987   1.939   3.955   0.190 -2.0282  0.0553  0.8950
15832TIP3    H268988   1.973   3.990   0.046  0.7221  0.8443  1.6867
15833TIP3   OH268989   6.413   5.843  13.342  0.3607 -0.5456 -0.1610
15833TIP3    H168990   6.486   5.893  13.377  1.0947 -1.1814 -0.7625
15833TIP3    H268991   6.340   5.905  13.342  0.9631  0.1816  0.1751
15834TIP3   OH268992   5.787   3.560  11.563 -0.1206 -0.5209  0.0627
15834TIP3    H168993   5.786   3.510  11.481  0.0170  0.0447 -0.2913
15834TIP3    H268994   5.797   3.494  11.631  0.3278 -0.9621 -0.4163
15835TIP3   OH268995   0.103   4.620   5.472  0.2377 -0.1997 -0.2573
15835TIP3    H168996   0.062   4.654   5.552 -0.9421 -1.2720 -0.3829
15835TIP3    H268997   0.037   4.564   5.433  1.1051 -0.3465 -1.5730
15836TIP3   OH268998   1.196   2.715   1.192 -0.5168 -0.4464 -0.0965
15836TIP3    H168999   1.159   2.787   1.141  1.7622  0.7373 -0.1807
15836TIP3    H269000   1.120   2.674   1.233 -1.9334  2.0064 -0.0397
15837TIP3   OH269001   2.497   5.295  16.506 -0.2174  0.2633 -0.2111
15837TIP3    H169002   2.434   5.279  16.576  1.3076 -0.6355  1.0303
15837TIP3    H269003   2.453   5.264  16.427 -0.1286 -3.7664  1.0707
15838TIP3   OH269004   0.790   0.017   2.291 -0.7852  0.0130  0.0040
15838TIP3    H169005   0.792   0.032   2.196  0.7806 -0.7218 -0.1044
15838TIP3    H269006   0.701  -0.014   2.308 -1.1355  0.2900 -1.2013
15839TIP3   OH269007   6.278   5.579   4.778  0.1259  0.3912 -0.5169
15839TIP3    H169008   6.341   5.527   4.828  0.3640 -0.0745 -1.2848
15839TIP3    H269009   6.238   5.637   4.842  0.5142 -0.1114  0.1865
15840TIP3   OH269010   4.219   0.366   4.730  0.0181 -0.1420  0.2393
15840TIP3    H169011   4.144   0.307   4.738  0.4767 -0.5725  1.5956
15840TIP3    H269012   4.295   0.308   4.726  0.2857  0.2569 -1.7838
15841TIP3   OH269013   3.167   5.921  13.332  0.5048 -0.4234  0.1505
15841TIP3    H169014   3.155   5.944  13.424  2.0482 -0.2024  0.3135
15841TIP3    H269015   3.254   5.954  13.309 -0.6764  1.4553 -2.0145
15842TIP3   OH269016   5.949   0.961  15.629  0.1860  0.3243 -0.0280
15842TIP3    H169017   5.902   0.889  15.587 -2.2383  1.5334  0.4491
15842TIP3    H269018   5.907   0.971  15.714  1.0421  1.7618  0.2618
15843TIP3   OH269019   0.967   2.046  12.951 -0.2048 -0.3863 -0.3259
15843TIP3    H169020   0.873   2.054  12.932 -0.3150  0.1302  0.4238
15843TIP3    H269021   0.983   1.951  12.949 -1.0026 -0.5644  0.7300
15844TIP3   OH269022   5.019   4.315   5.390 -1.2599  0.2736 -0.1765
15844TIP3    H169023   5.106   4.335   5.425 -1.5175  2.1528 -0.4900
15844TIP3    H269024   5.028   4.327   5.295 -1.8981  0.7011 -0.1900
15845TIP3   OH269025   3.462   5.592   1.370  0.6107  0.9041  0.4734
15845TIP3    H169026   3.519   5.516   1.356 -0.7163 -0.5714  2.4208
15845TIP3    H269027   3.494   5.658   1.308  0.7808 -1.7584 -2.5249
15846TIP3   OH269028   5.109   2.726   6.469  0.6526  0.1231  0.0964
15846TIP3    H169029   5.036   2.716   6.530  0.9616  0.8780  0.6126
15846TIP3    H269030   5.170   2.656   6.492 -0.0477 -0.7110 -0.5553
15847TIP3   OH269031   3.202   6.192  16.708  0.0174  0.1984 -0.2622
15847TIP3    H169032   3.145   6.184  16.632 -1.0824 -1.3949  0.6743
15847TIP3    H269033   3.226   6.285  16.711 -2.2181  0.8458 -0.9326
15848TIP3   OH269034   5.289   6.806   2.686 -0.5554  0.1051 -0.3296
15848TIP3    H169035   5.341   6.730   2.711 -0.5537  0.1602 -0.1608
15848TIP3    H269036   5.343   6.853   2.623 -0.8267 -0.3761 -0.9307
15849TIP3   OH269037   0.055   4.420  14.756 -0.2630 -0.0539  0.7278
15849TIP3    H169038   0.041   4.326  14.744  0.0051  0.1137 -1.1924
15849TIP3    H269039   0.145   4.435  14.727 -0.2650  0.7820  1.1274
15850TIP3   OH269040   1.260   4.665  12.478 -0.1647  0.3459  0.3352
15850TIP3    H169041   1.295   4.754  12.470  0.6671  0.0184  0.1562
15850TIP3    H269042   1.227   4.644  12.391 -0.5076  0.5303  0.4177
15851TIP3   OH269043   3.227   1.943   0.537  0.0739  0.2691  0.1691
15851TIP3    H169044   3.218   2.001   0.462  0.5732  0.6533  0.4019
15851TIP3    H269045   3.162   1.874   0.522 -0.1719  0.6114 -0.3607
15852TIP3   OH269046   3.528   0.316  14.449 -0.1459  0.3405  0.4302
15852TIP3    H169047   3.467   0.374  14.496  1.8027  2.5139  0.4478
15852TIP3    H269048   3.513   0.336  14.357 -2.0296 -1.9129  0.1715
15853TIP3   OH269049   1.690   3.908   3.333  0.4393 -0.4767 -0.2143
15853TIP3    H169050   1.664   3.844   3.267 -1.2149  0.0504 -0.1289
15853TIP3    H269051   1.785   3.911   3.328  0.4974 -2.2152 -0.8927
15854TIP3   OH269052   5.185   2.549   4.324  0.3505  0.0226 -0.2464
15854TIP3    H169053   5.170   2.641   4.348 -0.2573 -0.6745  2.3834
15854TIP3    H269054   5.100   2.507   4.335  0.2617 -0.6690 -2.8649
15855TIP3   OH269055   2.475   5.546   4.565  0.0314 -0.4224  0.4077
15855TIP3    H169056   2.476   5.492   4.644  1.1249 -2.3060 -0.8177
15855TIP3    H269057   2.565   5.575   4.555 -0.1710  0.0836  0.0170
15856TIP3   OH269058   2.412   3.803   6.054  0.5067 -0.2156 -0.2475
15856TIP3    H169059   2.428   3.885   6.100  0.2695 -0.4628  0.2861
15856TIP3    H269060   2.469   3.807   5.977 -2.1896  2.1365 -2.3492
15857TIP3   OH269061   2.530   5.635   0.818 -0.1522  0.1151  0.1247
15857TIP3    H169062   2.528   5.541   0.836 -0.3434 -0.3176 -1.9875
15857TIP3    H269063   2.440   5.657   0.793  0.0591  0.7215 -0.1257
15858TIP3   OH269064   4.848   2.049   4.597  0.3219 -0.2230  0.3123
15858TIP3    H169065   4.846   2.144   4.611 -0.2991 -0.3268  0.9565
15858TIP3    H269066   4.790   2.034   4.523  0.7195 -0.0668 -0.0377
15859TIP3   OH269067   3.591   0.787  13.640  0.1052 -0.0156 -0.1803
15859TIP3    H169068   3.647   0.829  13.706 -1.3327  0.7221  0.6220
15859TIP3    H269069   3.652   0.750  13.577  1.4903  1.2453  0.3614
15860TIP3   OH269070   5.983   1.567  11.412 -0.2773 -0.5057 -0.1568
15860TIP3    H169071   5.936   1.642  11.377  0.2039 -0.1181  0.0084
15860TIP3    H269072   5.915   1.502  11.431 -0.7331  0.0012 -0.0234
15861TIP3   OH269073   5.383   0.989  16.358 -0.2050 -0.3446 -0.5784
15861TIP3    H169074   5.474   1.015  16.348 -0.4030  0.4955 -0.2687
15861TIP3    H269075   5.347   1.052  16.421 -1.0839 -0.4506 -0.9638
15862TIP3   OH269076   1.959   4.048   1.072  0.6390 -0.0133  0.7006
15862TIP3    H169077   2.035   4.030   1.126  0.7398 -0.9845  0.2439
15862TIP3    H269078   1.990   4.109   1.006  0.7562  0.4015  1.1331
15863TIP3   OH269079   1.503   1.299  12.116 -0.2994  0.0996  0.2240
15863TIP3    H169080   1.547   1.244  12.051 -0.2075 -0.0719  0.4307
15863TIP3    H269081   1.570   1.363  12.142 -0.6944  0.9300 -0.7294
15864TIP3   OH269082   6.547   2.033   2.538  0.0254  0.4743  0.4727
15864TIP3    H169083   6.586   1.948   2.522 -0.5679  0.1082  0.9369
15864TIP3    H269084   6.541   2.040   2.633 -1.5984  0.2359  0.4203
15865TIP3   OH269085   2.546   2.648   6.581 -0.3596  0.1133 -0.6649
15865TIP3    H169086   2.456   2.627   6.556 -1.0022  1.7660  0.0761
15865TIP3    H269087   2.560   2.738   6.550  0.4217  0.5114  0.7110
15866TIP3   OH269088   2.156   6.460  13.510  0.1423  0.2397 -0.0639
15866TIP3    H169089   2.115   6.417  13.585 -1.6918 -1.1119 -1.7313
15866TIP3    H269090   2.232   6.404  13.490  0.2980  0.2734  0.4215
15867TIP3   OH269091   0.033   2.231   0.893 -0.2702  0.1573 -0.2132
15867TIP3    H169092   0.024   2.205   0.985  1.0574 -2.4413 -0.7203
15867TIP3    H269093   0.127   2.250   0.883 -0.1809 -0.8186 -1.3025
15868TIP3   OH269094   6.626   4.515  16.030  0.5052 -0.3788  0.0087
15868TIP3    H169095   6.680   4.511  16.109  1.3358 -1.2117 -0.5741
15868TIP3    H269096   6.666   4.452  15.971 -0.3585 -0.0755 -0.9260
15869TIP3   OH269097   5.514   4.479  15.841 -0.0031  0.2763 -0.1418
15869TIP3    H169098   5.544   4.568  15.857 -0.5900  0.6040 -0.8277
15869TIP3    H269099   5.573   4.445  15.774 -0.1294  0.3443 -0.2870
15870TIP3   OH269100   4.819   5.421   1.058 -0.3223  0.2698  0.1908
15870TIP3    H169101   4.862   5.340   1.030 -0.8502 -0.5506  1.6460
15870TIP3    H269102   4.833   5.482   0.985  3.1161  0.0161  0.4617
15871TIP3   OH269103   0.716   6.385  11.977 -0.3390 -0.4570  0.0477
15871TIP3    H169104   0.798   6.382  11.928  0.8087  1.5027  1.6761
15871TIP3    H269105   0.688   6.294  11.984  1.7656 -1.1985 -0.4670
15872TIP3   OH269106   2.187   2.301   3.914 -0.5516 -0.0682 -0.4076
15872TIP3    H169107   2.167   2.394   3.908  0.0437  0.1681  0.9042
15872TIP3    H269108   2.159   2.275   4.002 -0.2715 -1.0120 -0.5759
15873TIP3   OH269109   4.971   4.020   4.852  0.0541  0.4004  0.2814
15873TIP3    H169110   4.925   3.978   4.779 -0.1983 -1.3378  1.3885
15873TIP3    H269111   5.057   3.977   4.853 -0.1299  0.0434  1.2976
15874TIP3   OH269112   4.501   1.508  12.815  0.0814 -0.3058 -0.2238
15874TIP3    H169113   4.406   1.502  12.810  0.1467 -0.9745 -1.0339
15874TIP3    H269114   4.529   1.526  12.725  0.7386 -0.5293 -0.0757
15875TIP3   OH269115   1.179   1.524   0.049  0.7366 -0.2190  0.9307
15875TIP3    H169116   1.217   1.506  -0.037 -0.6893  2.8026 -0.4852
15875TIP3    H269117   1.254   1.535   0.107  1.9669  1.5357 -0.8601
15876TIP3   OH269118   3.711   2.170   0.330  0.4728 -0.0272 -0.7022
15876TIP3    H169119   3.760   2.201   0.406 -1.1711 -1.7913  1.2404
15876TIP3    H269120   3.752   2.087   0.307 -0.8187 -0.9916  0.2707
15877TIP3   OH269121   3.264   0.098   5.520 -0.1323 -0.5083 -0.3186
15877TIP3    H169122   3.326   0.035   5.482 -0.1199  0.3460 -1.7883
15877TIP3    H269123   3.317   0.149   5.582  0.5075 -0.1900 -1.1049
15878TIP3   OH269124   5.607   4.147  16.913  0.4486 -0.9738  0.2687
15878TIP3    H169125   5.687   4.099  16.932  1.2950  0.2013 -0.1893
15878TIP3    H269126   5.636   4.222  16.861 -1.0743 -1.0666 -0.7815
15879TIP3   OH269127   3.795   3.980   0.027 -0.3625  0.0330 -0.3382
15879TIP3    H169128   3.815   4.029  -0.053  0.1428  0.0203 -0.2251
15879TIP3    H269129   3.700   3.988   0.037 -0.4997 -0.4341 -1.2350
15880TIP3   OH269130   4.024   3.298   3.379 -0.3020  0.0295  0.7097
15880TIP3    H169131   3.961   3.284   3.308  1.0568 -1.4713 -0.2564
15880TIP3    H269132   4.012   3.222   3.436  1.0439 -0.6455  0.1488
15881TIP3   OH269133   0.401   5.275  13.881  0.1754  0.1147  0.1972
15881TIP3    H169134   0.405   5.201  13.821  0.2742 -1.3730  1.9251
15881TIP3    H269135   0.482   5.269  13.931  0.0411  1.2247  0.5703
15882TIP3   OH269136   3.901   4.786   2.110 -0.6367  0.4492 -0.0291
15882TIP3    H169137   3.982   4.835   2.096 -0.7338  0.4031 -0.7815
15882TIP3    H269138   3.929   4.695   2.116 -0.5084  0.5421  0.8969
15883TIP3   OH269139   3.636   3.729   3.256 -0.2123  0.4356 -0.4178
15883TIP3    H169140   3.630   3.821   3.282  0.6961  0.7726 -1.3142
15883TIP3    H269141   3.586   3.725   3.174  0.9201  0.4578 -1.1269
15884TIP3   OH269142   0.170   5.756   6.052 -0.4742  1.0149 -0.1668
15884TIP3    H169143   0.092   5.715   6.014 -0.2257  0.7587 -0.4032
15884TIP3    H269144   0.181   5.837   6.003 -0.0470  0.5968 -0.7722
15885TIP3   OH269145   0.799   6.172  16.394 -1.1279 -0.4151  0.5204
15885TIP3    H169146   0.813   6.202  16.484 -1.0504  0.6652  0.1647
15885TIP3    H269147   0.723   6.222  16.363  0.2507  1.0162 -0.7679
15886TIP3   OH269148   6.122   3.552   1.682  0.4144 -0.3191  0.3938
15886TIP3    H169149   6.214   3.561   1.658  0.4277 -1.9667 -0.3480
15886TIP3    H269150   6.076   3.611   1.623  0.7372 -2.0692 -1.7627
15887TIP3   OH269151   6.446   6.486   1.403  0.0425 -0.0482  0.1239
15887TIP3    H169152   6.476   6.440   1.325 -0.5443  0.0574 -0.1721
15887TIP3    H269153   6.457   6.423   1.474 -0.6038 -0.5975 -0.2503
15888TIP3   OH269154   5.214   6.594   5.478  0.1075 -0.0910 -0.3147
15888TIP3    H169155   5.188   6.624   5.392 -0.4340 -2.5137 -1.0904
15888TIP3    H269156   5.149   6.631   5.538 -0.7294 -0.0367 -1.2441
15889TIP3   OH269157   5.460   2.356  16.984 -0.4758 -0.1572  0.4719
15889TIP3    H169158   5.412   2.377  16.905  0.2235  1.6125  0.4700
15889TIP3    H269159   5.400   2.303  17.036 -2.0653  1.1423  0.0400
15890TIP3   OH269160   0.975   3.248  14.279  0.0931 -0.1350  0.0270
15890TIP3    H169161   0.940   3.237  14.368 -0.3568  0.7265 -0.0365
15890TIP3    H269162   1.065   3.276  14.292 -0.2616  0.9415  0.2294
15891TIP3   OH269163   1.489   3.599   4.361  0.0298 -0.1065  0.3292
15891TIP3    H169164   1.469   3.624   4.271 -0.7814 -0.4054  0.4135
15891TIP3    H269165   1.518   3.680   4.403 -0.8510  0.3197  0.1359
15892TIP3   OH269166   4.837   0.810   4.548  0.1969  0.3545  0.2795
15892TIP3    H169167   4.777   0.797   4.621  0.1907  0.9719  0.3912
15892TIP3    H269168   4.807   0.892   4.507  1.1284  0.8141  0.5015
15893TIP3   OH269169   3.813   4.118  12.003 -0.6891 -0.7103  0.3039
15893TIP3    H169170   3.901   4.094  11.974  0.6731  1.1168  2.5136
15893TIP3    H269171   3.758   4.107  11.926  1.7520 -0.4849 -1.6062
15894TIP3   OH269172   0.698   1.775   4.424  0.2885 -0.1635 -0.1188
15894TIP3    H169173   0.751   1.733   4.356 -0.2319 -1.0116 -0.0124
15894TIP3    H269174   0.751   1.850   4.452  0.5224  0.1872 -1.4331
15895TIP3   OH269175   1.312   0.479   1.458 -0.5120 -0.0860 -0.7506
15895TIP3    H169176   1.291   0.407   1.399  1.8429 -1.3890 -0.1292
15895TIP3    H269177   1.309   0.557   1.403  0.2393 -1.0946 -2.2789
15896TIP3   OH269178   6.810   1.319   6.267 -0.1463  0.9522  0.1096
15896TIP3    H169179   6.796   1.380   6.339 -0.7675 -0.0223  0.8268
15896TIP3    H269180   6.729   1.268   6.261  0.3377  0.2265 -0.5083
15897TIP3   OH269181   5.119   0.644   1.074  0.1605  0.3316 -0.0289
15897TIP3    H169182   5.151   0.725   1.113 -1.7957  0.5918  1.1751
15897TIP3    H269183   5.153   0.575   1.131  1.4795  0.2910 -0.8185
15898TIP3   OH269184   1.055   0.660  16.876 -0.3196 -0.0913  0.0302
15898TIP3    H169185   0.985   0.702  16.826 -1.1288  0.1682  1.3125
15898TIP3    H269186   1.083   0.728  16.938  2.5530  0.5365 -1.7884
15899TIP3   OH269187   4.268   6.741  11.331 -0.6283 -0.1920 -0.1458
15899TIP3    H169188   4.267   6.674  11.399  0.5027 -0.2072 -0.1195
15899TIP3    H269189   4.176   6.753  11.307 -1.2638  1.0440  2.5831
15900TIP3   OH269190   4.515   1.983  14.811  0.4253 -0.0473 -0.2126
15900TIP3    H169191   4.587   1.924  14.833 -0.5404 -0.7584  1.2012
15900TIP3    H269192   4.554   2.071  14.814  0.9201 -0.2710  2.2141
15901TIP3   OH269193   5.449   2.978  16.026  0.1103 -0.0224  0.4657
15901TIP3    H169194   5.484   2.971  16.114 -1.6128  2.0273  1.4107
15901TIP3    H269195   5.373   2.920  16.025  0.0035  0.1150  0.4123
15902TIP3   OH269196   4.694   2.420  10.811  0.6164  0.1258  0.1222
15902TIP3    H169197   4.692   2.409  10.906  1.9443  1.9658  0.4086
15902TIP3    H269198   4.618   2.475  10.792  1.8662  2.0739  0.5206
15903TIP3   OH269199   4.594   6.526   5.033 -0.1653 -0.0139 -0.1220
15903TIP3    H169200   4.668   6.535   4.973 -1.0014  1.1447 -1.0213
15903TIP3    H269201   4.585   6.431   5.045  0.9001 -0.2109 -0.6987
15904TIP3   OH269202   6.044   6.156  12.350 -0.1058  0.1595 -0.2862
15904TIP3    H169203   5.955   6.169  12.320 -0.4606 -2.5719 -0.6995
15904TIP3    H269204   6.091   6.123  12.273  0.0176 -2.9019  0.9626
15905TIP3   OH269205   4.332   1.604   2.261 -0.1268 -0.3040  0.3297
15905TIP3    H169206   4.403   1.550   2.226 -0.6422  0.2404 -1.7060
15905TIP3    H269207   4.374   1.686   2.285  0.1413 -0.4519  0.3706
15906TIP3   OH269208   2.078   0.678   2.836 -0.5291 -0.9913 -0.7001
15906TIP3    H169209   2.123   0.755   2.871  1.3081 -2.6199  0.7042
15906TIP3    H269210   2.040   0.635   2.913 -2.7449 -0.8306 -1.6140
15907TIP3   OH269211   0.733   1.989  14.105 -0.1130  0.2555 -0.2759
15907TIP3    H169212   0.752   2.055  14.039 -3.3307  1.6804  0.0387
15907TIP3    H269213   0.683   1.922  14.058  0.8738 -0.6740 -0.0381
15908TIP3   OH269214   3.792   6.170   3.947  0.7430  0.1962 -0.4137
15908TIP3    H169215   3.748   6.113   3.884 -1.1489  0.9635  0.1616
15908TIP3    H269216   3.750   6.255   3.936 -0.0198  0.2433  2.2065
15909TIP3   OH269217   3.054   1.496   4.404 -0.5848  0.3372  0.5102
15909TIP3    H169218   3.139   1.455   4.420 -0.3466  0.7377  0.2824
15909TIP3    H269219   2.997   1.461   4.473 -0.1607  0.2936  0.8410
15910TIP3   OH269220   4.083   2.266  12.949  0.3627  0.1713  0.6199
15910TIP3    H169221   4.142   2.330  12.989  0.3588 -0.3933  1.5571
15910TIP3    H269222   3.997   2.286  12.986  0.4853 -0.8210  1.5059
15911TIP3   OH269223   3.613   2.947   6.147  0.7176 -0.4800  0.4244
15911TIP3    H169224   3.560   3.026   6.145  0.6810 -0.4737  1.2689
15911TIP3    H269225   3.700   2.976   6.175  0.7956 -0.6826  0.3987
15912TIP3   OH269226   5.378   1.480  13.520 -0.1031  0.7748 -0.2598
15912TIP3    H169227   5.438   1.406  13.529  0.1700  0.9299 -0.7602
15912TIP3    H269228   5.305   1.459  13.578  0.3959  0.5438  0.2883
15913TIP3   OH269229   3.225   2.968  14.101  0.0785 -0.3812 -0.0458
15913TIP3    H169230   3.240   3.063  14.099  0.7381 -0.4527  0.7457
15913TIP3    H269231   3.141   2.958  14.146 -0.2635 -0.1509 -0.6288
15914TIP3   OH269232   6.598   5.057   1.436 -0.1935  0.8050 -0.3249
15914TIP3    H169233   6.642   4.995   1.493 -1.7871  1.1617  1.3849
15914TIP3    H269234   6.567   5.004   1.362 -0.3780 -0.1985  0.4530
15915TIP3   OH269235   0.082   2.512  16.231 -0.0599  0.1609  0.3210
15915TIP3    H169236  -0.003   2.539  16.265  0.0174  1.5555 -0.4899
15915TIP3    H269237   0.141   2.584  16.253  1.1560 -1.1936  1.6933
15916TIP3   OH269238   4.182   0.029   4.251  0.8691 -0.0849  0.2087
15916TIP3    H169239   4.237   0.086   4.304 -1.1546 -0.3135  2.7377
15916TIP3    H269240   4.130   0.089   4.198 -0.1966  0.4404  1.7764
15917TIP3   OH269241   0.198   2.463  15.979 -1.0717 -0.5649 -0.3849
15917TIP3    H169242   0.176   2.555  15.965  1.8528  0.4474  0.8045
15917TIP3    H269243   0.162   2.441  16.065  1.3963  0.7864  1.1309
15918TIP3   OH269244   4.887   5.059   5.297  0.0389 -0.3892  0.0116
15918TIP3    H169245   4.872   5.134   5.355 -2.6834 -0.9766  0.2193
15918TIP3    H269246   4.867   4.982   5.351  2.4758 -1.3416 -0.2778
15919TIP3   OH269247   3.127   0.892  13.206 -0.4567 -0.0127  0.7466
15919TIP3    H169248   3.153   0.967  13.259 -0.9897 -0.6886  2.0200
15919TIP3    H269249   3.184   0.821  13.235 -0.3342 -0.2447 -0.0398
15920TIP3   OH269250   1.131   5.006   5.570  0.2817  0.3972 -0.2172
15920TIP3    H169251   1.126   5.098   5.597 -1.2116  0.4525 -0.5974
15920TIP3    H269252   1.162   4.960   5.648  0.5579  1.1452  0.1318
15921TIP3   OH269253   3.696   2.465  12.696 -0.5177 -1.0166 -0.2478
15921TIP3    H169254   3.683   2.558  12.713 -0.4506 -1.1264  0.4215
15921TIP3    H269255   3.763   2.462  12.627 -0.6144 -0.5701 -0.3588
15922TIP3   OH269256   5.104   6.232   0.701 -0.2692 -0.2974 -0.5938
15922TIP3    H169257   5.085   6.138   0.705  0.5469 -0.4394  0.6992
15922TIP3    H269258   5.030   6.273   0.745  0.2832 -0.5168  0.5995
15923TIP3   OH269259   1.866   5.678   0.499  0.7607  0.2842 -0.8544
15923TIP3    H169260   1.919   5.738   0.446 -0.9667 -0.0266 -3.0577
15923TIP3    H269261   1.864   5.597   0.449  0.2138 -0.5226  0.4103
15924TIP3   OH269262   5.248   5.926  11.408  0.0262  0.0472  0.1589
15924TIP3    H169263   5.159   5.953  11.430 -0.0011 -1.4826  2.1491
15924TIP3    H269264   5.303   5.978  11.467  0.3282 -0.3054  0.1853
15925TIP3   OH269265   6.128   0.383   1.554 -0.2610  0.2275  0.5644
15925TIP3    H169266   6.106   0.336   1.634  1.2127 -2.7903 -0.6440
15925TIP3    H269267   6.223   0.378   1.549 -0.3689 -0.5117 -1.8073
15926TIP3   OH269268   3.090   0.002  11.468  0.9388 -0.2264  0.2086
15926TIP3    H169269   3.124   0.013  11.379 -0.1569 -0.1664 -0.2203
15926TIP3    H269270   3.004  -0.040  11.456 -0.1223  1.5697  1.0739
15927TIP3   OH269271   3.850   2.838  15.255  0.0463  0.2950  0.3563
15927TIP3    H169272   3.892   2.775  15.314  0.3214  0.8173  0.7297
15927TIP3    H269273   3.795   2.785  15.198  1.0639 -0.3896 -0.0095
15928TIP3   OH269274   5.573   4.152   1.594  0.0987  0.2177 -0.1174
15928TIP3    H169275   5.521   4.192   1.525  0.3089  1.2359  0.2935
15928TIP3    H269276   5.515   4.086   1.632 -0.6228  0.7992 -0.1741
15929TIP3   OH269277   0.445   4.179   4.760 -0.3087  0.4950  0.0281
15929TIP3    H169278   0.411   4.091   4.772 -1.1345  0.8714  0.5030
15929TIP3    H269279   0.393   4.233   4.819 -0.8182  1.5450 -1.3356
15930TIP3   OH269280   4.681   5.411  15.577  0.0299 -0.1186 -0.5266
15930TIP3    H169281   4.748   5.344  15.583  0.5095  0.1976 -1.9440
15930TIP3    H269282   4.634   5.392  15.496 -0.9410  0.2595 -0.0756
15931TIP3   OH269283   1.446   4.823  12.164 -0.3560 -0.4184 -0.4620
15931TIP3    H169284   1.448   4.818  12.069  0.9285  0.9744 -0.5346
15931TIP3    H269285   1.519   4.879  12.188 -0.9644 -0.2937  1.3271
15932TIP3   OH269286   2.667   2.949  12.535 -0.3774  0.1365  0.4392
15932TIP3    H169287   2.672   2.967  12.442  0.1458  2.7016  0.8852
15932TIP3    H269288   2.728   3.011  12.575 -0.3864 -1.0568  2.4886
15933TIP3   OH269289   3.173   0.550  17.158  0.1359 -0.5108  0.0926
15933TIP3    H169290   3.079   0.563  17.169 -0.4986 -1.5844 -3.0793
15933TIP3    H269291   3.186   0.457  17.177  0.1559 -0.8146 -1.2770
15934TIP3   OH269292   3.811   3.016  15.481 -0.2538  0.1176 -0.2509
15934TIP3    H169293   3.807   3.110  15.464  0.9368  0.3172  0.4571
15934TIP3    H269294   3.824   2.976  15.395  0.5108  0.6991 -0.4093
15935TIP3   OH269295   5.640   5.743   5.361 -0.3737 -0.1173 -0.0765
15935TIP3    H169296   5.565   5.796   5.333 -1.2502 -1.9107 -1.2860
15935TIP3    H269297   5.656   5.683   5.288  1.9149 -0.1582  0.3912
15936TIP3   OH269298   5.448   4.075  14.072  0.3840 -0.4105  0.1030
15936TIP3    H169299   5.365   4.088  14.118 -0.5801 -1.1457 -1.3743
15936TIP3    H269300   5.502   4.150  14.099 -0.2306 -0.6194  2.1428
15937TIP3   OH269301   1.763   5.421  15.968 -0.0912  0.0554 -0.0555
15937TIP3    H169302   1.784   5.440  15.876  0.3950  2.0470  0.4062
15937TIP3    H269303   1.718   5.500  15.999  1.3640  0.2167  1.8765
15938TIP3   OH269304   3.430   2.095   2.151  0.2000  0.3214  0.2106
15938TIP3    H169305   3.490   2.075   2.079  1.2968  1.7068  0.7152
15938TIP3    H269306   3.385   2.012   2.167  0.2971 -0.1607 -1.7144
15939TIP3   OH269307   2.886   4.390  11.342 -0.0871 -0.3389  0.0428
15939TIP3    H169308   2.841   4.442  11.275 -1.4688 -0.6601  0.6903
15939TIP3    H269309   2.893   4.303  11.303 -0.9649 -0.5471  0.3249
15940TIP3   OH269310   5.419   2.241   3.209 -0.0811  0.1539  0.5748
15940TIP3    H169311   5.464   2.159   3.228  0.5624  1.1286  3.7967
15940TIP3    H269312   5.412   2.243   3.113  0.4128 -3.3120  0.3583
15941TIP3   OH269313   2.250   3.000  12.755 -0.2789  0.0927  0.0739
15941TIP3    H169314   2.195   3.036  12.685 -1.1713  1.5741  1.4641
15941TIP3    H269315   2.302   2.932  12.712 -2.4547 -0.6634 -1.5156
15942TIP3   OH269316   4.113   1.847   1.330  1.1082  0.3496  0.1479
15942TIP3    H169317   4.032   1.864   1.281  0.9739 -0.2561  0.1564
15942TIP3    H269318   4.183   1.869   1.268  0.9385 -0.2547 -0.2636
15943TIP3   OH269319   3.345   6.090  10.805  0.0443  0.6589 -0.5761
15943TIP3    H169320   3.389   6.137  10.875  0.5225 -0.2231 -0.2620
15943TIP3    H269321   3.260   6.065  10.843 -0.2843  1.4041 -0.8059
15944TIP3   OH269322   0.988   6.016   3.961  0.0138 -0.0232  0.2407
15944TIP3    H169323   0.934   5.986   4.034 -1.2465 -3.5712 -1.9010
15944TIP3    H269324   1.070   5.968   3.972  0.7224  1.2019  0.5035
15945TIP3   OH269325   5.592   2.271   6.360 -0.5140 -0.5763 -0.5640
15945TIP3    H169326   5.557   2.336   6.422  0.8267 -1.3637  1.0966
15945TIP3    H269327   5.613   2.195   6.414  0.8593 -1.2471 -1.9699
15946TIP3   OH269328   0.070   3.056   6.626 -0.1088  0.4012  0.6782
15946TIP3    H169329   0.072   3.117   6.552  4.3148 -0.3726 -0.1005
15946TIP3    H269330  -0.004   2.998   6.607  0.3068  0.7616 -2.7270
15947TIP3   OH269331   4.464   1.150   2.421 -0.1116 -0.1065 -0.4589
15947TIP3    H169332   4.528   1.136   2.351  2.6489  1.1612  1.6342
15947TIP3    H269333   4.468   1.070   2.474 -0.7281 -0.2510 -0.6163
15948TIP3   OH269334   0.112   3.511  14.889 -0.2154 -0.2386  0.4729
15948TIP3    H169335   0.158   3.431  14.913 -1.3512 -1.2013 -0.3820
15948TIP3    H269336   0.117   3.514  14.793 -2.6779 -0.9470  0.2319
15949TIP3   OH269337   5.151   4.276   5.805 -0.3004  0.3669 -0.2544
15949TIP3    H169338   5.071   4.242   5.765  0.2158 -0.9341 -0.2444
15949TIP3    H269339   5.207   4.301   5.731 -0.2279  0.0900 -0.2941
15950TIP3   OH269340   2.428   3.089  14.592  0.3298 -0.0745  0.0858
15950TIP3    H169341   2.453   3.038  14.669  0.0243  1.4659  1.2715
15950TIP3    H269342   2.508   3.137  14.569 -0.4390  2.1388  1.6802
15951TIP3   OH269343   2.125   3.556   5.924 -0.6012  0.0462 -0.1383
15951TIP3    H169344   2.192   3.534   5.859 -1.5758 -0.1891 -1.0885
15951TIP3    H269345   2.062   3.610   5.876 -0.5331  1.2109  1.0288
15952TIP3   OH269346   4.580   5.075  12.907  0.0897 -0.0402  0.1302
15952TIP3    H169347   4.626   5.004  12.952 -0.1371 -1.4019 -1.6643
15952TIP3    H269348   4.620   5.155  12.940 -0.4144 -0.8952  3.1035
15953TIP3   OH269349   5.326   5.076  12.802  0.4865  0.2647  0.0886
15953TIP3    H169350   5.325   5.165  12.839  2.3314  0.0729  0.6876
15953TIP3    H269351   5.311   5.089  12.709  0.5221  1.1866  0.2021
15954TIP3   OH269352   0.319   4.763  15.250  0.0529 -0.1653  0.5760
15954TIP3    H169353   0.377   4.831  15.285 -0.4310  0.4031  0.2945
15954TIP3    H269354   0.263   4.739  15.324 -0.6831  0.7307  0.3444
15955TIP3   OH269355   3.513   4.079  13.810 -0.4277  0.1910  0.2709
15955TIP3    H169356   3.465   3.996  13.816  0.9289 -0.7238 -0.7713
15955TIP3    H269357   3.596   4.055  13.769  0.9910  1.6719  2.1073
15956TIP3   OH269358   1.458   0.887  11.915  0.2721 -0.3827 -0.4457
15956TIP3    H169359   1.382   0.929  11.875  0.9051  1.5341  0.2527
15956TIP3    H269360   1.529   0.900  11.852  0.4879 -0.3451 -0.1965
15957TIP3   OH269361   2.976   4.713  12.714 -0.1386  1.4873  0.6975
15957TIP3    H169362   2.920   4.711  12.636  1.8661  1.3499 -0.8519
15957TIP3    H269363   3.024   4.796  12.706 -0.7671  2.0562  2.4851
15958TIP3   OH269364   1.695   2.960  13.546 -0.2043 -0.5294 -0.3777
15958TIP3    H169365   1.721   3.049  13.568  0.2752 -1.1692  1.8255
15958TIP3    H269366   1.660   2.924  13.627 -0.3316 -2.3721 -1.2020
15959TIP3   OH269367   1.118   6.134  12.375 -0.2052  0.4483  0.3266
15959TIP3    H169368   1.128   6.141  12.470 -1.9659 -0.2427  0.6031
15959TIP3    H269369   1.124   6.040  12.357 -0.2125  0.5460 -0.1937
15960TIP3   OH269370   6.192   6.159  13.114 -0.3310 -0.1387 -0.0200
15960TIP3    H169371   6.188   6.113  13.198 -0.0935  0.2541  0.2127
15960TIP3    H269372   6.146   6.241  13.130 -1.5903 -0.6858 -0.7076
15961TIP3   OH269373   4.172   6.238   0.130 -0.3144  0.1298  0.4631
15961TIP3    H169374   4.097   6.267   0.078  0.0412 -0.0426 -0.1638
15961TIP3    H269375   4.237   6.211   0.064 -0.2747 -1.1484  1.0056
15962TIP3   OH269376   0.301   3.750   2.642 -0.2213  0.5795 -0.0569
15962TIP3    H169377   0.348   3.669   2.623 -2.7995 -1.0403  0.0354
15962TIP3    H269378   0.257   3.772   2.560 -0.3216  1.3307  0.1945
15963TIP3   OH269379   6.658   4.933   6.549 -0.3610  0.1944 -0.9557
15963TIP3    H169380   6.632   5.005   6.607  1.1402 -0.3040  0.4019
15963TIP3    H269381   6.580   4.915   6.497 -1.0161  2.2682 -0.7788
15964TIP3   OH269382   4.469   3.059  15.959  0.1825  0.1083  0.2958
15964TIP3    H169383   4.475   3.020  15.872  0.4678 -1.1852  0.8627
15964TIP3    H269384   4.554   3.038  16.000  0.4743  1.6197  0.5294
15965TIP3   OH269385   2.901   1.519  11.558  0.2497  0.7641 -0.5098
15965TIP3    H169386   2.865   1.557  11.478 -0.9543  0.7074 -0.0162
15965TIP3    H269387   2.904   1.592  11.621 -1.3514  0.2685  0.2029
15966TIP3   OH269388   2.910   0.187   3.156 -0.8104 -0.3210 -0.2357
15966TIP3    H169389   2.896   0.092   3.152 -1.1972 -0.2552 -0.4595
15966TIP3    H269390   2.828   0.225   3.126 -0.7267  0.0906  0.0508
15967TIP3   OH269391   6.078   2.122  13.776  0.0049  0.4341 -0.5772
15967TIP3    H169392   6.171   2.122  13.752  0.2325 -0.8495  0.2337
15967TIP3    H269393   6.047   2.036  13.749 -0.2334 -0.2752  1.7996
15968TIP3   OH269394   3.005   6.818   5.547  0.5875  0.3310  0.2135
15968TIP3    H169395   3.023   6.735   5.591 -0.1202  0.1702  0.2030
15968TIP3    H269396   3.091   6.848   5.518  0.7804 -0.7243 -0.3598
15969TIP3   OH269397   1.958   5.962  14.096 -0.2791  0.3038 -0.4285
15969TIP3    H169398   1.971   5.868  14.107 -1.2001  0.2104 -0.0334
15969TIP3    H269399   2.036   5.992  14.051  0.1520 -0.6069 -0.3084
15970TIP3   OH269400   5.096   3.274  16.488  0.3469 -0.4075 -0.3192
15970TIP3    H169401   5.144   3.191  16.497  0.3826 -0.4881 -1.2058
15970TIP3    H269402   5.021   3.253  16.433 -1.1137 -0.4328  1.6031
15971TIP3   OH269403   2.061   1.596   4.719 -0.6066  0.2096 -0.6599
15971TIP3    H169404   2.018   1.655   4.657 -0.3123  1.1829  0.0486
15971TIP3    H269405   2.144   1.573   4.677 -0.6948  0.3432 -0.9072
15972TIP3   OH269406   1.778   2.557  17.000 -0.3663  0.5053 -0.1982
15972TIP3    H169407   1.771   2.468  16.965  0.0450  0.0493  0.8480
15972TIP3    H269408   1.836   2.549  17.076 -1.6173  1.3883  0.8873
15973TIP3   OH269409   1.320   4.767   3.983 -0.0685 -0.9488 -0.0624
15973TIP3    H169410   1.306   4.829   4.054 -0.6930 -1.2193  0.0567
15973TIP3    H269411   1.399   4.798   3.939 -0.4075 -0.0304 -0.0442
15974TIP3   OH269412   1.430   2.385   5.189  0.6668  0.3494 -1.1469
15974TIP3    H169413   1.411   2.467   5.143 -1.7545  0.6045  0.1456
15974TIP3    H269414   1.411   2.317   5.124 -2.2236  0.7189 -0.8543
15975TIP3   OH269415   1.023   3.545  11.851  0.3201  0.0869  0.6683
15975TIP3    H169416   0.989   3.562  11.939  0.9229 -0.0018  0.9224
15975TIP3    H269417   0.948   3.559  11.793  0.4515  2.4315  0.9713
15976TIP3   OH269418   0.258   1.289   3.076  0.0768 -0.7066  0.3447
15976TIP3    H169419   0.287   1.226   3.141  1.8824  1.2629  1.5792
15976TIP3    H269420   0.332   1.298   3.015  0.0623  0.5442  0.4820
15977TIP3   OH269421   3.246   0.131  15.383  0.6728  0.3731  0.4412
15977TIP3    H169422   3.280   0.041  15.382  0.3749  0.2574 -0.2719
15977TIP3    H269423   3.151   0.120  15.386  0.6301  0.6549  0.2227
15978TIP3   OH269424   5.281   6.056   0.173 -0.2899  0.0277  0.1143
15978TIP3    H169425   5.187   6.054   0.160 -0.3366  2.2704 -0.3515
15978TIP3    H269426   5.293   6.090   0.262  0.0110  2.7678 -0.8892
15979TIP3   OH269427   3.916   4.289  13.390 -0.5129 -0.1629 -0.2599
15979TIP3    H169428   3.998   4.255  13.426 -0.6795 -0.5516 -0.2410
15979TIP3    H269429   3.889   4.357  13.452 -0.4587 -0.3767  0.0027
15980TIP3   OH269430   5.467   1.720   4.289 -0.0291 -0.0662 -0.1843
15980TIP3    H169431   5.429   1.666   4.221  2.6778 -0.9421 -1.1300
15980TIP3    H269432   5.424   1.691   4.370  1.2212 -3.6797 -0.6458
15981TIP3   OH269433   2.280   0.399   4.460 -0.1444 -0.0310  0.6064
15981TIP3    H169434   2.352   0.419   4.400  0.7578 -0.5181  1.4943
15981TIP3    H269435   2.254   0.484   4.495 -0.3294  0.1979 -0.0600
15982TIP3   OH269436   5.582   3.695  12.760  0.0248  0.1300  0.1659
15982TIP3    H169437   5.553   3.783  12.783  0.4766  0.0449  1.1039
15982TIP3    H269438   5.561   3.687  12.667 -2.3134  0.3029  0.6353
15983TIP3   OH269439   1.901   5.427  13.473  0.2565 -0.4275  0.2948
15983TIP3    H169440   1.995   5.435  13.453  0.9228  3.2449  3.6436
15983TIP3    H269441   1.862   5.504  13.433 -0.4884  0.3666  2.4321
15984TIP3   OH269442   1.549   3.179  17.055 -0.7409  0.6642  0.3519
15984TIP3    H169443   1.594   3.155  17.136 -1.1549  0.0161  0.3947
15984TIP3    H269444   1.529   3.095  17.013  1.5621  0.9760 -1.6076
15985TIP3   OH269445   3.650   4.639   1.466 -0.0344 -0.1036  0.4050
15985TIP3    H169446   3.582   4.678   1.412  1.0137  0.3474 -0.6400
15985TIP3    H269447   3.656   4.548   1.435 -1.2949 -0.6495  1.6634
15986TIP3   OH269448   4.072   2.365   2.590  0.0102  0.2367  0.4775
15986TIP3    H169449   4.091   2.444   2.540 -0.5061  0.2376  0.2742
15986TIP3    H269450   4.121   2.375   2.671  1.4473 -0.0991 -0.3162
15987TIP3   OH269451   5.103   3.600   3.959  0.2356 -0.1235  0.3277
15987TIP3    H169452   5.170   3.535   3.979  0.2812 -0.4471 -0.8205
15987TIP3    H269453   5.032   3.581   4.021  0.8366 -0.3343  0.9608
15988TIP3   OH269454   2.964   3.698  15.761 -0.8663  0.3688  0.2679
15988TIP3    H169455   3.032   3.635  15.736  0.4789  2.0954 -0.6353
15988TIP3    H269456   2.990   3.728  15.849  0.2215  1.8309 -0.5122
15989TIP3   OH269457   1.587   6.773   2.696  0.1753 -0.4834 -0.2377
15989TIP3    H169458   1.650   6.742   2.632 -0.3832 -0.3998 -0.8439
15989TIP3    H269459   1.502   6.741   2.663 -0.2495  0.5306 -0.1636
15990TIP3   OH269460   4.730   1.315  10.927  0.2216  0.4371  0.0873
15990TIP3    H169461   4.774   1.400  10.925  1.7815 -0.3312  0.5020
15990TIP3    H269462   4.752   1.279  11.013 -0.8425 -0.1841  0.1153
15991TIP3   OH269463   6.818   2.219   4.137  0.2840 -0.1736 -0.4793
15991TIP3    H169464   6.747   2.161   4.109  0.6983 -0.5416 -0.7907
15991TIP3    H269465   6.819   2.213   4.232  0.9560 -1.4579 -0.5489
15992TIP3   OH269466   3.295   1.800  15.309  0.1626 -0.5506 -0.0858
15992TIP3    H169467   3.329   1.776  15.223 -0.9148  1.4139 -1.1216
15992TIP3    H269468   3.210   1.756  15.315 -0.1191 -0.0618 -0.3893
15993TIP3   OH269469   2.882   2.769   5.730  0.1661  0.2915 -0.5595
15993TIP3    H169470   2.791   2.780   5.703  0.2167 -0.8877 -1.2968
15993TIP3    H269471   2.921   2.717   5.661  1.6158  1.4068 -0.6273
15994TIP3   OH269472   5.354   5.861  14.978  0.0643 -0.3036 -0.1349
15994TIP3    H169473   5.349   5.772  15.012 -0.8204 -1.8213 -3.7402
15994TIP3    H269474   5.448   5.877  14.965  0.3507  0.0179  2.0342
15995TIP3   OH269475   0.761   2.626   2.702  0.2899 -0.3770 -0.5151
15995TIP3    H169476   0.787   2.534   2.704 -0.1201 -0.5005  1.8659
15995TIP3    H269477   0.703   2.633   2.626 -0.6815 -2.4000 -0.0283
15996TIP3   OH269478   4.347   4.110  14.934 -0.1084  0.1819 -0.8300
15996TIP3    H169479   4.290   4.105  15.011 -0.7445 -0.6166 -1.3351
15996TIP3    H269480   4.368   4.203  14.926 -0.0960  0.2849  0.2625
15997TIP3   OH269481   0.315   2.423   1.673 -0.0096 -0.0513 -0.3909
15997TIP3    H169482   0.254   2.356   1.643 -0.2062  0.6180 -1.5535
15997TIP3    H269483   0.367   2.446   1.596 -1.9167  3.2094 -0.9064
15998TIP3   OH269484   6.261   6.181   0.223  0.0810 -0.1120  0.7927
15998TIP3    H169485   6.284   6.089   0.212  0.4448 -0.0023  0.6404
15998TIP3    H269486   6.166   6.180   0.238 -0.1177 -0.4274 -0.3659
15999TIP3   OH269487   1.740   3.566   1.767  0.0201 -0.0893 -0.3184
15999TIP3    H169488   1.748   3.609   1.682 -3.3636  1.6858  0.0921
15999TIP3    H269489   1.794   3.618   1.826 -0.4589  0.8707 -0.7158
16000TIP3   OH269490   1.220   0.533  14.829 -0.4672 -0.2108 -0.3593
16000TIP3    H169491   1.280   0.472  14.785  0.6304  0.7729 -0.2652
16000TIP3    H269492   1.269   0.564  14.905 -0.6204  1.5307 -0.9422
16001TIP3   OH269493   5.130   0.822   6.785 -0.1694 -0.1995  0.3478
16001TIP3    H169494   5.186   0.893   6.816 -0.8911  0.0797  1.0595
16001TIP3    H269495   5.183   0.744   6.793  1.5567  0.4998 -2.8206
16002TIP3   OH269496   6.644   3.990   3.929  0.0919  0.1167 -0.4108
16002TIP3    H169497   6.573   3.928   3.946 -0.0187  0.6490  1.2658
16002TIP3    H269498   6.721   3.950   3.970  0.1442  0.8138  0.1926
16003TIP3   OH269499   3.799   6.464  11.760 -0.3073 -0.1012  0.0505
16003TIP3    H169500   3.740   6.392  11.782 -1.5480  0.7865 -0.2794
16003TIP3    H269501   3.856   6.427  11.693 -0.5469 -0.9507  0.2910
16004TIP3   OH269502   6.068   0.888  12.807  0.0774 -0.2348  0.0162
16004TIP3    H169503   6.077   0.860  12.716  0.1389  0.0631 -0.0714
16004TIP3    H269504   5.999   0.832  12.843  0.3379 -0.6320 -0.0980
16005TIP3   OH269505   3.208   2.381   5.028  0.0846 -0.2267 -0.6372
16005TIP3    H169506   3.196   2.353   5.119 -2.7886  3.3596  0.2904
16005TIP3    H269507   3.275   2.449   5.033 -0.5151  0.4020 -1.0975
16006TIP3   OH269508   5.296   5.617   3.785 -0.2775 -0.1174  0.1484
16006TIP3    H169509   5.208   5.581   3.784 -0.8889  1.2853  1.1769
16006TIP3    H269510   5.295   5.687   3.720 -0.5193  1.1870  1.5135
16007TIP3   OH269511   0.001   4.811   1.346  0.0787  0.0235  0.2454
16007TIP3    H169512   0.090   4.826   1.316  0.4559  1.9480  2.0835
16007TIP3    H269513  -0.040   4.760   1.276  1.6514  1.8261 -2.1520
16008TIP3   OH269514   2.779   2.951  16.185  0.1238 -0.6610 -0.1918
16008TIP3    H169515   2.699   2.901  16.166  0.1755 -0.5979 -0.5781
16008TIP3    H269516   2.799   2.997  16.103  0.3021 -0.3196  0.0395
16009TIP3   OH269517   3.880   0.155  15.603 -0.4182 -0.0523  0.6506
16009TIP3    H169518   3.829   0.208  15.541 -2.1639  0.0580  2.1047
16009TIP3    H269519   3.971   0.167  15.575 -1.0075  1.2992 -0.8720
16010TIP3   OH269520   1.291   2.356  14.375 -0.0287 -0.1403  0.2546
16010TIP3    H169521   1.242   2.344  14.294  0.3506  0.1793 -0.0201
16010TIP3    H269522   1.366   2.410  14.351 -0.3143  0.5932  0.9671
16011TIP3   OH269523   5.268   3.375   3.411 -0.1565 -0.3633  0.2091
16011TIP3    H169524   5.184   3.403   3.375 -1.4023 -0.6060  2.7026
16011TIP3    H269525   5.324   3.452   3.405 -1.2957  0.5243  0.5087
16012TIP3   OH269526   1.042   6.494  16.991 -0.8037  0.7540 -0.0028
16012TIP3    H169527   1.091   6.539  16.922  0.6624 -0.5433  0.1507
16012TIP3    H269528   1.087   6.517  17.072  0.3677 -1.3783  0.0303
16013TIP3   OH269529   2.490   1.730  11.441  0.5286 -0.8480  0.2430
16013TIP3    H169530   2.554   1.794  11.408 -0.2335  0.0493  0.4790
16013TIP3    H269531   2.528   1.698  11.522 -0.5566  1.8134  1.9464
16014TIP3   OH269532   2.847   0.153   1.630 -0.1902 -0.4908  0.0727
16014TIP3    H169533   2.836   0.108   1.546 -0.1275 -0.2354 -0.0740
16014TIP3    H269534   2.831   0.245   1.609 -3.8105 -0.7453  0.9962
16015TIP3   OH269535   6.492   2.530  13.548 -0.3754 -0.0878 -0.1436
16015TIP3    H169536   6.509   2.621  13.523 -1.5990  0.2774  0.2788
16015TIP3    H269537   6.529   2.523  13.636 -2.3499  0.7192  0.8008
16016TIP3   OH269538   1.419   2.236   4.719 -0.2827 -0.3914  0.1711
16016TIP3    H169539   1.496   2.246   4.775 -0.1327  1.8305 -0.3422
16016TIP3    H269540   1.376   2.157   4.752  0.5085  0.0749  2.5445
16017TIP3   OH269541   0.687   2.073   4.375  0.1280 -0.2394  0.1558
16017TIP3    H169542   0.618   2.021   4.416 -0.6760 -1.0310 -2.0352
16017TIP3    H269543   0.756   2.078   4.441 -1.5086 -0.4655  1.9616
16018TIP3   OH269544   4.936   5.214  12.392 -0.4538  0.2608  0.0846
16018TIP3    H169545   4.901   5.237  12.478  0.5033  1.1954  0.2524
16018TIP3    H269546   4.964   5.123  12.402  0.7862  0.7209  1.1897
16019TIP3   OH269547   4.904   1.670  11.452 -0.3957 -0.1619  0.5994
16019TIP3    H169548   4.860   1.595  11.491 -0.1113  0.6608  2.6074
16019TIP3    H269549   4.834   1.725  11.418 -0.7001 -0.5494  0.5991
16020TIP3   OH269550   2.744   4.175  16.436 -0.4944 -0.7277  0.5249
16020TIP3    H169551   2.767   4.268  16.436 -0.1685 -0.7964  1.2821
16020TIP3    H269552   2.742   4.150  16.344  2.1521 -0.6333  0.3666
16021TIP3   OH269553   2.932   1.007   2.036  0.4104  0.2180 -0.0529
16021TIP3    H169554   2.886   0.933   1.997 -0.6926  1.5810 -1.4845
16021TIP3    H269555   2.997   1.032   1.970 -1.2855  2.3750 -1.0587
16022TIP3   OH269556   0.115   2.957   0.073  0.0502 -0.0301 -0.2240
16022TIP3    H169557   0.154   2.874   0.044  0.4067  0.4636 -1.2318
16022TIP3    H269558   0.157   3.022   0.017 -0.5360  0.7819  0.2797
16023TIP3   OH269559   0.602   0.140  14.533  0.4306  1.1352  0.1379
16023TIP3    H169560   0.599   0.160  14.440  2.4881  2.1058  0.2133
16023TIP3    H269561   0.553   0.211  14.574  0.5226  1.3610 -0.1406
16024TIP3   OH269562   4.166   3.008  14.133  0.2472 -0.6964 -0.7214
16024TIP3    H169563   4.119   3.024  14.215 -0.2657 -3.4453 -0.3971
16024TIP3    H269564   4.240   3.069  14.136 -1.3878  1.3535  0.3375
16025TIP3   OH269565   5.527   1.874   4.994  0.2530 -0.0959 -1.0337
16025TIP3    H169566   5.489   1.871   4.906  1.5775 -2.8936 -1.6317
16025TIP3    H269567   5.476   1.810   5.044 -1.2892  2.3350  0.6976
16026TIP3   OH269568   5.099   3.168  13.012  0.1194  0.1807  1.0011
16026TIP3    H169569   5.066   3.221  13.085 -0.4994 -2.2253  2.5758
16026TIP3    H269570   5.065   3.080  13.029  0.7807 -0.6871 -1.6973
16027TIP3   OH269571   4.264   2.592   3.722  0.2251 -0.1418 -0.0610
16027TIP3    H169572   4.258   2.682   3.753  1.2580 -0.8348  2.3658
16027TIP3    H269573   4.338   2.592   3.661  0.0170  0.7026 -0.3182
16028TIP3   OH269574   0.844   5.166   1.558  0.3300  0.1978 -0.1103
16028TIP3    H169575   0.794   5.170   1.639 -0.2165  1.0174 -0.4651
16028TIP3    H269576   0.910   5.099   1.573 -3.1084 -3.8451 -0.8625
16029TIP3   OH269577   4.455   4.950  17.040  0.3259  0.4457  0.0491
16029TIP3    H169578   4.372   4.990  17.067  1.0390  1.2207  1.1846
16029TIP3    H269579   4.518   4.980  17.105  1.6737  0.5277 -1.2600
16030TIP3   OH269580   3.616   4.384   4.017  0.1768 -0.1521 -0.5574
16030TIP3    H169581   3.635   4.463   3.967 -0.8565 -0.3603 -1.3082
16030TIP3    H269582   3.520   4.376   4.014  0.0569 -0.1329  1.5098
16031TIP3   OH269583   6.779   3.311   3.538  0.3278  0.5309  0.5212
16031TIP3    H169584   6.714   3.260   3.586 -0.0038 -1.0859 -1.5079
16031TIP3    H269585   6.741   3.399   3.532  0.3232  0.7763  2.9704
16032TIP3   OH269586   1.707   4.803  10.440  0.2025 -0.6264 -0.3180
16032TIP3    H169587   1.742   4.789  10.352 -0.8181  0.0948 -0.8627
16032TIP3    H269588   1.711   4.717  10.482  1.5370 -0.7960 -0.7366
16033TIP3   OH269589   3.950   1.432   3.661  0.1495  0.1585 -0.3078
16033TIP3    H169590   3.935   1.378   3.739  0.6434  2.4073  1.4375
16033TIP3    H269591   3.945   1.370   3.588 -0.2097 -2.0692  1.4935
16034TIP3   OH269592   0.663   0.790  10.795 -0.3096 -0.4690  0.1177
16034TIP3    H169593   0.632   0.880  10.800  0.9102  0.0870 -1.7386
16034TIP3    H269594   0.590   0.738  10.832 -0.9008  1.2420  1.5103
16035TIP3   OH269595   6.050   6.608  12.980  0.1052  0.2366  0.4402
16035TIP3    H169596   5.957   6.623  12.961  0.3750  2.0125  0.4032
16035TIP3    H269597   6.085   6.695  12.999  2.0288 -0.2298 -0.7030
16036TIP3   OH269598   1.947   0.770   2.377 -0.3979 -0.1930  0.6971
16036TIP3    H169599   2.026   0.797   2.424  0.7117 -0.8958 -0.6902
16036TIP3    H269600   1.932   0.680   2.404  0.0569 -0.4934 -0.0348
16037TIP3   OH269601   4.521   0.670   6.193  0.0056  0.0632  0.2909
16037TIP3    H169602   4.610   0.641   6.171  0.7520  1.3629  1.4199
16037TIP3    H269603   4.505   0.632   6.280 -1.6667 -2.4065 -0.9733
16038TIP3   OH269604   1.184   4.381   5.471 -0.3168  0.4547  0.3957
16038TIP3    H169605   1.153   4.447   5.532 -1.7952  2.0328 -1.8993
16038TIP3    H269606   1.279   4.391   5.471 -0.2022 -0.0351  2.8101
16039TIP3   OH269607   6.284   1.019   1.637 -0.3289 -0.4548 -0.2763
16039TIP3    H169608   6.272   1.059   1.551 -1.7998  1.3719  0.7090
16039TIP3    H269609   6.202   1.037   1.683 -0.0232 -2.3890  1.1451
16040TIP3   OH269610   6.360   4.933   1.024 -0.1139 -0.0492 -0.0533
16040TIP3    H169611   6.265   4.931   1.013 -0.1622 -0.6990  0.4477
16040TIP3    H269612   6.395   4.949   0.936 -0.5908 -2.1363 -0.6706
16041TIP3   OH269613   3.154   3.904   2.106 -0.0370  0.5573 -0.4966
16041TIP3    H169614   3.060   3.910   2.120 -0.2389 -1.6988 -0.5529
16041TIP3    H269615   3.191   3.974   2.160 -1.5700 -0.1764  1.6268
16042TIP3   OH269616   1.301   1.096  10.639  0.3102  0.8881  0.1624
16042TIP3    H169617   1.251   1.177  10.649 -1.7480 -0.1140 -1.1769
16042TIP3    H269618   1.285   1.069  10.548 -0.5520 -1.9187  1.0493
16043TIP3   OH269619   3.615   4.681   6.434  0.4697 -0.2346 -0.4217
16043TIP3    H169620   3.522   4.662   6.449  0.2420  0.6049 -0.7580
16043TIP3    H269621   3.648   4.602   6.391 -0.0715 -0.5683 -0.2419
16044TIP3   OH269622   4.345   3.776   0.424 -0.2506  0.2869  0.4455
16044TIP3    H169623   4.253   3.753   0.441  0.1843 -0.8567  1.3418
16044TIP3    H269624   4.375   3.815   0.506  0.1272  0.4791  0.2163
16045TIP3   OH269625   2.161   5.968  13.435 -0.0874  0.5549  0.7555
16045TIP3    H169626   2.071   5.999  13.433  0.1053  1.1381  0.9399
16045TIP3    H269627   2.154   5.872  13.430 -0.7565  0.5513  1.5615
16046TIP3   OH269628   0.476   1.026  15.102 -0.1607 -0.0781  0.3988
16046TIP3    H169629   0.496   0.934  15.119 -1.1835 -0.4996 -0.5150
16046TIP3    H269630   0.561   1.067  15.086  0.1550 -1.3908 -1.5696
16047TIP3   OH269631   4.115   3.967  13.855 -0.1891 -0.1304 -0.3359
16047TIP3    H169632   4.155   4.045  13.817 -0.5327  0.3154  0.1973
16047TIP3    H269633   4.134   3.897  13.793  0.5241  0.2846 -0.5921
16048TIP3   OH269634   5.249   2.422  14.625 -0.3452  0.2867 -0.0299
16048TIP3    H169635   5.333   2.464  14.608 -0.7309  0.9065 -0.4392
16048TIP3    H269636   5.239   2.425  14.720 -0.0995  0.5960 -0.0124
16049TIP3   OH269637   6.400   5.103   3.227  0.0169 -1.1121  0.4887
16049TIP3    H169638   6.384   5.183   3.177 -1.8889 -0.7381  1.6082
16049TIP3    H269639   6.349   5.035   3.182  2.2924 -1.9826 -0.9639
16050TIP3   OH269640   0.363   3.610  11.450 -0.4037  0.7235 -0.1300
16050TIP3    H169641   0.278   3.645  11.478 -1.1888 -2.1310  1.3809
16050TIP3    H269642   0.386   3.546  11.516  2.2161  0.2757 -1.3538
16051TIP3   OH269643   1.796   3.589   5.741  0.7236  0.1127  0.4123
16051TIP3    H169644   1.836   3.655   5.684  3.6233  0.6811  2.8384
16051TIP3    H269645   1.745   3.640   5.804  0.8157 -0.1742  0.7223
16052TIP3   OH269646   1.154   0.306  15.962 -0.1747  0.0652  0.5875
16052TIP3    H169647   1.190   0.391  15.936 -1.3823  1.0119  1.8435
16052TIP3    H269648   1.062   0.325  15.981 -0.3985 -1.4928  1.1468
16053TIP3   OH269649   4.493   6.813   2.184  0.4915  0.7146 -0.1795
16053TIP3    H169650   4.574   6.791   2.230  0.6853 -0.1122 -0.9072
16053TIP3    H269651   4.441   6.861   2.249  0.1911 -1.5552  1.3771
16054TIP3   OH269652   3.851   5.673  15.484 -0.7358 -0.2849 -0.1400
16054TIP3    H169653   3.890   5.697  15.567 -1.5767 -0.0430  0.1967
16054TIP3    H269654   3.889   5.588  15.462 -0.7981 -0.5260  0.6767
16055TIP3   OH269655   6.792   1.407  16.890 -0.2334 -0.3211  0.5558
16055TIP3    H169656   6.877   1.386  16.849 -0.4173 -2.0887  1.0352
16055TIP3    H269657   6.733   1.339  16.858 -1.2550  0.3627  0.9660
16056TIP3   OH269658   0.869   4.249   0.679 -0.3185 -0.1788  0.6567
16056TIP3    H169659   0.888   4.318   0.616 -2.5404 -1.7089 -1.9014
16056TIP3    H269660   0.776   4.259   0.699 -0.5601 -2.0247  0.6779
16057TIP3   OH269661   0.444   0.729   4.733  0.0126 -0.4032 -1.4766
16057TIP3    H169662   0.530   0.747   4.771  0.0025  0.2795 -1.7634
16057TIP3    H269663   0.417   0.812   4.694 -1.1391 -0.3832 -0.6943
16058TIP3   OH269664   4.842   5.689   1.813 -0.4773  0.1313 -0.4971
16058TIP3    H169665   4.774   5.624   1.834 -1.1504  1.8037  3.4312
16058TIP3    H269666   4.920   5.637   1.796 -1.6003 -1.7409 -0.2463
16059TIP3   OH269667   0.995   2.880   5.123 -0.6423 -0.0361  0.0974
16059TIP3    H169668   1.003   2.954   5.062 -1.1311 -1.0622 -1.2571
16059TIP3    H269669   0.919   2.831   5.092 -1.0600 -0.4704  1.6991
16060TIP3   OH269670   4.965   4.854   3.933  0.1668 -0.5238  0.6777
16060TIP3    H169671   5.023   4.929   3.924  0.0794 -0.4291  0.8774
16060TIP3    H269672   4.880   4.892   3.955  0.1727 -0.6897  1.0010
16061TIP3   OH269673   5.841   6.402  12.357  0.6597 -0.3558 -0.2694
16061TIP3    H169674   5.834   6.383  12.450 -0.0537 -0.2877 -0.3005
16061TIP3    H269675   5.763   6.454  12.337  1.6769  1.1345 -0.5509
16062TIP3   OH269676   4.894   5.731  14.305 -0.4735 -0.5984  0.1260
16062TIP3    H169677   4.930   5.768  14.386 -0.2616 -0.1495 -0.1752
16062TIP3    H269678   4.931   5.643  14.300  1.1116  0.0764 -0.5134
16063TIP3   OH269679   4.445   0.800  17.234  0.7355 -0.1586 -0.0680
16063TIP3    H169680   4.400   0.752  17.303 -0.5161 -1.0867 -1.4720
16063TIP3    H269681   4.530   0.755  17.226  1.2441  0.4681  1.3576
16064TIP3   OH269682   4.450   2.584  16.684 -0.1189 -0.1870 -0.5678
16064TIP3    H169683   4.403   2.604  16.765  0.3096  0.8576 -0.5664
16064TIP3    H269684   4.503   2.507  16.706 -0.8420 -0.5816 -0.1877
16065TIP3   OH269685   1.582   1.751  12.546 -0.3265  0.4632 -0.4313
16065TIP3    H169686   1.659   1.697  12.566  0.6238  2.4699  1.7414
16065TIP3    H269687   1.603   1.793  12.463  0.2574 -0.1542 -0.6082
16066TIP3   OH269688   2.817   3.443  11.746  0.2262 -0.7954  0.1533
16066TIP3    H169689   2.877   3.425  11.674 -0.3217  0.2190 -0.5928
16066TIP3    H269690   2.730   3.435  11.707 -0.0641  1.5743  0.1728
16067TIP3   OH269691   0.402   4.761  14.570 -0.8070  0.3502 -0.1371
16067TIP3    H169692   0.339   4.777  14.500  0.8275  0.4808 -1.6247
16067TIP3    H269693   0.362   4.801  14.647 -2.1983  1.0765 -1.1903
16068TIP3   OH269694   4.856   2.262  11.915 -0.2354 -0.0098 -0.7509
16068TIP3    H169695   4.810   2.342  11.891 -0.1435  0.3248  0.1664
16068TIP3    H269696   4.883   2.276  12.006  0.9280 -0.5432 -0.9945
16069TIP3   OH269697   0.832   6.118   3.328  0.0082 -0.2081  0.1709
16069TIP3    H169698   0.867   6.207   3.336 -0.0605 -0.2281  0.7892
16069TIP3    H269699   0.832   6.100   3.234 -0.0820  0.4915  0.0318
16070TIP3   OH269700   6.442   6.090  16.408  0.3619  0.3261 -0.1751
16070TIP3    H169701   6.482   6.146  16.341  1.1370  0.2698  0.2309
16070TIP3    H269702   6.348   6.108  16.401  0.3713 -0.0514 -1.6102
16071TIP3   OH269703   5.003   0.202  15.622 -0.3411 -0.1187 -0.2696
16071TIP3    H169704   5.075   0.238  15.570 -0.1142  0.3357  0.3517
16071TIP3    H269705   4.942   0.274  15.633 -2.2849 -1.1603 -3.0841
16072TIP3   OH269706   6.290   4.045   0.951 -0.1193 -0.6125 -0.0533
16072TIP3    H169707   6.268   3.974   1.010 -0.5144 -1.4141 -1.1211
16072TIP3    H269708   6.293   4.123   1.006 -1.8287 -1.0999  0.7872
16073TIP3   OH269709   5.637   5.292   6.356 -0.0058 -0.1572 -0.1033
16073TIP3    H169710   5.724   5.292   6.315 -1.1588 -3.1897 -3.0203
16073TIP3    H269711   5.646   5.231   6.429  0.2273 -1.0355 -0.8361
16074TIP3   OH269712   1.176   3.013   1.832 -0.5351  0.3089 -0.0636
16074TIP3    H169713   1.157   2.922   1.806 -0.1772  0.3076 -0.3203
16074TIP3    H269714   1.093   3.059   1.817 -0.5443  0.1536 -0.5185
16075TIP3   OH269715   6.457   0.614   2.962 -0.1788 -0.4526 -0.3680
16075TIP3    H169716   6.403   0.619   2.883 -0.5959  0.1963 -0.0534
16075TIP3    H269717   6.533   0.562   2.936  0.7447  1.4718 -1.8500
16076TIP3   OH269718   5.141   0.472   4.231  0.5848 -0.2474 -0.6678
16076TIP3    H169719   5.108   0.420   4.158 -0.0036  1.2309 -1.4923
16076TIP3    H269720   5.086   0.550   4.232 -0.0599 -0.6268  1.9858
16077TIP3   OH269721   1.670   6.354  14.229 -0.0076 -0.0968 -0.6051
16077TIP3    H169722   1.681   6.265  14.262 -0.6998 -0.2097 -0.6650
16077TIP3    H269723   1.659   6.344  14.135  2.1477  0.2423 -0.9375
16078TIP3   OH269724   3.534   3.176  13.530  0.1162  0.3813  0.4828
16078TIP3    H169725   3.537   3.175  13.434 -0.2827 -2.8910  0.3783
16078TIP3    H269726   3.470   3.244  13.551  0.1725  1.1503 -1.5590
16079TIP3   OH269727   6.577   4.764  11.564  0.6882  0.0740  0.3598
16079TIP3    H169728   6.647   4.754  11.499  0.3742  0.3067 -0.0111
16079TIP3    H269729   6.574   4.679  11.609  1.1908  0.0521  0.3612
16080TIP3   OH269730   1.117   0.341  15.141  0.3022  0.1631  0.0362
16080TIP3    H169731   1.196   0.393  15.124 -0.7684  1.5889 -0.7709
16080TIP3    H269732   1.056   0.368  15.073 -0.6713 -1.4034  0.2570
16081TIP3   OH269733   5.816   4.974  11.747  0.3100  0.1936  0.4349
16081TIP3    H169734   5.827   4.879  11.744  1.5855  0.2868  1.2143
16081TIP3    H269735   5.890   5.008  11.697 -0.2358  0.7924  0.0121
16082TIP3   OH269736   0.492   5.492  15.990  0.3570 -0.8872  0.0451
16082TIP3    H169737   0.462   5.499  16.081 -0.2378 -0.4812 -0.1758
16082TIP3    H269738   0.541   5.410  15.987  2.8637  0.4156  1.4353
16083TIP3   OH269739   1.497   2.249   4.412  0.6838 -0.2699 -0.4399
16083TIP3    H169740   1.581   2.205   4.420  0.6122 -0.3783 -0.2675
16083TIP3    H269741   1.476   2.277   4.502 -0.2073 -1.6215 -0.1948
16084TIP3   OH269742   0.044   2.354   3.898 -0.6494  0.0253 -0.4463
16084TIP3    H169743   0.132   2.360   3.935  0.0119 -1.9587 -1.5736
16084TIP3    H269744  -0.013   2.354   3.975  0.4712 -0.7447  0.4264
16085TIP3   OH269745   0.969   1.220   5.551 -0.1307 -0.8513  0.1497
16085TIP3    H169746   0.992   1.206   5.643  0.7410 -0.3035  0.0266
16085TIP3    H269747   0.984   1.313   5.537 -1.9527 -0.5566 -0.0947
16086TIP3   OH269748   6.761   2.100  15.521 -0.3173 -0.0079  0.4776
16086TIP3    H169749   6.728   2.111  15.432 -0.5828  1.9971  0.7892
16086TIP3    H269750   6.798   2.185  15.544 -0.9497 -0.2380  2.5554
16087TIP3   OH269751   6.247   4.638  15.210 -0.5317 -0.1990  0.4307
16087TIP3    H169752   6.209   4.550  15.205  0.2995 -0.7139  2.3203
16087TIP3    H269753   6.279   4.646  15.300  1.4232  1.2031 -0.3156
16088TIP3   OH269754   2.077   5.578   1.893 -0.0819 -0.0343 -0.3823
16088TIP3    H169755   2.037   5.537   1.816 -0.1759 -1.3330  0.3307
16088TIP3    H269756   2.009   5.574   1.960  0.1199  0.7680 -0.1217
16089TIP3   OH269757   5.401   5.981   4.355 -0.2079  0.0534  0.1804
16089TIP3    H169758   5.418   6.068   4.319  0.7097 -0.7206 -1.3743
16089TIP3    H269759   5.483   5.934   4.343 -0.6806 -1.0226  1.0484
16090TIP3   OH269760   3.154   0.481  13.243  0.3666 -0.4320 -0.9948
16090TIP3    H169761   3.071   0.489  13.290  0.9526 -1.2394  0.2460
16090TIP3    H269762   3.220   0.507  13.308  1.1575 -0.8858 -1.5988
16091TIP3   OH269763   1.675   4.011   4.067  0.4859 -0.1148  0.2187
16091TIP3    H169764   1.702   4.066   4.140  1.7691  0.9249 -0.9629
16091TIP3    H269765   1.753   4.006   4.011 -0.2037 -1.5436 -0.6764
16092TIP3   OH269766   4.631   2.424   4.323 -0.0556  0.6614  0.2536
16092TIP3    H169767   4.539   2.447   4.336  0.5369  2.2030  2.3280
16092TIP3    H269768   4.630   2.350   4.263 -2.5231  2.0080 -1.5151
16093TIP3   OH269769   5.160   2.441   1.817  0.1031  0.7270 -0.2092
16093TIP3    H169770   5.076   2.399   1.832  0.0644  1.2162  1.0871
16093TIP3    H269771   5.150   2.487   1.733 -0.6447  0.1324 -0.4465
16094TIP3   OH269772   1.387   0.828   5.040 -0.0219  0.4448  0.5140
16094TIP3    H169773   1.444   0.815   4.964 -0.9524  0.9187 -0.2824
16094TIP3    H269774   1.420   0.907   5.083  0.8224 -0.1095  0.9144
16095TIP3   OH269775   5.087   4.265   4.912  0.0667  0.0491 -0.3379
16095TIP3    H169776   5.177   4.239   4.891  0.5481  2.4300 -1.5580
16095TIP3    H269777   5.033   4.202   4.864  1.1301  0.2726 -1.9308
16096TIP3   OH269778   5.196   2.390  13.223 -0.0913 -0.1516  0.0265
16096TIP3    H169779   5.110   2.365  13.188  0.2583  1.2371 -1.9416
16096TIP3    H269780   5.232   2.450  13.159  2.0355 -0.0485  1.2268
16097TIP3   OH269781   1.877   1.040  11.532 -0.1927 -0.2208  0.1811
16097TIP3    H169782   1.834   1.080  11.456 -1.3818  0.4240  1.1613
16097TIP3    H269783   1.940   0.979  11.494 -0.5624  0.2889 -1.3287
16098TIP3   OH269784   5.982   3.093  12.627 -0.6531 -0.2276 -0.1053
16098TIP3    H169785   5.895   3.132  12.633 -0.9246 -1.0268  1.7951
16098TIP3    H269786   6.010   3.082  12.718  0.5722 -1.8626 -0.6380
16099TIP3   OH269787   5.234   4.550  15.632 -0.3587 -0.4908 -0.4313
16099TIP3    H169788   5.231   4.554  15.728  1.9322 -0.7222 -0.2992
16099TIP3    H269789   5.237   4.457  15.612 -0.6967 -0.4372 -0.7455
16100TIP3   OH269790   3.336   2.315   1.989  0.1967  0.2880  0.6247
16100TIP3    H169791   3.364   2.253   2.056  1.3526  1.5872  1.3760
16100TIP3    H269792   3.416   2.337   1.942 -0.2776  0.8731  0.0795
16101TIP3   OH269793   6.769   4.567  14.959 -0.0518  0.5190 -0.4673
16101TIP3    H169794   6.840   4.524  14.912  0.0558  0.8392 -0.6028
16101TIP3    H269795   6.715   4.495  14.993  0.1197  0.2816 -0.6961
16102TIP3   OH269796   6.709   0.110  15.203 -0.0270 -0.1911  0.1424
16102TIP3    H169797   6.777   0.101  15.271  1.0013  0.3268 -0.7850
16102TIP3    H269798   6.633   0.143  15.250  0.3158 -0.8704  1.2324
16103TIP3   OH269799   4.969   6.274   3.488  0.5848  0.0737  0.3384
16103TIP3    H169800   4.980   6.322   3.570 -2.0786  0.6511  0.4248
16103TIP3    H269801   4.934   6.189   3.514  0.0490  0.1353 -0.1608
16104TIP3   OH269802   3.310   3.706   4.342  0.4138 -0.5886  0.4939
16104TIP3    H169803   3.219   3.694   4.369 -0.5439 -0.1674 -2.2636
16104TIP3    H269804   3.347   3.618   4.340 -0.7615 -1.0751 -0.9449
16105TIP3   OH269805   5.744   0.133   3.241 -0.1274  0.2304 -0.2455
16105TIP3    H169806   5.712   0.151   3.153 -0.5391  0.2130 -0.1034
16105TIP3    H269807   5.820   0.076   3.228  1.4030  2.2740 -0.7165
16106TIP3   OH269808   1.641   4.450   3.833  0.6826 -0.1806  0.5534
16106TIP3    H169809   1.731   4.422   3.816  0.9007 -0.0125  1.3931
16106TIP3    H269810   1.607   4.385   3.894  0.2135 -0.2621  0.2167
16107TIP3   OH269811   0.060   3.752  10.684  0.7009 -0.1718  0.0560
16107TIP3    H169812   0.001   3.680  10.710  0.4067  0.3563  0.9033
16107TIP3    H269813   0.018   3.791  10.608 -0.5525  0.7608  1.1776
16108TIP3   OH269814   2.255   0.809   3.486 -0.7229 -0.1622 -0.0766
16108TIP3    H169815   2.229   0.738   3.428 -1.6222 -0.6867  0.9253
16108TIP3    H269816   2.276   0.765   3.569 -2.6786  0.8481  1.0148
16109TIP3   OH269817   0.305   3.199   1.428  0.4909  0.1485 -0.4849
16109TIP3    H169818   0.287   3.118   1.381 -1.7975  0.8989 -0.9947
16109TIP3    H269819   0.328   3.262   1.360  1.0718  0.2537 -0.2018
16110TIP3   OH269820   0.579   1.463  13.426 -0.3105  0.4741  0.1985
16110TIP3    H169821   0.616   1.375  13.435 -1.6317  0.0631  2.2406
16110TIP3    H269822   0.651   1.522  13.449 -0.3316 -0.2526  2.3894
16111TIP3   OH269823   4.048   1.918  14.076  0.2261  0.1261  0.2169
16111TIP3    H169824   4.071   1.954  14.162  0.6892 -1.0240  0.5911
16111TIP3    H269825   4.070   1.825  14.082  0.3414  0.0409 -1.1830
16112TIP3   OH269826   2.715   0.489   2.701  0.4980 -0.2461 -0.2910
16112TIP3    H169827   2.761   0.573   2.693 -0.3673  0.1419 -1.5635
16112TIP3    H269828   2.632   0.503   2.655 -1.2063 -0.7375  2.3874
16113TIP3   OH269829   2.896   5.728   2.668  0.1257 -0.0319  0.5143
16113TIP3    H169830   2.981   5.771   2.662  0.7092 -1.2695 -0.6546
16113TIP3    H269831   2.906   5.666   2.741  0.7548 -1.1725 -0.4831
16114TIP3   OH269832   3.769   6.195   0.266  0.5632  0.3654  0.1837
16114TIP3    H169833   3.755   6.284   0.236  2.3721  1.0777  1.2645
16114TIP3    H269834   3.725   6.190   0.351 -1.6375 -0.5867 -0.9461
16115TIP3   OH269835   3.997   5.173  13.868 -0.3737 -0.4032  0.1866
16115TIP3    H169836   3.939   5.248  13.882  1.0848  0.7618  0.2860
16115TIP3    H269837   3.983   5.148  13.776 -0.7855  0.0800  0.1149
16116TIP3   OH269838   3.970   1.441   1.281 -0.1181  0.1743  0.1319
16116TIP3    H169839   4.047   1.430   1.225 -0.5047 -1.8139 -0.1040
16116TIP3    H269840   3.903   1.475   1.222 -0.1601 -0.6768 -0.3321
16117TIP3   OH269841   5.946   5.062  12.665 -0.5163  0.4489  0.2515
16117TIP3    H169842   5.995   5.073  12.583 -1.4582 -0.9760 -0.5489
16117TIP3    H269843   5.920   4.970  12.665 -0.7993  0.4988  2.0283
16118TIP3   OH269844   2.255   2.210  13.994  0.1277 -0.1233  0.8303
16118TIP3    H169845   2.323   2.249  14.048  0.3257 -0.6849  0.9973
16118TIP3    H269846   2.300   2.141  13.945 -0.1752 -0.0195  0.4027
16119TIP3   OH269847   1.007   1.766   0.387  0.2943  0.0067 -0.2357
16119TIP3    H169848   0.962   1.691   0.349  0.7402 -0.4728  0.1844
16119TIP3    H269849   1.055   1.805   0.313  0.4636 -0.4109 -0.3456
16120TIP3   OH269850   1.414   3.621   0.383  0.0830 -0.3858 -0.0105
16120TIP3    H169851   1.334   3.625   0.330 -0.4956 -0.9107  0.8167
16120TIP3    H269852   1.466   3.696   0.352 -1.5357  1.1206  0.7195
16121TIP3   OH269853   4.102   2.535  16.260  0.6679  0.0547 -0.5550
16121TIP3    H169854   4.011   2.552  16.285  0.8421 -0.4759  0.4827
16121TIP3    H269855   4.144   2.506  16.341  1.4117 -1.1083 -1.3402
16122TIP3   OH269856   4.825   5.763  10.821  0.3549 -0.3882 -0.2376
16122TIP3    H169857   4.758   5.751  10.754  2.3800 -1.7645 -2.1530
16122TIP3    H269858   4.868   5.846  10.798 -0.5671  0.4313  0.9120
16123TIP3   OH269859   5.997   1.076  13.490  1.4840  0.6219 -0.1268
16123TIP3    H169860   6.011   1.112  13.403  1.7052 -2.0960 -1.3338
16123TIP3    H269861   6.078   1.095  13.537  1.5748  1.6581 -0.6798
16124TIP3   OH269862   3.074   3.745   1.473  0.7874  0.0650 -0.1212
16124TIP3    H169863   3.087   3.766   1.380  1.0715  0.4508  0.0045
16124TIP3    H269864   3.033   3.824   1.510 -1.3636 -0.8545 -0.3652
16125TIP3   OH269865   0.487   4.990   3.111  0.2272  0.2650  0.4286
16125TIP3    H169866   0.424   5.062   3.122 -0.6342 -0.4670  0.3799
16125TIP3    H269867   0.555   5.027   3.055  0.5954  1.5279  1.6552
16126TIP3   OH269868   5.567   5.181  16.293  0.4369  0.7204  0.1704
16126TIP3    H169869   5.583   5.105  16.350 -1.6941 -0.4611 -0.6896
16126TIP3    H269870   5.628   5.248  16.325  1.1809 -0.7710  2.0891
16127TIP3   OH269871   4.244   6.125   3.367 -0.4562 -0.0676 -0.0830
16127TIP3    H169872   4.267   6.217   3.381 -1.9132  0.0361  2.0994
16127TIP3    H269873   4.199   6.124   3.283  0.0685  1.0961 -0.4048
16128TIP3   OH269874   2.974   1.485   4.708  0.2254 -0.1931 -0.1222
16128TIP3    H169875   2.898   1.541   4.691  0.8134  0.4123 -0.8351
16128TIP3    H269876   3.016   1.525   4.784  0.2699 -0.0489 -0.2202
16129TIP3   OH269877   5.520   2.995   4.978  0.2541  0.2270 -0.5174
16129TIP3    H169878   5.521   2.923   5.041  1.8534  0.3590 -0.3425
16129TIP3    H269879   5.446   3.049   5.004  0.9527  0.3469  1.3582
16130TIP3   OH269880   4.748   0.010  13.575  0.1974 -0.4032  0.0674
16130TIP3    H169881   4.701  -0.042  13.641  0.3473 -1.6419 -0.7734
16130TIP3    H269882   4.735   0.101  13.603 -0.4074 -0.8607  1.3568
16131TIP3   OH269883   2.840   0.567   5.454  0.3975  0.3161 -0.0738
16131TIP3    H169884   2.916   0.625   5.463  0.3935  0.2926  0.1197
16131TIP3    H269885   2.810   0.580   5.364  0.9378 -0.0454 -0.3133
16132TIP3   OH269886   1.258   1.981  14.164  0.6079  0.2209  0.2681
16132TIP3    H169887   1.201   1.915  14.124 -0.6112  1.2258  0.3259
16132TIP3    H269888   1.251   2.057  14.106  1.1246  0.6933  0.8127
16133TIP3   OH269889   5.684   0.870   6.371 -0.4168  0.0243 -0.1124
16133TIP3    H169890   5.684   0.917   6.454 -0.0774 -0.1266 -0.0258
16133TIP3    H269891   5.694   0.778   6.395 -3.6812 -0.4559 -0.1005
16134TIP3   OH269892   1.690   1.972  12.751 -0.0269 -0.5245 -0.3909
16134TIP3    H169893   1.665   1.882  12.774 -2.3454  0.1687  0.1061
16134TIP3    H269894   1.714   1.967  12.659  2.1461 -2.0215  0.1754
16135TIP3   OH269895   3.755   6.254  12.157  0.1356  0.4567  0.2086
16135TIP3    H169896   3.755   6.174  12.104  2.1769  1.1114 -0.8646
16135TIP3    H269897   3.817   6.237  12.228 -0.5768  0.5624  0.8730
16136TIP3   OH269898   6.244   2.428  12.058  0.3806  0.4865 -0.0120
16136TIP3    H169899   6.261   2.353  12.115  0.5632 -0.2395 -0.9849
16136TIP3    H269900   6.279   2.503  12.105  0.6352 -0.1091  0.7691
16137TIP3   OH269901   0.049   4.306  12.731  0.7612  0.1473 -0.0912
16137TIP3    H169902   0.090   4.389  12.752 -1.8177  1.0589  1.8487
16137TIP3    H269903   0.063   4.251  12.808 -1.4183  0.4454  0.5736
16138TIP3   OH269904   5.671   1.189   5.629  0.1365  0.6597 -0.4732
16138TIP3    H169905   5.581   1.173   5.659  0.6283  1.1200  1.3327
16138TIP3    H269906   5.701   1.262   5.683  1.0527  1.6206 -2.2017
16139TIP3   OH269907   4.375   0.840  15.480  0.7788  0.2313  0.0932
16139TIP3    H169908   4.432   0.907  15.518 -0.6297  0.0647  2.7514
16139TIP3    H269909   4.288   0.861  15.515  0.1603 -2.5236  0.3677
16140TIP3   OH269910   4.186   2.222  12.475 -0.0721  0.1917  0.4752
16140TIP3    H169911   4.154   2.153  12.418 -0.9047  0.3530  0.7224
16140TIP3    H269912   4.109   2.248  12.526  0.3394  0.9664  0.7212
16141TIP3   OH269913   0.592   6.141   5.207 -0.6375  0.0487  0.0478
16141TIP3    H169914   0.516   6.132   5.150 -0.9609  1.3910  0.2294
16141TIP3    H269915   0.608   6.053   5.241  0.6476 -1.2140 -3.4216
16142TIP3   OH269916   2.399   4.804   0.081  0.3906 -0.0116 -0.5233
16142TIP3    H169917   2.448   4.768   0.007 -1.7112  0.3315 -2.1637
16142TIP3    H269918   2.447   4.774   0.158  2.4918 -0.6344 -1.9857
16143TIP3   OH269919   2.125   1.984   4.321  0.0298  0.6066 -0.5566
16143TIP3    H169920   2.151   2.047   4.254 -0.0159 -0.6861 -1.8378
16143TIP3    H269921   2.058   1.930   4.278 -0.5767  0.2388  0.7975
16144TIP3   OH269922   5.893   6.464   0.785  0.3020  0.3058  0.3362
16144TIP3    H169923   5.987   6.458   0.772  0.2901 -0.6802  0.6126
16144TIP3    H269924   5.882   6.499   0.873  0.4398 -1.3735  1.0552
16145TIP3   OH269925   2.221   1.357  16.951  0.2990 -0.2680 -0.5401
16145TIP3    H169926   2.301   1.372  16.901 -0.8002 -0.3173 -2.4024
16145TIP3    H269927   2.207   1.262  16.945 -0.4619 -0.1241 -1.1509
16146TIP3   OH269928   6.676   3.718   4.675  0.3294 -0.2156 -0.0534
16146TIP3    H169929   6.709   3.650   4.615 -1.3881 -0.1832 -1.0910
16146TIP3    H269930   6.664   3.795   4.620 -0.3067  0.1219  0.5444
16147TIP3   OH269931   0.115   4.495  16.743  0.3964  0.1848  0.5761
16147TIP3    H169932   0.203   4.456  16.745  0.3775  0.1133  0.1759
16147TIP3    H269933   0.078   4.476  16.829  0.9248  0.5654  0.8881
16148TIP3   OH269934   0.102   0.422  13.766 -0.2443  0.3577  0.9608
16148TIP3    H169935   0.095   0.518  13.768  0.8234  0.4701 -0.1141
16148TIP3    H269936   0.178   0.402  13.820  0.1207  0.1806  0.3818
16149TIP3   OH269937   0.423   2.226   0.014  0.0001 -0.6721  1.1015
16149TIP3    H169938   0.483   2.189  -0.050  0.0909  0.5212  0.4780
16149TIP3    H269939   0.371   2.151   0.044  2.0992 -1.8282  2.0471
16150TIP3   OH269940   5.290   1.638  13.817  0.4498 -0.1660  0.0654
16150TIP3    H169941   5.249   1.682  13.743  1.0777  1.7620  0.8086
16150TIP3    H269942   5.226   1.644  13.888 -0.0859 -1.8660 -0.2173
16151TIP3   OH269943   1.542   1.940   0.885 -0.0626  0.1792 -0.0715
16151TIP3    H169944   1.519   1.848   0.871 -0.7866  0.2424  0.6098
16151TIP3    H269945   1.579   1.943   0.973  1.5380  0.2792 -0.7190
16152TIP3   OH269946   5.797   1.610  12.892  0.0783  0.2125 -0.1269
16152TIP3    H169947   5.806   1.655  12.809 -1.1837 -0.3009 -0.5561
16152TIP3    H269948   5.844   1.527  12.880  0.1289  0.2560 -0.2239
16153TIP3   OH269949   0.265   1.820   4.417  0.4976 -0.0078  0.0550
16153TIP3    H169950   0.174   1.823   4.387  0.1487 -0.4919  1.0312
16153TIP3    H269951   0.270   1.740   4.469  1.0862  0.8044  1.2841
16154TIP3   OH269952   2.135   5.607  15.500 -0.0198  0.2523  0.3326
16154TIP3    H169953   2.052   5.653  15.503 -0.4215 -0.3757 -0.6365
16154TIP3    H269954   2.115   5.524  15.457  1.1853  0.2980 -0.3793
16155TIP3   OH269955   1.796   0.926   3.817  0.3753  0.4660  0.0586
16155TIP3    H169956   1.858   0.870   3.769  1.9417 -0.3703  2.8277
16155TIP3    H269957   1.724   0.868   3.840  0.6176  0.3188  0.4575
16156TIP3   OH269958   2.946   4.491   1.578 -0.2412 -0.2225 -0.2164
16156TIP3    H169959   2.930   4.580   1.609 -1.3232 -0.1020 -1.0768
16156TIP3    H269960   2.860   4.449   1.578  0.3696 -1.5403  0.9441
16157TIP3   OH269961   2.462   2.796   0.490  0.1552 -0.4281 -0.2216
16157TIP3    H169962   2.445   2.764   0.402  0.9839  0.2497 -0.6375
16157TIP3    H269963   2.543   2.846   0.483 -1.3484  2.3201  0.2160
16158TIP3   OH269964   4.311   0.459   5.344 -0.2516 -0.8815  0.4124
16158TIP3    H169965   4.271   0.530   5.294 -0.5233 -1.9768 -0.9856
16158TIP3    H269966   4.372   0.417   5.283  1.9326 -0.2519  1.9985
16159TIP3   OH269967   0.172   6.136   4.428 -0.2190 -0.1027  0.5030
16159TIP3    H169968   0.122   6.055   4.443 -0.5186 -0.0400 -0.1280
16159TIP3    H269969   0.111   6.193   4.381 -0.9836  1.5431  3.2377
16160TIP3   OH269970   4.771   4.318   3.192  0.4508 -0.2461 -0.3334
16160TIP3    H169971   4.798   4.404   3.225  0.2232 -1.2108  2.6246
16160TIP3    H269972   4.676   4.317   3.205  0.7011 -1.7571  2.0614
16161TIP3   OH269973   1.256   2.204  16.197 -0.3356  0.6112 -0.0495
16161TIP3    H169974   1.161   2.199  16.199 -0.3415  0.3165 -0.6327
16161TIP3    H269975   1.285   2.157  16.275 -0.6578  0.1582 -0.2022
16162TIP3   OH269976   6.333   0.966  13.387 -0.0338  0.5134 -0.1860
16162TIP3    H169977   6.273   0.898  13.356  1.7086 -0.7385 -0.9083
16162TIP3    H269978   6.384   0.991  13.310  2.8696 -1.0878  1.0735
16163TIP3   OH269979   3.752   2.487   5.472  0.3481  0.8540  0.6318
16163TIP3    H169980   3.839   2.468   5.506  0.2251 -1.3835 -0.1266
16163TIP3    H269981   3.761   2.573   5.429  2.3628  0.3713 -0.0322
16164TIP3   OH269982   2.479   3.349  12.600 -0.1445 -0.0431  0.0118
16164TIP3    H169983   2.472   3.267  12.651  0.0109 -1.0454 -1.5143
16164TIP3    H269984   2.389   3.365  12.571 -0.3569  0.9020  1.1004
16165TIP3   OH269985   1.043   6.159  12.061 -0.4120 -0.2855  0.3729
16165TIP3    H169986   1.132   6.190  12.077 -0.5004 -0.3540  1.0438
16165TIP3    H269987   0.989   6.211  12.120 -0.9096  0.2504 -0.5357
16166TIP3   OH269988   4.187   4.365   4.737  0.2139 -0.5063 -0.8552
16166TIP3    H169989   4.108   4.416   4.759  0.3953 -0.2727 -0.7385
16166TIP3    H269990   4.258   4.412   4.781  0.7472  0.5970 -2.7799
16167TIP3   OH269991   1.680   1.282  13.763  0.0535  0.3777  0.0470
16167TIP3    H169992   1.672   1.338  13.687 -2.4354 -1.8565 -1.5077
16167TIP3    H269993   1.629   1.325  13.831 -1.0683  0.4710 -0.8383
16168TIP3   OH269994   2.554   1.065  12.181 -0.1156  0.3797  0.3811
16168TIP3    H169995   2.588   1.036  12.265  1.0680 -0.7511 -0.4566
16168TIP3    H269996   2.525   0.985  12.138 -1.1923  1.0052 -0.1001
16169TIP3   OH269997   5.987   2.050   1.379  0.2623  0.0596 -0.0407
16169TIP3    H169998   5.958   2.002   1.302  0.6827  0.5071 -0.4812
16169TIP3    H269999   5.995   1.983   1.448 -1.0458 -0.1961 -0.1120
16170TIP3   OH270000   4.673   6.821  15.001  0.0939  0.1563 -0.1530
16170TIP3    H170001   4.590   6.775  15.016  0.6315 -0.3285  1.5656
16170TIP3    H270002   4.647   6.910  14.978 -0.9395 -0.7140 -2.6133
16171TIP3   OH270003   0.287   3.096   5.186  0.0638  0.3891 -0.2895
16171TIP3    H170004   0.232   3.038   5.133 -0.5607  0.9388 -0.2465
16171TIP3    H270005   0.230   3.124   5.258  1.0734 -0.8284  1.0489
16172TIP3   OH270006   0.618   4.567   0.437  0.4720  0.2267 -0.2033
16172TIP3    H170007   0.553   4.501   0.413 -0.2280  1.0035 -0.4926
16172TIP3    H270008   0.699   4.537   0.396  1.1348 -2.3678  2.5850
16173TIP3   OH270009   6.332   6.769  14.107  0.4466  0.1152  0.1750
16173TIP3    H170010   6.415   6.757  14.061  0.8492  2.2582  0.2317
16173TIP3    H270011   6.299   6.680  14.120  2.4208 -0.7667 -0.3826
16174TIP3   OH270012   2.503   5.402  15.011 -0.1759  0.1179  0.9964
16174TIP3    H170013   2.472   5.476  15.064  1.3274  1.9859 -0.5818
16174TIP3    H270014   2.598   5.404  15.021 -0.1060 -1.6676  0.9423
16175TIP3   OH270015   4.346   0.564  16.370 -0.3261  0.2221  0.4900
16175TIP3    H170016   4.413   0.557  16.303 -1.4683  1.1551 -0.8182
16175TIP3    H270017   4.345   0.478  16.413 -0.4756 -0.8925 -1.6153
16176TIP3   OH270018   3.462   4.486   5.058 -0.2528  0.2026 -0.3165
16176TIP3    H170019   3.557   4.488   5.067 -0.2890 -0.9964  0.5962
16176TIP3    H270020   3.445   4.421   4.989 -0.4430 -1.2970  1.0688
16177TIP3   OH270021   1.713   1.065   0.857  1.0921 -0.5292 -0.3530
16177TIP3    H170022   1.706   0.998   0.789  1.1543  1.0645 -2.0082
16177TIP3    H270023   1.771   1.132   0.819  1.8127  0.0392  1.6164
16178TIP3   OH270024   3.451   0.371  11.697  0.3465  0.2246  0.8136
16178TIP3    H170025   3.451   0.276  11.690  0.6748  0.3328 -1.2544
16178TIP3    H270026   3.359   0.394  11.712  0.1431 -0.3777  0.5169
16179TIP3   OH270027   3.080   2.547   1.160  0.3451 -0.1147 -0.2695
16179TIP3    H170028   3.069   2.577   1.070  0.1726 -0.4186 -0.3485
16179TIP3    H270029   2.993   2.522   1.188  0.1582  1.1849  0.4185
16180TIP3   OH270030   4.329   1.519   1.671 -0.6140 -0.2508 -0.0556
16180TIP3    H170031   4.346   1.437   1.716  0.9982  0.0444 -0.0573
16180TIP3    H270032   4.334   1.496   1.578 -1.2188 -0.3358 -0.0732
16181TIP3   OH270033   4.219   0.635   4.791  0.4442  0.8530  0.6252
16181TIP3    H170034   4.285   0.647   4.859  2.4948  1.2674 -1.3145
16181TIP3    H270035   4.240   0.550   4.752  0.4258  1.3796 -0.5846
16182TIP3   OH270036   6.597   3.175   3.690  0.0428  0.0988 -0.2928
16182TIP3    H170037   6.548   3.147   3.768 -0.5054 -0.3133 -0.7815
16182TIP3    H270038   6.538   3.236   3.645  0.4570  0.5297 -0.2639
16183TIP3   OH270039   0.345   1.326  15.409  0.7325  0.2481 -0.7915
16183TIP3    H170040   0.372   1.235  15.394 -0.6162 -0.4479  0.6999
16183TIP3    H270041   0.420   1.378  15.381  2.7242 -1.4580  1.0356
16184TIP3   OH270042   2.383   3.881   1.436 -0.1149 -0.2698  0.4597
16184TIP3    H170043   2.397   3.797   1.480  0.0004 -0.1493  0.6518
16184TIP3    H270044   2.288   3.893   1.436 -0.0752  0.0956  1.3537
16185TIP3   OH270045   6.745   0.608  12.012  0.4633  0.0689 -0.7626
16185TIP3    H170046   6.711   0.538  12.068  0.3352  0.5204 -0.2671
16185TIP3    H270047   6.676   0.620  11.946 -1.5511  2.5208  1.5226
16186TIP3   OH270048   4.630   6.285   4.082 -0.5814 -0.6057 -0.2374
16186TIP3    H170049   4.715   6.272   4.123 -0.4046 -0.2644 -0.4923
16186TIP3    H270050   4.580   6.337   4.145 -0.3948 -0.2950 -0.3425
16187TIP3   OH270051   0.002   2.125  13.779 -0.1893 -0.3333  0.0192
16187TIP3    H170052   0.000   2.220  13.793  2.3018 -0.6051  3.3417
16187TIP3    H270053  -0.072   2.091  13.831 -0.7440 -0.2982 -0.7262
16188TIP3   OH270054   5.052   0.053  14.363  0.4280 -0.5089 -0.2951
16188TIP3    H170055   5.104   0.056  14.283  1.4796 -0.7383  0.3600
16188TIP3    H270056   5.104   0.101  14.428 -1.3543  1.5107 -0.2467
16189TIP3   OH270057   0.251   6.663   1.183  0.4792  0.2871 -0.1340
16189TIP3    H170058   0.169   6.674   1.136  0.3350  0.9000  0.2428
16189TIP3    H270059   0.233   6.594   1.247  0.8049 -0.8442 -1.2416
16190TIP3   OH270060   5.910   6.159  11.377  0.0610  0.1973  0.1204
16190TIP3    H170061   5.888   6.085  11.320 -0.0266 -0.6684  1.2383
16190TIP3    H270062   5.827   6.186  11.415  0.4590 -1.2081  2.1366
16191TIP3   OH270063   6.579   0.945  13.524 -0.6073  0.3942 -0.4050
16191TIP3    H170064   6.493   0.970  13.491  0.1458  0.2182 -2.7067
16191TIP3    H270065   6.638   1.014  13.491  0.2876 -0.0550  0.2026
16192TIP3   OH270066   5.016   6.314   2.977  0.4172  0.0143 -0.0659
16192TIP3    H170067   4.991   6.350   2.892  1.3213 -1.0016 -0.8156
16192TIP3    H270068   4.968   6.365   3.041 -1.5778 -0.2594 -1.2677
16193TIP3   OH270069   4.525   3.511   6.156  0.4317 -0.7255  0.1108
16193TIP3    H170070   4.518   3.534   6.248 -0.1311 -0.1703 -0.0644
16193TIP3    H270071   4.516   3.416   6.154 -2.0208 -0.5617  0.4161
16194TIP3   OH270072   5.751   4.578  11.610 -0.1076 -0.0425 -0.2196
16194TIP3    H170073   5.763   4.613  11.522 -0.1822  1.1447  0.2293
16194TIP3    H270074   5.837   4.543  11.633  0.1210  0.3496 -0.4638
16195TIP3   OH270075   5.212   3.186   5.482 -0.0777 -0.2073 -0.0414
16195TIP3    H170076   5.268   3.108   5.472 -0.3039 -0.2011 -1.6010
16195TIP3    H270077   5.124   3.150   5.497 -0.3069 -0.2921 -1.4626
16196TIP3   OH270078   5.910   2.671  16.726  0.4801 -0.4357  0.4502
16196TIP3    H170079   5.934   2.763  16.714 -0.5628 -0.2190 -0.1783
16196TIP3    H270080   5.866   2.669  16.811 -1.4628  0.1137 -0.4828
16197TIP3   OH270081   2.408   4.148   1.879 -0.3707 -0.1553  0.5151
16197TIP3    H170082   2.320   4.179   1.862 -0.2462  1.9780  3.2385
16197TIP3    H270083   2.459   4.227   1.897  2.0139 -1.3634 -0.4130
16198TIP3   OH270084   2.448   4.320  16.820  0.0411  0.0853 -0.6059
16198TIP3    H170085   2.386   4.338  16.890  0.8162 -1.1294  0.4518
16198TIP3    H270086   2.472   4.406  16.785 -1.6047  0.6117 -0.5090
16199TIP3   OH270087   2.887   2.750   4.967  0.0213  0.0389 -0.5533
16199TIP3    H170088   2.949   2.821   4.951  1.8605 -1.5528 -0.8082
16199TIP3    H270089   2.819   2.789   5.022  2.0013  1.4797  0.9794
16200TIP3   OH270090   6.248   2.585   4.256  0.2339  0.2391 -0.3187
16200TIP3    H170091   6.172   2.598   4.313 -1.3902 -0.4590 -2.2123
16200TIP3    H270092   6.212   2.551   4.175  2.7659 -1.7335 -0.7425
16201TIP3   OH270093   1.224   2.044  16.429  0.2270 -0.3438  0.2036
16201TIP3    H170094   1.309   2.059  16.472  0.0453 -0.4149  0.5890
16201TIP3    H270095   1.223   1.951  16.408  0.5931 -0.1857 -0.5565
16202TIP3   OH270096   4.049   3.735   5.041  0.2299  0.0538 -0.3726
16202TIP3    H170097   4.049   3.822   5.082  1.2224  0.0723 -0.4014
16202TIP3    H270098   4.023   3.752   4.950  1.3805  0.4560 -0.6385
16203TIP3   OH270099   2.519   0.266   4.836  0.2538 -0.1258 -0.6211
16203TIP3    H170100   2.496   0.350   4.877  0.9008  0.5571 -1.6057
16203TIP3    H270101   2.525   0.205   4.909  1.0901  0.9981  0.2908
16204TIP3   OH270102   5.958   1.858   2.971  0.2499  0.1434 -0.5854
16204TIP3    H170103   5.968   1.953   2.963 -1.5104  0.4615  0.4314
16204TIP3    H270104   6.021   1.833   3.038  0.5834  0.6272 -0.7125
16205TIP3   OH270105   3.131   1.046  11.271 -0.2584 -0.4382 -0.3509
16205TIP3    H170106   3.160   1.062  11.182 -0.0061 -0.8910 -0.3564
16205TIP3    H270107   3.142   1.129  11.316  0.3535 -0.4118 -0.5450
16206TIP3   OH270108   5.719   1.662  13.151  0.0503  0.0984 -0.1057
16206TIP3    H170109   5.708   1.647  13.058  1.9768 -0.1945 -0.3122
16206TIP3    H270110   5.773   1.590  13.182 -1.9841 -0.8159  1.6354
16207TIP3   OH270111   0.140   4.658   2.924  0.0247  0.0332 -0.2212
16207TIP3    H170112   0.065   4.647   2.866  1.1529 -0.1656 -1.7016
16207TIP3    H270113   0.155   4.753   2.926 -0.8922  0.1813  0.9569
16208TIP3   OH270114   6.146   1.884   2.585 -0.1964  0.4287 -0.7937
16208TIP3    H170115   6.138   1.797   2.624  0.0962 -1.0699 -3.7843
16208TIP3    H270116   6.057   1.920   2.591 -0.9038 -1.0756 -1.5583
16209TIP3   OH270117   3.019   5.554  12.771 -0.4323 -0.2793 -0.4172
16209TIP3    H170118   2.953   5.589  12.830  0.4728 -0.4945  0.7678
16209TIP3    H270119   3.020   5.615  12.697 -0.2791  1.0754  0.6652
16210TIP3   OH270120   0.140   2.189  17.107  0.2045  0.1397  0.1224
16210TIP3    H170121   0.056   2.162  17.146  0.3837  0.0123  0.4206
16210TIP3    H270122   0.177   2.108  17.072 -0.5986  0.4667 -1.5761
16211TIP3   OH270123   3.874   3.450  12.370 -0.2531 -0.2754 -0.3956
16211TIP3    H170124   3.882   3.400  12.451  0.1204  0.7955  0.2428
16211TIP3    H270125   3.849   3.538  12.398 -0.4914  0.0112 -1.4673
16212TIP3   OH270126   5.299   0.228   3.378  0.4687  0.2174 -0.4306
16212TIP3    H170127   5.391   0.214   3.397  0.6939  0.4840 -1.3091
16212TIP3    H270128   5.296   0.255   3.287 -0.5083 -0.0737 -0.5015
16213TIP3   OH270129   1.950   1.261   3.618 -0.3253  0.6079 -0.4351
16213TIP3    H170130   1.945   1.355   3.600 -0.3716  0.4158 -1.4887
16213TIP3    H270131   2.001   1.226   3.545 -0.9229 -0.2872 -0.4309
16214TIP3   OH270132   0.468   1.817   4.229 -0.0611  0.4658  0.3824
16214TIP3    H170133   0.382   1.846   4.260  0.5740  1.5392  1.2386
16214TIP3    H270134   0.522   1.812   4.308  0.3533 -1.4528  0.0317
16215TIP3   OH270135   2.960   0.383  16.273 -0.0183 -0.8220  0.6785
16215TIP3    H170136   2.980   0.461  16.221  3.5462 -1.5804  0.6583
16215TIP3    H270137   2.987   0.405  16.362  0.1020 -1.7195  0.8735
16216TIP3   OH270138   2.635   3.332   5.030 -0.4144  0.1190 -0.5059
16216TIP3    H170139   2.696   3.299   4.964  0.9351  0.6179  0.4487
16216TIP3    H270140   2.670   3.418   5.054 -1.5600  0.4659  0.0119
16217TIP3   OH270141   3.202   4.086   3.253  0.3184  0.2891 -0.3229
16217TIP3    H170142   3.135   4.050   3.195 -1.7113  1.4459  1.1544
16217TIP3    H270143   3.161   4.085   3.340  2.4912  0.4688  0.7670
16218TIP3   OH270144   5.933   5.499  13.514 -0.2196 -0.2781 -0.4775
16218TIP3    H170145   5.970   5.454  13.590  0.2966  0.7140 -0.1248
16218TIP3    H270146   6.001   5.495  13.447  0.2107  0.7948 -0.1203
16219TIP3   OH270147   3.607   1.057  17.132  0.2371 -0.6140 -0.0768
16219TIP3    H170148   3.525   1.038  17.177  0.9071 -2.0324  0.6176
16219TIP3    H270149   3.675   1.041  17.198  1.0709  0.7559 -0.5694
16220TIP3   OH270150   3.416   1.764  15.063  0.4145  0.0219  0.0206
16220TIP3    H170151   3.414   1.860  15.069  1.8026  0.2918 -2.3784
16220TIP3    H270152   3.325   1.739  15.051  0.0575  1.0791  0.3951
16221TIP3   OH270153   0.795   5.832  11.848 -0.2335  0.1175  0.0945
16221TIP3    H170154   0.701   5.842  11.837 -0.2915 -0.6952 -0.2744
16221TIP3    H270155   0.815   5.749  11.804  0.9535  1.2012 -1.5152
16222TIP3   OH270156   4.216   4.048  14.093 -0.0691  0.0408 -0.4964
16222TIP3    H170157   4.184   4.026  14.005 -3.4038 -1.2502  0.8543
16222TIP3    H270158   4.311   4.055  14.083 -0.1600 -1.3877 -3.9062
16223TIP3   OH270159   2.153   5.483  13.382  0.7328  0.5635 -0.5203
16223TIP3    H170160   2.184   5.571  13.362  2.1308  0.0006 -1.0081
16223TIP3    H270161   2.232   5.428  13.375  0.0336 -0.6195  0.4449
16224TIP3   OH270162   0.445   5.335  15.391 -0.0819 -0.5752  0.1179
16224TIP3    H170163   0.515   5.385  15.349 -0.8313 -0.6964 -1.3241
16224TIP3    H270164   0.365   5.384  15.370 -0.6136 -1.3502  0.3183
16225TIP3   OH270165   0.813   0.021  14.967  0.6358  0.2452  0.8260
16225TIP3    H170166   0.893  -0.022  14.994 -0.3547 -0.9650  1.9884
16225TIP3    H270167   0.827   0.045  14.876  1.0266 -3.1868 -0.1296
16226TIP3   OH270168   5.403   6.292   2.092  0.0372 -1.0558  0.1958
16226TIP3    H170169   5.366   6.276   2.006 -1.1754 -0.2984  0.5480
16226TIP3    H270170   5.330   6.327   2.144  0.7728 -1.3460  1.4845
16227TIP3   OH270171   0.047   3.920   4.080  0.0932 -0.3111  0.0306
16227TIP3    H170172   0.114   3.858   4.053 -0.6979 -1.3103  0.2706
16227TIP3    H270173   0.095   3.988   4.127  0.7706 -2.1945  2.3055
16228TIP3   OH270174   5.754   5.185  11.988  0.0830 -0.5263  0.1657
16228TIP3    H170175   5.728   5.254  11.926  0.0653  0.4056  1.1677
16228TIP3    H270176   5.699   5.110  11.965 -2.7938  1.0222  1.5024
16229TIP3   OH270177   6.711   2.286  16.197 -0.1903  0.0064  0.2804
16229TIP3    H170178   6.793   2.323  16.164  0.0458 -0.5105  0.2730
16229TIP3    H270179   6.738   2.214  16.253 -0.6634 -1.0189 -0.7704
16230TIP3   OH270180   3.063   4.077   3.508  0.1787 -0.3097 -0.4879
16230TIP3    H170181   3.093   4.146   3.568 -0.6987 -0.2629 -0.0885
16230TIP3    H270182   3.051   4.000   3.564 -1.7596  0.0437 -0.3605
16231TIP3   OH270183   6.717   6.472   0.635  0.2942  0.0179  0.5490
16231TIP3    H170184   6.675   6.544   0.588  1.5700  0.9079  0.7153
16231TIP3    H270185   6.803   6.506   0.658  0.3882 -1.0661  1.8986
16232TIP3   OH270186   1.692   3.723  12.908 -0.3658  0.1710  0.3076
16232TIP3    H170187   1.667   3.632  12.888  0.9167 -0.0467 -0.3943
16232TIP3    H270188   1.620   3.756  12.962 -1.5194 -0.8303 -0.5525
16233TIP3   OH270189   1.467   1.452   0.480  0.1284  0.2932  0.3038
16233TIP3    H170190   1.549   1.497   0.461  0.6095 -0.1681  1.2523
16233TIP3    H270191   1.490   1.386   0.544 -0.8191 -0.4740 -0.1233
16234TIP3   OH270192   4.974   0.600  15.236 -0.2423  0.3135  0.0944
16234TIP3    H170193   4.895   0.556  15.266  0.2935  0.0090  1.1039
16234TIP3    H270194   4.992   0.562  15.150 -0.2608 -0.8488  0.5879
16235TIP3   OH270195   5.107   1.063   3.243  1.0694  0.8144 -0.0642
16235TIP3    H170196   5.121   1.003   3.170  0.2459  0.5504 -0.0043
16235TIP3    H270197   5.014   1.057   3.263  1.2295  1.0902  0.8313
16236TIP3   OH270198   4.174   6.246   0.410 -0.6024 -0.1295 -0.4120
16236TIP3    H170199   4.157   6.272   0.320  0.0546 -1.2469 -0.8740
16236TIP3    H270200   4.234   6.171   0.403 -2.7349 -2.0645  0.8196
16237TIP3   OH270201   2.281   2.670  17.094  0.1346  0.5424 -0.1229
16237TIP3    H170202   2.212   2.735  17.109 -0.5950 -0.0537 -0.7891
16237TIP3    H270203   2.273   2.647  17.001  1.5286  0.7801 -0.3218
16238TIP3   OH270204   1.469   5.632  10.487  0.1737  0.0464 -0.0958
16238TIP3    H170205   1.462   5.544  10.451  1.2255  0.2007 -0.7513
16238TIP3    H270206   1.526   5.623  10.563 -0.2347  0.0637  0.2137
16239TIP3   OH270207   1.337   0.743  14.493  0.5723 -0.0630  0.6475
16239TIP3    H170208   1.369   0.753  14.583  0.8534  1.5301  0.4045
16239TIP3    H270209   1.372   0.659  14.464 -1.7814 -2.0119  2.9218
16240TIP3   OH270210   1.325   2.535  14.568  0.0969  0.6232  0.0024
16240TIP3    H170211   1.233   2.553  14.589 -0.0560  0.1934 -0.2626
16240TIP3    H270212   1.323   2.447  14.530  1.2025 -1.5246  4.3543
16241TIP3   OH270213   5.291   1.085  13.515 -0.3202  0.1794 -0.7252
16241TIP3    H170214   5.256   1.161  13.468  1.3053  2.3094  1.2242
16241TIP3    H270215   5.240   1.083  13.597  0.5362  0.0347 -0.1843
16242TIP3   OH270216   2.406   3.976  12.990 -0.1262 -0.0835  0.7285
16242TIP3    H170217   2.482   3.930  12.953 -2.2601  0.1734 -4.9601
16242TIP3    H270218   2.344   3.906  13.011 -0.9562 -0.2510 -1.8675
16243TIP3   OH270219   3.195   5.955   0.782 -0.0865 -0.0909  0.0540
16243TIP3    H170220   3.148   5.896   0.840 -0.2768  0.4230  0.4339
16243TIP3    H270221   3.247   6.010   0.841 -2.1406  2.0996 -0.0309
16244TIP3   OH270222   5.027   5.625   5.139  0.2653  0.6124  0.0939
16244TIP3    H170223   4.985   5.696   5.091 -1.3274  0.6104  1.4069
16244TIP3    H270224   4.955   5.577   5.180  1.5186  1.2733  3.3940
16245TIP3   OH270225   3.183   2.284   3.207  0.4298 -0.7563 -0.9388
16245TIP3    H170226   3.234   2.265   3.128 -0.8663  0.4008 -2.1142
16245TIP3    H270227   3.094   2.258   3.185  0.1369 -0.8980  0.3541
16246TIP3   OH270228   5.846   1.691   5.923  0.2133  0.2314 -0.6067
16246TIP3    H170229   5.759   1.669   5.891  0.0999  1.1977 -1.0042
16246TIP3    H270230   5.873   1.615   5.974 -0.1089 -0.8226 -1.9694
16247TIP3   OH270231   0.657   5.229   5.911  0.6689  0.4940 -0.0445
16247TIP3    H170232   0.747   5.264   5.911  0.8188  0.1174  0.3719
16247TIP3    H270233   0.619   5.260   5.993  0.0614  1.5296 -0.6995
16248TIP3   OH270234   6.502   0.025  16.811  0.4339 -0.0454  0.3227
16248TIP3    H170235   6.523  -0.064  16.782 -1.4108  0.0792 -1.6890
16248TIP3    H270236   6.470   0.069  16.731  0.6808  2.2327  1.3969
16249TIP3   OH270237   0.234   1.293   4.415 -0.0261 -0.3601 -0.5734
16249TIP3    H170238   0.203   1.204   4.433 -0.2410 -0.1290  0.2814
16249TIP3    H270239   0.225   1.303   4.321 -1.2636 -0.7880 -0.5265
16250TIP3   OH270240   5.019   4.665  15.452 -0.7670  0.5718  0.7456
16250TIP3    H170241   5.077   4.739  15.436  0.1330 -0.2506  0.0181
16250TIP3    H270242   5.065   4.612  15.516 -1.4293  0.6527  1.3039
16251TIP3   OH270243   4.345   4.363  12.943 -0.1191  0.2325 -0.1342
16251TIP3    H170244   4.319   4.414  12.867  0.4475  1.4511  0.4632
16251TIP3    H270245   4.347   4.273  12.912 -2.1419  0.4109 -0.9613
16252TIP3   OH270246   0.645   5.430  10.564 -0.0898 -0.3787  0.0178
16252TIP3    H170247   0.740   5.422  10.561  0.0382  0.8160  0.4118
16252TIP3    H270248   0.626   5.513  10.520 -0.9741 -0.7241 -0.2808
16253TIP3   OH270249   3.534   2.499   2.817 -0.4700 -0.0200  0.4881
16253TIP3    H170250   3.451   2.545   2.802 -0.4883 -0.3962 -0.6493
16253TIP3    H270251   3.599   2.568   2.827 -0.9171  0.2822  1.4972
16254TIP3   OH270252   5.045   6.365  14.481  0.1707  0.1065 -0.3955
16254TIP3    H170253   5.050   6.461  14.485  1.3983  0.0279  1.2461
16254TIP3    H270254   5.106   6.336  14.549 -0.7281 -1.8388 -0.3726
16255TIP3   OH270255   4.706   4.964   3.998 -0.3464  0.3337 -0.6818
16255TIP3    H170256   4.654   5.005   4.067 -0.6612 -4.2102  2.2835
16255TIP3    H270257   4.647   4.958   3.923 -2.5031 -0.3173  0.9553
16256TIP3   OH270258   4.099   0.578   0.014  0.3758 -0.0604 -0.3229
16256TIP3    H170259   4.166   0.547  -0.046  1.6541 -2.9135  2.3036
16256TIP3    H270260   4.019   0.533  -0.015  1.1494 -2.0680  0.4332
16257TIP3   OH270261   1.927   2.573   1.818 -0.1130  0.3250 -0.4691
16257TIP3    H170262   1.834   2.566   1.839  0.1124 -0.1919  0.4451
16257TIP3    H270263   1.932   2.638   1.748 -0.7813  3.5757  2.2370
16258TIP3   OH270264   4.044   1.385   2.144 -0.3184 -0.6885  0.3176
16258TIP3    H170265   4.110   1.360   2.208 -0.1447 -1.9397 -0.3238
16258TIP3    H270266   4.012   1.302   2.108 -0.7381 -0.0318 -0.8918
16259TIP3   OH270267   4.363   5.135  13.748 -0.6452  0.0787  0.0341
16259TIP3    H170268   4.402   5.124  13.661  1.2066  0.9207  0.6880
16259TIP3    H270269   4.287   5.078  13.748 -0.6651  0.0322 -2.1206
16260TIP3   OH270270   3.721   4.056   6.726  0.6163  0.1010 -0.1764
16260TIP3    H170271   3.690   4.064   6.816 -0.0889  1.1635 -0.5055
16260TIP3    H270272   3.732   3.962   6.713 -1.4050 -0.2496  0.3186
16261TIP3   OH270273   3.825   3.773  13.441 -0.4183  0.3136 -0.1952
16261TIP3    H170274   3.810   3.801  13.531  0.7134 -1.1934  0.5002
16261TIP3    H270275   3.783   3.688  13.435  0.6890 -0.2264 -0.6558
16262TIP3   OH270276   6.580   3.946  12.103 -0.2895  0.2024  0.3418
16262TIP3    H170277   6.660   3.997  12.088  1.5580 -2.2625  1.1369
16262TIP3    H270278   6.550   3.923  12.015 -0.2200  1.2181  0.0320
16263TIP3   OH270279   2.595   2.790  12.857 -0.2265 -0.3607  0.0474
16263TIP3    H170280   2.676   2.792  12.806 -0.4464 -1.0299 -0.3426
16263TIP3    H270281   2.624   2.797  12.948  0.4524 -2.6126  0.0713
16264TIP3   OH270282   1.240   0.679   2.229  0.5013 -1.0082  0.4060
16264TIP3    H170283   1.271   0.597   2.268  0.7147 -1.3241 -0.4009
16264TIP3    H270284   1.319   0.731   2.217  0.6341 -1.4262 -0.7516
16265TIP3   OH270285   4.726   0.787  13.381 -0.1250 -0.5714  0.7421
16265TIP3    H170286   4.704   0.722  13.315 -0.6830  1.9250 -1.7039
16265TIP3    H270287   4.649   0.843  13.387  1.6107  2.1784 -0.2890
16266TIP3   OH270288   5.760   0.760  15.509  0.6455 -0.2791 -0.1020
16266TIP3    H170289   5.726   0.736  15.595  0.4036  1.0499  0.1941
16266TIP3    H270290   5.730   0.689  15.451 -1.4801  0.1295  0.4077
16267TIP3   OH270291   5.951   3.029   0.525 -0.6354  0.1040 -0.0136
16267TIP3    H170292   5.957   3.120   0.499 -0.3716  1.2564  3.4700
16267TIP3    H270293   6.041   2.998   0.525 -0.0143  1.4763  3.3514
16268TIP3   OH270294   4.414   4.037  11.496  0.2498  0.0932 -0.2678
16268TIP3    H170295   4.420   3.992  11.412 -0.4938 -0.2852 -0.1267
16268TIP3    H270296   4.490   4.006  11.545  1.1728  0.9916 -1.1107
16269TIP3   OH270297   4.539   0.140  14.666  0.5616  0.2184 -0.5380
16269TIP3    H170298   4.450   0.173  14.655  0.1937 -0.2891  0.7093
16269TIP3    H270299   4.530   0.045  14.668  1.0302  0.1752  0.2540
16270TIP3   OH270300   0.763   3.535   6.648  0.1889  0.2282  0.1145
16270TIP3    H170301   0.797   3.604   6.590  1.3198 -0.2298  0.2165
16270TIP3    H270302   0.831   3.523   6.714  0.1586 -1.1953 -0.0758
16271TIP3   OH270303   2.911   6.603  15.920  0.4566  0.0747  0.0100
16271TIP3    H170304   2.874   6.593  16.008 -0.4165  3.4272  0.1760
16271TIP3    H270305   2.844   6.567  15.862 -0.6377  1.1169  0.5809
16272TIP3   OH270306   0.284   0.633  16.449 -0.2173  0.2009 -0.4324
16272TIP3    H170307   0.344   0.664  16.381 -0.5833  1.9229 -0.0138
16272TIP3    H270308   0.309   0.542  16.464  0.8129  0.2219 -1.8414
16273TIP3   OH270309   6.299   4.726  13.588  0.3896 -0.1756 -0.1486
16273TIP3    H170310   6.348   4.782  13.529 -0.2579  0.6826  0.1089
16273TIP3    H270311   6.234   4.682  13.531 -0.1862  0.5950 -0.1027
16274TIP3   OH270312   0.216   0.760  14.356  0.7041  0.0831 -0.5175
16274TIP3    H170313   0.229   0.697  14.285 -1.1515 -0.4195 -0.4706
16274TIP3    H270314   0.252   0.716  14.433 -0.7025 -1.0472 -0.4560
16275TIP3   OH270315   5.684   3.569   4.322  0.5773  0.1983 -0.4028
16275TIP3    H170316   5.646   3.625   4.389  0.3500  0.6891 -0.9346
16275TIP3    H270317   5.645   3.599   4.240  2.0423  0.6837 -0.9637
16276TIP3   OH270318   4.865   1.732   6.354  0.3923 -0.2987 -0.8506
16276TIP3    H170319   4.775   1.707   6.335 -0.2485  0.2954  1.2269
16276TIP3    H270320   4.897   1.666   6.415  0.6738  0.5701 -0.0243
16277TIP3   OH270321   5.684   2.154  12.819  0.0572 -0.4290  0.0523
16277TIP3    H170322   5.663   2.063  12.798  0.0267 -0.4794  0.3008
16277TIP3    H270323   5.769   2.149  12.862  0.0455 -0.3415  0.0849
16278TIP3   OH270324   1.010   4.595   4.528 -0.4229 -0.0920 -0.9129
16278TIP3    H170325   1.104   4.601   4.545 -0.6546 -0.8181  0.8572
16278TIP3    H270326   0.983   4.685   4.508  0.0901  0.8076  1.9733
16279TIP3   OH270327   5.901   6.165  13.667 -0.5235 -0.2601  0.0513
16279TIP3    H170328   5.935   6.095  13.723 -0.4436 -0.1288  0.1682
16279TIP3    H270329   5.898   6.242  13.724  0.8329  0.2153 -0.4752
16280TIP3   OH270330   6.458   0.007  14.492 -0.2792 -0.4976  0.7073
16280TIP3    H170331   6.435  -0.078  14.530  0.6587 -0.7160  0.8332
16280TIP3    H270332   6.510  -0.015  14.414 -1.3973 -0.0419 -0.1855
16281TIP3   OH270333   1.278   0.187  16.983 -0.1928 -0.8305 -0.8800
16281TIP3    H170334   1.225   0.178  16.904  0.9156 -0.8731 -1.6289
16281TIP3    H270335   1.291   0.282  16.992 -1.2675 -0.7299 -0.0783
16282TIP3   OH270336   0.709   0.475  13.492 -0.4375 -0.4581 -0.1069
16282TIP3    H170337   0.801   0.472  13.464 -0.2083 -2.3976  0.6418
16282TIP3    H270338   0.702   0.553  13.546  0.9164 -0.5347  0.2174
16283TIP3   OH270339   4.299   3.556   0.000 -0.1267  0.0015 -0.2316
16283TIP3    H170340   4.393   3.571  -0.016 -0.4989  1.3938 -1.3046
16283TIP3    H270341   4.255   3.623  -0.052 -1.6686  0.5670  1.6952
16284TIP3   OH270342   3.532   4.500   5.568  0.0672 -0.3471 -0.4157
16284TIP3    H170343   3.603   4.557   5.596  0.3388 -1.0392  0.3266
16284TIP3    H270344   3.466   4.560   5.533 -0.0781  0.5225  1.2695
16285TIP3   OH270345   0.610   4.301   0.745  0.2943  0.2439 -0.2690
16285TIP3    H170346   0.539   4.331   0.689  0.2637 -1.6596 -1.3287
16285TIP3    H270347   0.592   4.341   0.831 -1.6801  0.3035 -0.6804
16286TIP3   OH270348   2.067   2.542  13.622  0.0694 -0.2974 -0.4499
16286TIP3    H170349   2.074   2.638  13.621 -0.4906 -0.2380  0.4026
16286TIP3    H270350   2.154   2.513  13.648 -0.1543  0.0515  0.7419
16287TIP3   OH270351   4.572   0.343   2.586  0.2244 -0.0846  0.1251
16287TIP3    H170352   4.510   0.351   2.513 -0.4758 -2.5787  0.3464
16287TIP3    H270353   4.657   0.366   2.548 -0.4417  0.8278 -0.8780
16288TIP3   OH270354   5.902   2.192   4.630 -0.1777 -0.3405  0.2810
16288TIP3    H170355   5.953   2.211   4.709 -1.4766  0.5223  0.9460
16288TIP3    H270356   5.814   2.172   4.663  0.0930 -3.7972 -0.6618
16289TIP3   OH270357   0.767   2.800   4.998 -0.1358  0.4876 -0.2985
16289TIP3    H170358   0.724   2.716   4.979 -0.5291  0.5336  0.3766
16289TIP3    H270359   0.696   2.864   4.999 -0.0848  0.5396  0.9667
16290TIP3   OH270360   3.950   5.155   3.840  0.2018  0.6557 -1.3048
16290TIP3    H170361   3.985   5.078   3.795  2.0352  0.1271  0.8417
16290TIP3    H270362   3.992   5.154   3.926 -1.6349  2.6832 -0.2727
16291TIP3   OH270363   1.915   3.225   4.070 -0.5219 -0.4942  0.3716
16291TIP3    H170364   1.928   3.220   4.164  1.6978 -2.3009  0.0545
16291TIP3    H270365   1.834   3.274   4.059 -1.4836 -1.2960  3.2318
16292TIP3   OH270366   2.537   0.792   0.659  0.0260 -0.4946  0.0125
16292TIP3    H170367   2.591   0.822   0.586 -1.4697 -0.1524 -1.0289
16292TIP3    H270368   2.460   0.753   0.616 -0.5879 -0.8935  1.4118
16293TIP3   OH270369   0.733   1.524   0.690 -0.4477 -0.2291 -0.1920
16293TIP3    H170370   0.708   1.617   0.691 -0.2689 -0.1750 -0.5753
16293TIP3    H270371   0.761   1.507   0.780  0.7056  0.4288 -0.4019
16294TIP3   OH270372   5.779   2.684   3.310  0.1627 -0.2044 -0.0892
16294TIP3    H170373   5.737   2.598   3.311  0.0444 -0.1557  1.4136
16294TIP3    H270374   5.760   2.718   3.223 -0.9896 -1.1228 -0.2370
16295TIP3   OH270375   2.243   3.301  16.199 -0.2916 -0.5821 -0.1711
16295TIP3    H170376   2.148   3.313  16.201 -0.2199 -0.0149 -0.2471
16295TIP3    H270377   2.279   3.385  16.226  0.1831 -0.9646  0.3982
16296TIP3   OH270378   0.626   0.494  11.492 -0.3343  0.1494  0.0686
16296TIP3    H170379   0.614   0.403  11.464  1.9689 -0.2136  0.1066
16296TIP3    H270380   0.575   0.545  11.428  1.9635 -0.8904 -2.8276
16297TIP3   OH270381   2.551   4.654   1.163 -0.0855 -0.3256  0.8867
16297TIP3    H170382   2.488   4.676   1.231  0.7986 -0.3784  1.7484
16297TIP3    H270383   2.572   4.561   1.178  1.0514 -0.0117  1.3551
16298TIP3   OH270384   4.695   3.270  14.402  0.0260  0.1427  0.1245
16298TIP3    H170385   4.769   3.321  14.369 -0.4979  0.1347 -1.1003
16298TIP3    H270386   4.621   3.330  14.397 -1.2600 -1.4520 -4.1583
16299TIP3   OH270387   2.238   1.247   3.965 -0.1200 -0.3532  0.2664
16299TIP3    H170388   2.266   1.339   3.958 -1.6765  0.1252  0.0186
16299TIP3    H270389   2.251   1.225   4.057 -0.8930  0.5085  0.5858
16300TIP3   OH270390   1.811   1.951   0.680 -0.2493  0.2138 -0.0449
16300TIP3    H170391   1.722   1.952   0.715 -0.0406 -0.1257  0.4940
16300TIP3    H270392   1.859   2.012   0.736 -0.6544  2.2387 -1.7339
16301TIP3   OH270393   5.037   4.873   0.533 -0.3806 -0.1690  0.0347
16301TIP3    H170394   4.948   4.906   0.523 -0.5630 -0.1892  1.3996
16301TIP3    H270395   5.029   4.803   0.598  0.4341 -1.0410 -0.7688
16302TIP3   OH270396   4.755   3.782  12.481 -0.3364 -0.0104  0.4827
16302TIP3    H170397   4.822   3.842  12.514  0.4558 -0.6342  0.0581
16302TIP3    H270398   4.766   3.785  12.386 -1.7385  0.8009  0.3233
16303TIP3   OH270399   2.336   5.655  15.694 -0.6681  0.2928  0.9650
16303TIP3    H170400   2.310   5.633  15.605  1.3635  0.8714  0.1875
16303TIP3    H270401   2.266   5.618  15.749 -3.1085  1.8089 -0.9312
16304TIP3   OH270402   6.110   3.309   1.590 -0.4224 -0.1443  0.0238
16304TIP3    H170403   6.040   3.353   1.542  1.7594  1.6413 -1.7423
16304TIP3    H270404   6.141   3.375   1.653  0.5509 -0.3770 -0.1843
16305TIP3   OH270405   0.998   1.736  12.462  0.1869 -0.0935  0.3822
16305TIP3    H170406   1.064   1.799  12.431  0.8059  0.3424  2.4345
16305TIP3    H270407   0.930   1.737  12.394  3.1835 -2.2367 -3.0232
16306TIP3   OH270408   2.542   4.521  16.361 -0.3149  0.5207 -0.7053
16306TIP3    H170409   2.545   4.437  16.314 -0.6103  1.6232 -2.8273
16306TIP3    H270410   2.628   4.528  16.403 -0.7885 -1.4568  0.7564
16307TIP3   OH270411   0.432   2.904  15.249  0.1733  0.2739  0.1563
16307TIP3    H170412   0.518   2.883  15.213  0.0761  3.8321 -2.7506
16307TIP3    H270413   0.450   2.976  15.311 -0.6656  1.3875 -0.8461
16308TIP3   OH270414   5.336   0.185   4.781  0.0873 -0.4266  0.0583
16308TIP3    H170415   5.246   0.157   4.761 -0.3691 -0.6889  2.1872
16308TIP3    H270416   5.343   0.271   4.740 -0.6796 -0.9267 -1.2135
16309TIP3   OH270417   0.651   5.782   3.216  0.0494 -0.1239  0.5670
16309TIP3    H170418   0.576   5.816   3.264  0.9925  0.6997  1.5118
16309TIP3    H270419   0.687   5.858   3.170 -1.1356 -0.9821 -1.9512
16310TIP3   OH270420   4.452   2.340  17.021 -0.4496 -0.2171 -0.4510
16310TIP3    H170421   4.369   2.295  17.035 -0.5590  0.1056 -0.0443
16310TIP3    H270422   4.457   2.351  16.926 -1.3906  0.7216 -0.4128
16311TIP3   OH270423   1.391   6.236   4.377  0.3215  0.3838 -0.2942
16311TIP3    H170424   1.443   6.282   4.443  0.4066  0.4532 -0.4080
16311TIP3    H270425   1.450   6.229   4.301  0.6774 -0.8474  0.0751
16312TIP3   OH270426   5.029   5.375  14.506 -0.5266  0.1148  0.0573
16312TIP3    H170427   4.975   5.422  14.570  0.4186  1.3976 -0.0631
16312TIP3    H270428   4.965   5.333  14.448 -1.4131  1.1548  0.2401
16313TIP3   OH270429   6.402   2.323   3.409 -0.3645 -0.0262 -0.1904
16313TIP3    H170430   6.467   2.386   3.377 -0.6773  0.3879 -0.0122
16313TIP3    H270431   6.356   2.294   3.330 -0.6580  0.4570 -0.1942
16314TIP3   OH270432   5.093   2.598  12.365 -0.4004  0.4462 -0.1448
16314TIP3    H170433   5.032   2.649  12.418 -1.3830 -0.8662  0.0617
16314TIP3    H270434   5.177   2.641  12.375 -0.8584  1.0462  1.3337
16315TIP3   OH270435   2.288   0.885  13.893  0.1867 -0.0442 -0.2639
16315TIP3    H170436   2.313   0.920  13.808  1.1338 -0.2386 -0.0727
16315TIP3    H270437   2.340   0.805  13.902 -0.5645 -0.5028  0.1122
16316TIP3   OH270438   6.629   6.453   5.376  0.1364  0.3001 -0.0955
16316TIP3    H170439   6.586   6.527   5.333  0.0433  0.3600  0.0974
16316TIP3    H270440   6.722   6.465   5.359  0.1150  0.4236 -0.1249
16317TIP3   OH270441   4.473   1.449  11.345  0.0281  0.2094 -0.3552
16317TIP3    H170442   4.448   1.461  11.254  3.6349 -1.3085 -1.7173
16317TIP3    H270443   4.428   1.369  11.372 -1.0304  0.6448 -0.7740
16318TIP3   OH270444   6.202   3.531   3.316  0.4668  0.0995 -0.5735
16318TIP3    H170445   6.219   3.622   3.289 -1.1025  0.5605 -0.1183
16318TIP3    H270446   6.210   3.533   3.411 -1.7134  0.3159 -0.3337
16319TIP3   OH270447   5.037   5.751   5.761 -0.6315 -0.3279  0.1407
16319TIP3    H170448   4.945   5.741   5.785 -0.3290  0.2648  1.6265
16319TIP3    H270449   5.060   5.667   5.720 -0.9510 -1.8061  2.7772
16320TIP3   OH270450   1.179   5.193  15.133 -0.2740 -0.5068 -0.1167
16320TIP3    H170451   1.226   5.173  15.052  0.5430 -0.3745  0.3154
16320TIP3    H270452   1.142   5.280  15.119 -0.3386 -0.5853 -0.4388
16321TIP3   OH270453   4.621   4.381   2.957 -0.5981  0.1558 -0.6490
16321TIP3    H170454   4.545   4.323   2.964 -0.4839  0.1880  1.7998
16321TIP3    H270455   4.672   4.364   3.036  0.8407  1.6847 -1.1740
16322TIP3   OH270456   4.062   6.358   3.767  0.5649 -0.0990 -0.4666
16322TIP3    H170457   3.974   6.326   3.745 -0.5967 -0.4042  3.7314
16322TIP3    H270458   4.056   6.453   3.756  0.1588 -0.2241 -1.4482
16323TIP3   OH270459   3.059   4.067   0.071  0.4533  0.2247  0.1320
16323TIP3    H170460   3.065   4.115   0.154 -1.3274 -1.2313  1.1813
16323TIP3    H270461   2.996   4.117   0.020  1.5738  1.1397 -0.4031
16324TIP3   OH270462   3.404   0.551   6.567  0.0650 -0.0366  0.3103
16324TIP3    H170463   3.415   0.603   6.487 -0.1602 -0.5249 -0.0398
16324TIP3    H270464   3.340   0.600   6.618 -0.1256  0.0507 -0.0061
16325TIP3   OH270465   1.437   5.684  14.380 -0.3489  0.3038 -0.1823
16325TIP3    H170466   1.500   5.618  14.351 -1.3312 -1.7637  1.9737
16325TIP3    H270467   1.456   5.694  14.474 -2.8852 -0.0955  0.4405
16326TIP3   OH270468   2.416   4.827  15.522 -0.0554 -0.6390 -0.2510
16326TIP3    H170469   2.348   4.888  15.553  1.0080 -0.0905  1.1220
16326TIP3    H270470   2.418   4.839  15.427 -0.8207  0.4647 -0.1457
16327TIP3   OH270471   3.884   5.476   2.540 -0.0062 -0.1629  0.4336
16327TIP3    H170472   3.861   5.569   2.541  0.1948 -0.1171  0.9487
16327TIP3    H270473   3.801   5.431   2.522  0.1345  0.1775 -1.1787
16328TIP3   OH270474   4.594   3.370  12.229 -0.3949  0.0420 -0.4878
16328TIP3    H170475   4.528   3.309  12.196 -0.9132 -1.1957  2.4925
16328TIP3    H270476   4.549   3.421  12.297  0.7750  1.8208 -0.9681
16329TIP3   OH270477   1.633   4.832  17.107  0.0754 -0.4617  0.0351
16329TIP3    H170478   1.599   4.799  17.190  1.9272 -0.5102  0.8122
16329TIP3    H270479   1.723   4.799  17.102 -0.4636 -1.8144 -2.7525
16330TIP3   OH270480   1.113   3.251   6.500  0.1644  0.2177  0.2891
16330TIP3    H170481   1.138   3.341   6.520 -0.1499 -0.0922  2.2640
16330TIP3    H270482   1.039   3.259   6.440  1.2823  1.2190 -1.0166
16331TIP3   OH270483   5.661   2.774   3.088 -0.0548  0.0695  0.1142
16331TIP3    H170484   5.592   2.753   3.151 -0.3388  0.4627 -0.0655
16331TIP3    H270485   5.662   2.870   3.084  2.1204  0.2197  1.9472
16332TIP3   OH270486   2.397   3.919   3.494  0.2616 -0.2390 -0.1351
16332TIP3    H170487   2.406   4.010   3.465  1.4727 -0.5911 -0.9527
16332TIP3    H270488   2.468   3.873   3.451  0.0477 -1.4723  0.7630
16333TIP3   OH270489   3.497   1.252   2.433 -0.4749  0.0185 -0.1952
16333TIP3    H170490   3.475   1.345   2.439 -3.2771 -0.1804 -3.7339
16333TIP3    H270491   3.592   1.251   2.421 -0.0782  2.1693  1.9879
16334TIP3   OH270492   2.509   1.359  14.310  0.2273 -0.4978 -0.4442
16334TIP3    H170493   2.456   1.374  14.232  0.6523 -0.8873 -0.8183
16334TIP3    H270494   2.467   1.410  14.379  1.0991  1.6972 -1.4359
16335TIP3   OH270495   6.715   0.934  15.355 -0.0214  0.1868  0.2905
16335TIP3    H170496   6.633   0.980  15.371 -0.0828 -0.5250  2.3744
16335TIP3    H270497   6.690   0.857  15.305 -0.4851  0.4430  0.1206
16336TIP3   OH270498   6.273   6.271  16.016 -0.1579  0.4799 -0.2798
16336TIP3    H170499   6.184   6.271  15.980 -0.8881 -0.5607  1.4055
16336TIP3    H270500   6.297   6.363  16.020 -1.2634  0.7951 -0.5734
16337TIP3   OH270501   1.383   1.366   5.235 -0.5799 -0.5160 -0.0004
16337TIP3    H170502   1.397   1.439   5.294 -0.9328 -0.9937  0.6832
16337TIP3    H270503   1.294   1.377   5.203 -0.0559  0.3280 -1.2969
16338TIP3   OH270504   2.397   2.148   3.820  0.1033 -0.2457 -0.2287
16338TIP3    H170505   2.324   2.209   3.825  0.4243  0.1441 -0.2649
16338TIP3    H270506   2.437   2.166   3.735 -0.2192 -0.9880 -0.5455
16339TIP3   OH270507   2.235   3.251   3.200 -0.9123  0.2097  1.0796
16339TIP3    H170508   2.193   3.301   3.130 -2.7306 -1.7619  0.6418
16339TIP3    H270509   2.313   3.301   3.223 -0.8527  1.4786 -1.5991
16340TIP3   OH270510   2.494   0.473   4.636 -0.3688 -0.4813  0.0796
16340TIP3    H170511   2.429   0.407   4.614 -1.0954  0.2898 -0.1308
16340TIP3    H270512   2.565   0.459   4.573 -0.0506 -1.7152  0.7024
16341TIP3   OH270513   3.751   1.153   3.337  0.0602 -0.3212  0.5833
16341TIP3    H170514   3.827   1.210   3.350 -2.5240  4.0325 -1.1336
16341TIP3    H270515   3.752   1.131   3.244 -0.5407 -0.5656  0.6264
16342TIP3   OH270516   1.582   5.543  11.055 -0.1543 -0.1432  0.7728
16342TIP3    H170517   1.541   5.505  11.133 -1.3653 -0.9744 -0.2378
16342TIP3    H270518   1.528   5.513  10.982  0.5987  1.1242 -0.3487
16343TIP3   OH270519   0.334   2.696   3.532 -0.5643 -0.3248 -0.0116
16343TIP3    H170520   0.324   2.608   3.568  1.4571 -0.1908  1.0063
16343TIP3    H270521   0.412   2.691   3.477 -1.3580  0.4638 -1.2503
16344TIP3   OH270522   4.365   0.419   2.312 -0.0664  0.2488  0.2704
16344TIP3    H170523   4.377   0.511   2.337 -1.7684  0.4423  0.4903
16344TIP3    H270524   4.281   0.417   2.266 -0.5377 -1.3354  1.0972
16345TIP3   OH270525   2.681   1.030  16.639  0.2712  0.2824 -0.1619
16345TIP3    H170526   2.743   1.081  16.691  0.8243 -0.0789 -0.4685
16345TIP3    H270527   2.689   0.941  16.671 -1.8441  0.5916  1.4957
16346TIP3   OH270528   6.663   4.351   0.592  0.0033  0.1227 -0.9346
16346TIP3    H170529   6.640   4.425   0.536 -0.1239  0.9692  0.1899
16346TIP3    H270530   6.751   4.326   0.564  0.8168  1.9189 -0.1435
16347TIP3   OH270531   0.090   4.515   2.385 -0.4028  0.0424 -0.4615
16347TIP3    H170532   0.167   4.515   2.442 -1.5208 -1.7923  1.1986
16347TIP3    H270533   0.103   4.440   2.327 -0.7087 -0.0133 -0.4630
16348TIP3   OH270534   6.095   2.230  11.691  0.5256  0.1962 -0.4567
16348TIP3    H170535   6.162   2.298  11.700  0.9104 -0.2695  0.3328
16348TIP3    H270536   6.134   2.167  11.631  1.3887 -0.7373  1.0140
16349TIP3   OH270537   1.725   4.985  11.317 -0.3472 -0.5808  0.2770
16349TIP3    H170538   1.745   5.046  11.387 -1.6173 -1.0399  1.0703
16349TIP3    H270539   1.647   5.022  11.274  0.1701 -0.5195 -0.6345
16350TIP3   OH270540   6.484   0.741  14.605 -0.4465 -0.1141  0.5428
16350TIP3    H170541   6.451   0.671  14.549  0.7861 -1.0373  0.9363
16350TIP3    H270542   6.557   0.778  14.556 -0.2281 -0.0197  0.9374
16351TIP3   OH270543   4.397   2.779   1.113 -0.2510  0.0326 -0.3667
16351TIP3    H170544   4.464   2.734   1.062 -0.2470 -0.7396  0.3069
16351TIP3    H270545   4.426   2.870   1.116  0.4730 -0.1887 -0.5582
16352TIP3   OH270546   4.825   3.014   0.739  0.5826  0.0448  0.1472
16352TIP3    H170547   4.873   3.032   0.821  1.6517  2.1044 -0.8530
16352TIP3    H270548   4.770   3.091   0.727  0.3091 -0.3200 -0.9911
16353TIP3   OH270549   4.044   5.224  14.230  0.0172  0.0035  0.7745
16353TIP3    H170550   4.117   5.284  14.216 -0.5801  0.3504 -1.0253
16353TIP3    H270551   4.072   5.142  14.189 -1.2194  0.6236 -1.4250
16354TIP3   OH270552   5.198   3.707  12.186 -0.1314  0.5083  0.0193
16354TIP3    H170553   5.113   3.664  12.188 -0.9707  2.1199  0.1876
16354TIP3    H270554   5.223   3.715  12.278  0.6286 -0.6981 -0.0502
16355TIP3   OH270555   2.997   3.377   2.210  0.1284  0.1282  0.0353
16355TIP3    H170556   2.924   3.315   2.203 -0.2190  0.6080 -0.6699
16355TIP3    H270557   3.061   3.347   2.146  0.8813 -0.6963  1.1227
16356TIP3   OH270558   4.131   1.961  15.615  0.2172 -0.2206 -0.2718
16356TIP3    H170559   4.173   1.918  15.541 -0.6898 -1.3407 -0.1561
16356TIP3    H270560   4.179   1.929  15.692 -1.1573 -1.9677 -0.0876
16357TIP3   OH270561   2.168   0.387  15.745  0.1639  0.3612 -0.7230
16357TIP3    H170562   2.221   0.447  15.797  0.1610  0.1880 -0.5136
16357TIP3    H270563   2.085   0.433  15.733 -0.9350 -0.7170  1.9379
16358TIP3   OH270564   0.976   1.657  16.030 -0.8562  0.3840  0.1865
16358TIP3    H170565   1.063   1.651  16.070 -1.8912 -0.1262  2.5759
16358TIP3    H270566   0.956   1.751  16.031 -0.7881  0.4003  0.7817
16359TIP3   OH270567   1.936   4.577  16.269  0.1973  0.2685 -0.3144
16359TIP3    H170568   1.994   4.635  16.219  0.7638  0.6221  0.7323
16359TIP3    H270569   1.966   4.489  16.246 -0.5256  0.3631 -1.7417
16360TIP3   OH270570   2.393   1.950  13.433  0.6596  0.4317  0.2178
16360TIP3    H170571   2.435   1.879  13.384  0.1808  0.6883 -0.5809
16360TIP3    H270572   2.336   1.906  13.495  1.7739  0.0865  1.0301
16361TIP3   OH270573   4.798   1.197  12.932  0.6265  0.0320 -0.0332
16361TIP3    H170574   4.815   1.286  12.899 -0.8823 -0.3317 -1.9276
16361TIP3    H270575   4.710   1.201  12.969  0.6067 -0.6323  0.0031
16362TIP3   OH270576   5.430   4.366   4.968 -0.3045  0.2572  0.0445
16362TIP3    H170577   5.520   4.399   4.970 -0.3218  0.2782  0.7573
16362TIP3    H270578   5.423   4.322   4.883  0.6946 -0.5982  0.3799
16363TIP3   OH270579   5.108   5.561   1.055  0.2559 -0.9794 -0.2155
16363TIP3    H170580   5.139   5.489   1.109  2.5054  1.7377  2.5361
16363TIP3    H270581   5.188   5.598   1.017 -0.7198  0.5246 -0.8993
16364TIP3   OH270582   6.546   2.790  15.504 -0.2031  0.1410  0.0500
16364TIP3    H170583   6.548   2.885  15.498  0.5011  0.0552 -1.6376
16364TIP3    H270584   6.473   2.763  15.448  0.3886 -0.3469 -0.5050
16365TIP3   OH270585   5.139   6.030   0.426 -0.4894 -0.5449  0.2830
16365TIP3    H170586   5.114   5.946   0.387  1.1522 -1.3378  0.8665
16365TIP3    H270587   5.143   6.013   0.520 -0.2571  0.2243  0.4211
16366TIP3   OH270588   6.055   2.313   0.792  0.1133  0.2565  0.4111
16366TIP3    H170589   5.960   2.318   0.806  0.0949  3.3095 -0.0668
16366TIP3    H270590   6.092   2.341   0.876  0.6200 -0.8786  0.5768
16367TIP3   OH270591   3.446   5.200  11.372 -0.3910 -0.0246  0.0468
16367TIP3    H170592   3.429   5.229  11.282  1.2699 -2.5104 -1.2050
16367TIP3    H270593   3.496   5.272  11.411  0.3195  0.4440 -1.6075
16368TIP3   OH270594   3.772   0.861  13.250 -0.2186 -0.2147  0.2008
16368TIP3    H170595   3.771   0.913  13.330 -0.5354 -0.6119  0.4488
16368TIP3    H270596   3.740   0.922  13.182 -1.7364 -0.4360  0.6989
16369TIP3   OH270597   1.666   2.521   4.243 -0.4918 -0.7575  0.9332
16369TIP3    H170598   1.747   2.562   4.214 -1.2814 -1.1359 -2.0681
16369TIP3    H270599   1.695   2.438   4.282  0.5665 -0.9744 -0.2579
16370TIP3   OH270600   2.259   0.969   3.823 -0.4863  0.2727  0.1023
16370TIP3    H170601   2.246   0.977   3.918 -1.1239 -1.1205  0.1562
16370TIP3    H270602   2.320   0.896   3.813 -1.6371 -0.6286 -0.5913
16371TIP3   OH270603   6.347   3.970   6.233 -0.3131 -0.2778  0.2268
16371TIP3    H170604   6.254   3.960   6.216 -0.2540  1.5024 -1.5792
16371TIP3    H270605   6.353   3.996   6.325 -1.7760  1.3145 -0.0923
16372TIP3   OH270606   3.683   2.284  15.133  0.2880  0.1105  0.1946
16372TIP3    H170607   3.653   2.201  15.171 -1.2995  1.2229  1.4981
16372TIP3    H270608   3.779   2.281  15.141  0.2908 -1.6973 -0.0747
16373TIP3   OH270609   1.719   1.603   4.995 -0.0448  0.0956 -0.4232
16373TIP3    H170610   1.695   1.672   4.933  0.3945 -0.2572 -0.9976
16373TIP3    H270611   1.693   1.637   5.081  1.3948  1.5750 -0.5173
16374TIP3   OH270612   2.153   1.134  12.812  0.6223  0.0625  0.1053
16374TIP3    H170613   2.111   1.055  12.779 -1.4408  1.6372 -1.3181
16374TIP3    H270614   2.242   1.129  12.779  1.0665 -2.3852  1.4128
16375TIP3   OH270615   6.638   3.918   2.489  0.5648  0.4009 -0.1122
16375TIP3    H170616   6.674   4.000   2.522 -0.5869  0.5095  0.9324
16375TIP3    H270617   6.689   3.850   2.534  0.4207  0.5512  0.2846
16376TIP3   OH270618   2.182   5.309  15.524 -0.0575 -0.3318 -0.3438
16376TIP3    H170619   2.233   5.285  15.602 -1.8012 -1.2515  0.5698
16376TIP3    H270620   2.246   5.348  15.465  2.0242 -2.7542  0.1368
16377TIP3   OH270621   3.596   4.373  17.084  0.2737 -0.0324  0.3838
16377TIP3    H170622   3.525   4.406  17.028  0.6663  2.8321  1.4045
16377TIP3    H270623   3.672   4.369  17.026 -0.2653 -1.2914 -0.2692
16378TIP3   OH270624   3.686   1.958  11.238  0.2919 -0.2865 -0.4664
16378TIP3    H170625   3.613   1.947  11.176 -1.4858 -3.7324  1.9276
16378TIP3    H270626   3.758   1.907  11.199  0.7532  1.2359 -1.7224
16379TIP3   OH270627   3.960   5.531   3.933  0.5197 -0.3993  0.4649
16379TIP3    H170628   4.022   5.508   4.002 -1.0836 -0.1027  2.0725
16379TIP3    H270629   3.904   5.454   3.923 -1.3167  0.6518  1.8959
16380TIP3   OH270630   4.419   1.870   5.387 -0.3393  0.3586  0.7391
16380TIP3    H170631   4.412   1.848   5.480  1.0560  1.1220  1.0617
16380TIP3    H270632   4.513   1.869   5.370 -0.5975 -0.2048 -0.7920
16381TIP3   OH270633   4.833   4.313   0.627 -0.2022  0.7125 -0.0037
16381TIP3    H170634   4.861   4.276   0.543  0.0776 -0.3452  0.5413
16381TIP3    H270635   4.745   4.346   0.610 -0.5197 -0.3314 -0.4841
16382TIP3   OH270636   4.609   6.543  11.816  0.0392  0.1732  0.1399
16382TIP3    H170637   4.632   6.518  11.726 -1.8938 -2.4323  0.2137
16382TIP3    H270638   4.689   6.529  11.866  0.8017  0.3940 -0.9790
16383TIP3   OH270639   0.535   3.106   6.271 -0.2453  0.2487 -0.0936
16383TIP3    H170640   0.628   3.097   6.250 -0.5591 -0.4148 -1.2771
16383TIP3    H270641   0.522   3.200   6.282  0.4271  0.4071 -0.5948
16384TIP3   OH270642   0.645   4.047   1.323 -0.2340 -0.2905 -0.2060
16384TIP3    H170643   0.587   3.972   1.310 -0.8081  0.2333 -0.7492
16384TIP3    H270644   0.718   4.012   1.374 -2.3540 -0.3890  3.1050
16385TIP3   OH270645   2.299   6.430   0.518 -0.3212 -0.2904 -0.1135
16385TIP3    H170646   2.340   6.371   0.455  0.4147  1.3052 -1.2160
16385TIP3    H270647   2.355   6.508   0.517  1.2342 -1.0508  4.4207
16386TIP3   OH270648   0.624   5.861  16.945  0.1332 -0.2944  0.1085
16386TIP3    H170649   0.656   5.935  16.892 -0.6796  0.1796  0.2681
16386TIP3    H270650   0.529   5.872  16.947 -0.1213 -2.0346 -0.8612
16387TIP3   OH270651   5.235   2.763   3.876 -0.7455  0.4646 -0.6567
16387TIP3    H170652   5.290   2.736   3.949 -1.4892 -1.1390 -0.6397
16387TIP3    H270653   5.273   2.845   3.846  0.8044  0.1077  0.2245
16388TIP3   OH270654   5.389   5.396  15.461 -0.1000 -0.3172 -0.2360
16388TIP3    H170655   5.309   5.371  15.508  1.1614 -1.0022  1.6412
16388TIP3    H270656   5.407   5.322  15.403 -0.5793 -0.3497 -0.3459
16389TIP3   OH270657   1.176   3.189   2.495  0.4240 -0.2413  0.3627
16389TIP3    H170658   1.222   3.135   2.559 -0.3242 -0.4690  0.7145
16389TIP3    H270659   1.127   3.127   2.442  0.0288  0.0435  0.3906
16390TIP3   OH270660   5.520   5.170   4.401 -0.1061  0.3943  0.0789
16390TIP3    H170661   5.508   5.123   4.318 -0.8633 -2.7334  1.7865
16390TIP3    H270662   5.538   5.260   4.375  0.4837 -0.5801 -3.4835
16391TIP3   OH270663   3.610   1.610   5.020 -0.3695  0.3121  0.0222
16391TIP3    H170664   3.635   1.654   4.939 -2.4956  1.6257  0.0019
16391TIP3    H270665   3.629   1.673   5.089 -0.2330 -0.1045  0.3690
16392TIP3   OH270666   3.376   4.211  13.321 -0.8929 -0.3713  0.2819
16392TIP3    H170667   3.403   4.162  13.399  2.4794 -2.8693 -2.1388
16392TIP3    H270668   3.355   4.144  13.257 -0.3344  1.4501 -1.9416
16393TIP3   OH270669   6.376   5.922   0.170 -0.4062 -0.0988 -0.3086
16393TIP3    H170670   6.385   5.873   0.252 -1.1384 -1.3182 -0.9168
16393TIP3    H270671   6.432   5.875   0.108 -0.8892  0.0007 -0.8311
16394TIP3   OH270672   0.057   1.365   5.867 -0.0294 -0.0685 -0.6183
16394TIP3    H170673   0.033   1.314   5.790  0.5405 -1.0424 -0.1721
16394TIP3    H270674  -0.012   1.431   5.875 -1.7422 -1.8312 -0.2309
16395TIP3   OH270675   2.358   5.781   2.650  0.5150 -0.4307 -0.1135
16395TIP3    H170676   2.339   5.848   2.715 -1.6042  0.4376 -1.5431
16395TIP3    H270677   2.452   5.764   2.660  0.4106  0.1410  2.6641
16396TIP3   OH270678   0.137   3.143   0.396  0.0456  0.6815 -0.7964
16396TIP3    H170679   0.223   3.102   0.406 -0.5363 -0.5713 -0.6721
16396TIP3    H270680   0.150   3.211   0.330  0.7337 -0.7422 -2.2026
16397TIP3   OH270681   3.825   2.187   6.380  0.3626 -0.0567 -0.1015
16397TIP3    H170682   3.892   2.253   6.396  0.7095 -0.3210 -0.4186
16397TIP3    H270683   3.856   2.110   6.427 -0.6317  0.3354  1.2539
16398TIP3   OH270684   4.307   5.398  14.127 -0.4756  0.3331 -0.0918
16398TIP3    H170685   4.361   5.465  14.168  0.7509 -0.4939 -0.3076
16398TIP3    H270686   4.351   5.316  14.147 -0.1317 -0.1627 -2.5755
16399TIP3   OH270687   4.254   5.231  16.497  0.2221 -0.2421 -0.5467
16399TIP3    H170688   4.210   5.149  16.475  2.2119 -1.6216  0.2804
16399TIP3    H270689   4.342   5.221  16.461  0.9992  0.8423  0.9422
16400TIP3   OH270690   0.514   4.357  13.281  0.2477  0.3119  0.0660
16400TIP3    H170691   0.600   4.320  13.262  0.3100  0.8296 -0.7029
16400TIP3    H270692   0.457   4.321  13.212 -0.2438 -0.3323  0.7909
16401TIP3   OH270693   1.708   5.651   1.882  0.0118  0.2494  0.0792
16401TIP3    H170694   1.784   5.690   1.839 -0.7991  0.5940 -1.0736
16401TIP3    H270695   1.744   5.576   1.930  0.6811 -1.5159 -2.9550
16402TIP3   OH270696   4.612   5.639   0.274 -0.0596  0.3787 -0.2521
16402TIP3    H170697   4.620   5.707   0.341 -1.1990  0.0713  0.2278
16402TIP3    H270698   4.695   5.642   0.226  0.2104  1.5819  0.2469
16403TIP3   OH270699   1.396   6.739  10.744 -0.0817 -0.4113  0.0468
16403TIP3    H170700   1.305   6.741  10.773 -0.1462  0.4393 -0.1822
16403TIP3    H270701   1.412   6.647  10.722 -0.7385 -0.6472  0.5313
16404TIP3   OH270702   5.192   5.118   5.547  0.0459  0.1794 -0.2118
16404TIP3    H170703   5.247   5.162   5.612  0.9327  0.2827 -1.0166
16404TIP3    H270704   5.110   5.101   5.594  0.9912 -0.6236  1.2594
16405TIP3   OH270705   0.054   3.361   5.825  0.0766  0.3061  0.1587
16405TIP3    H170706   0.083   3.427   5.763 -0.3946 -0.9500 -1.4558
16405TIP3    H270707   0.121   3.362   5.894  1.8993  0.1470 -1.5243
16406TIP3   OH270708   2.017   1.796  14.287  0.2657 -0.4366  0.4610
16406TIP3    H170709   2.068   1.874  14.266  0.5401 -0.5878  0.5688
16406TIP3    H270710   1.998   1.805  14.381 -1.4580  0.5365  0.0674
16407TIP3   OH270711   6.098   1.065  11.560 -0.0102 -1.0794 -0.2888
16407TIP3    H170712   6.092   0.970  11.571 -1.3511 -0.8908  0.9925
16407TIP3    H270713   6.008   1.096  11.574  0.7908  0.5666  1.5930
16408TIP3   OH270714   2.469   6.071   4.683 -0.1786  0.0235  0.3584
16408TIP3    H170715   2.460   6.023   4.600  0.6685 -0.1493  0.3567
16408TIP3    H270716   2.455   6.162   4.659  0.5024  0.0240 -0.0663
16409TIP3   OH270717   2.723   1.725   4.702  0.2742  0.0776 -0.2270
16409TIP3    H170718   2.727   1.810   4.746 -0.8582  0.4605 -0.8156
16409TIP3    H270719   2.701   1.747   4.611 -0.7347 -0.8738 -0.2268
16410TIP3   OH270720   0.602   3.807   4.129  0.5457 -0.4978  0.9345
16410TIP3    H170721   0.609   3.712   4.132 -1.2497 -0.6945  0.4954
16410TIP3    H270722   0.635   3.837   4.214  2.1103 -1.4025  0.6754
16411TIP3   OH270723   0.260   0.045   4.154  0.1409  0.4896 -0.3834
16411TIP3    H170724   0.188   0.098   4.119 -0.5609 -0.2932 -0.1654
16411TIP3    H270725   0.228  -0.045   4.149  0.3271  0.2732  1.5041
16412TIP3   OH270726   3.203   3.722  15.976  0.1257  0.0460 -0.2956
16412TIP3    H170727   3.218   3.650  16.038  0.9238  1.2032  0.9128
16412TIP3    H270728   3.236   3.689  15.893 -1.0956 -1.5979 -0.1741
16413TIP3   OH270729   3.022   5.843  13.077  0.1163 -0.3282  0.3642
16413TIP3    H170730   3.047   5.871  13.165  0.9467  0.2955 -0.0611
16413TIP3    H270731   3.096   5.868  13.021  0.0841 -1.6889 -0.3425
16414TIP3   OH270732   1.534   2.310  15.888  0.3167  0.6955  0.2737
16414TIP3    H170733   1.499   2.226  15.916  1.2924  0.3958  0.6391
16414TIP3    H270734   1.590   2.339  15.960  0.3482  1.4437 -0.0337
16415TIP3   OH270735   6.122   0.460   6.106 -0.1981 -0.4832 -0.2695
16415TIP3    H170736   6.175   0.485   6.181 -0.8319 -0.4458  0.1667
16415TIP3    H270737   6.079   0.379   6.132 -0.4258 -0.4663 -0.5838
16416TIP3   OH270738   0.552   4.658   4.749 -0.0543 -0.1608 -0.0373
16416TIP3    H170739   0.564   4.732   4.808  0.1803 -0.9362  0.9077
16416TIP3    H270740   0.474   4.613   4.782  0.8111 -1.3341  0.5134
16417TIP3   OH270741   0.687   1.063   3.406  0.0673  0.5110  0.0501
16417TIP3    H170742   0.750   0.994   3.429 -0.1927  0.1920 -0.1792
16417TIP3    H270743   0.739   1.128   3.360  0.1700  0.0730 -0.4698
16418TIP3   OH270744   0.173   1.943  12.283 -0.4020  0.9513  0.6533
16418TIP3    H170745   0.165   1.856  12.322  0.7165  0.7878  0.5493
16418TIP3    H270746   0.101   1.993  12.321  0.0348  0.5006  2.1322
16419TIP3   OH270747   0.569   6.489   4.861 -0.0231 -0.2964 -0.1765
16419TIP3    H170748   0.547   6.578   4.833 -1.5560 -0.3601  0.6886
16419TIP3    H270749   0.590   6.498   4.954 -0.0040 -0.8010 -0.1275
16420TIP3   OH270750   5.532   6.145   3.180 -0.0495 -0.4604  0.0424
16420TIP3    H170751   5.463   6.152   3.114  0.6411 -0.2433 -0.6718
16420TIP3    H270752   5.557   6.052   3.179  0.1835 -0.3969 -0.2420
16421TIP3   OH270753   2.289   3.856  16.510 -0.8392 -0.1876  0.3118
16421TIP3    H170754   2.332   3.906  16.579 -2.5856 -0.0694  1.3780
16421TIP3    H270755   2.359   3.804  16.471  0.5415  1.1485  0.9020
16422TIP3   OH270756   0.244   0.647  11.376 -0.3148  0.5475 -0.2179
16422TIP3    H170757   0.295   0.620  11.452 -0.2116  0.2887 -0.3768
16422TIP3    H270758   0.221   0.565  11.332 -1.4978  0.6089  0.2558
16423TIP3   OH270759   5.102   6.393   1.071  0.1260 -0.3007 -0.7266
16423TIP3    H170760   5.019   6.395   1.024  0.6099 -1.0058 -1.6558
16423TIP3    H270761   5.154   6.464   1.031  0.5392 -0.9024 -1.2784
16424TIP3   OH270762   1.991   6.795   3.583  0.2844  0.9237  0.0375
16424TIP3    H170763   2.073   6.807   3.632  1.4809  0.0952 -1.6853
16424TIP3    H270764   1.987   6.869   3.523  0.8910 -0.1502 -1.3680
16425TIP3   OH270765   6.172   1.297   4.087 -0.0834 -0.9383 -0.2454
16425TIP3    H170766   6.147   1.378   4.041  3.3056  0.8920  0.7947
16425TIP3    H270767   6.094   1.273   4.137 -0.8438  2.5086  0.4676
16426TIP3   OH270768   2.097   4.355  16.897 -0.1741  0.4630  0.3947
16426TIP3    H170769   2.017   4.395  16.863  0.6438  1.8181 -0.0042
16426TIP3    H270770   2.074   4.263  16.911 -0.9186  0.1094 -2.6027
16427TIP3   OH270771   4.677   2.631  15.952  0.0389  0.5907 -0.8239
16427TIP3    H170772   4.773   2.623  15.945 -0.0720 -0.4450 -1.4639
16427TIP3    H270773   4.663   2.681  16.032  1.1303  1.0762 -0.9206
16428TIP3   OH270774   2.536   6.415  17.140  0.4292  0.5284 -0.2600
16428TIP3    H170775   2.545   6.322  17.117 -1.8710 -0.3779  2.0190
16428TIP3    H270776   2.616   6.436  17.188  0.7517 -0.3922 -0.3662
16429TIP3   OH270777   2.614   2.779  16.509 -0.0112 -0.2672 -0.1823
16429TIP3    H170778   2.660   2.699  16.484  0.4256 -0.3828  0.9007
16429TIP3    H270779   2.586   2.818  16.427  0.9640 -0.8330 -0.8028
16430TIP3   OH270780   6.468   4.094   1.629 -0.0832  0.6631 -0.3805
16430TIP3    H170781   6.402   4.029   1.609 -0.5065  1.2044 -0.7862
16430TIP3    H270782   6.551   4.046   1.629 -0.5420 -0.1650  0.8772
16431TIP3   OH270783   4.515   5.548   4.065  0.6377 -0.2678  0.1418
16431TIP3    H170784   4.600   5.563   4.105  0.7390 -0.4734  0.0062
16431TIP3    H270785   4.493   5.631   4.022 -0.0760  0.3934  1.7209
16432TIP3   OH270786   4.816   5.880  10.346 -0.1658  0.4768 -0.2562
16432TIP3    H170787   4.881   5.887  10.276 -1.9924  1.2663 -1.9403
16432TIP3    H270788   4.804   5.786  10.358  1.5035  0.2974  0.3585
16433TIP3   OH270789   3.973   6.456   0.454  0.2473 -0.6266 -0.3378
16433TIP3    H170790   4.021   6.374   0.448 -2.8808 -2.5300 -1.9455
16433TIP3    H270791   3.920   6.446   0.533  2.2976  1.4675  1.4554
16434TIP3   OH270792   6.527   5.880  12.781 -0.2620  0.7325 -0.1559
16434TIP3    H170793   6.583   5.880  12.703 -0.8353  1.8859 -0.5901
16434TIP3    H270794   6.440   5.902  12.748 -1.0125 -1.0720  0.5038
16435TIP3   OH270795   4.552   5.578  12.991 -0.3190  0.0560 -0.0740
16435TIP3    H170796   4.616   5.595  12.922  0.4144  0.5459  0.7050
16435TIP3    H270797   4.474   5.546  12.944  0.1033  0.5186 -1.1343
16436TIP3   OH270798   6.800   2.764  14.815  0.5465  0.5924  0.4818
16436TIP3    H170799   6.878   2.732  14.769 -0.3258  0.8803 -1.2402
16436TIP3    H270800   6.827   2.766  14.907  2.2431 -0.2773  0.0502
16437TIP3   OH270801   2.619   2.219  11.903  0.5460  0.0878  0.2328
16437TIP3    H170802   2.696   2.189  11.854  0.9051  1.4301 -0.0475
16437TIP3    H270803   2.626   2.314  11.903 -1.0886  0.2291  0.2634
16438TIP3   OH270804   0.322   6.040   1.200 -0.0591  0.0498 -0.3649
16438TIP3    H170805   0.259   6.111   1.196 -1.4905 -0.6576  3.9521
16438TIP3    H270806   0.282   5.969   1.149 -0.5380  1.0388 -1.3881
16439TIP3   OH270807   0.484   5.868  16.555  0.6086 -0.7571  0.8563
16439TIP3    H170808   0.440   5.928  16.616  1.7327  0.6545  0.3477
16439TIP3    H270809   0.419   5.800  16.537 -1.2238  0.9898  0.4811
16440TIP3   OH270810   2.415   3.664  12.954 -0.8871  0.0051  0.4329
16440TIP3    H170811   2.453   3.659  13.042 -1.7009  1.6966  0.9201
16440TIP3    H270812   2.389   3.574  12.934  0.7364 -0.6921  1.2425
16441TIP3   OH270813   0.640   5.172   4.149 -0.2862 -0.2977  0.0014
16441TIP3    H170814   0.719   5.215   4.181  0.0299 -1.0211  0.2115
16441TIP3    H270815   0.587   5.157   4.227 -0.7186  0.3486 -0.1610
16442TIP3   OH270816   0.058   2.278  11.390 -0.3948  0.1179 -0.2008
16442TIP3    H170817   0.057   2.267  11.295 -1.2483 -0.8712 -0.0970
16442TIP3    H270818  -0.033   2.295  11.413 -0.2828 -0.2040  0.5031
16443TIP3   OH270819   0.003   0.621   5.776  0.0229  0.1026 -0.1805
16443TIP3    H170820  -0.089   0.617   5.800  0.1639  0.3330  0.3879
16443TIP3    H270821   0.035   0.532   5.792 -0.1756 -0.0683 -0.6996
16444TIP3   OH270822   4.775   4.821  16.628 -0.6411  0.9121 -0.4955
16444TIP3    H170823   4.754   4.906  16.588 -0.7159  0.3201 -1.7795
16444TIP3    H270824   4.726   4.821  16.710 -0.4262  2.2209 -0.3365
16445TIP3   OH270825   3.211   5.261  11.684  0.0343  0.4200  0.2833
16445TIP3    H170826   3.172   5.176  11.662 -0.2332  0.3363  1.0602
16445TIP3    H270827   3.141   5.308  11.729  0.6521  0.4910  1.1807
16446TIP3   OH270828   3.212   4.113  12.473 -0.0491 -0.2192  0.1527
16446TIP3    H170829   3.243   4.144  12.388  0.1607 -3.2693 -1.0200
16446TIP3    H270830   3.117   4.119  12.469 -0.0343 -0.2530 -0.2900
16447TIP3   OH270831   4.275   4.600  13.143  0.0964  0.0304 -0.4337
16447TIP3    H170832   4.326   4.649  13.207 -0.2611  1.3503 -1.1239
16447TIP3    H270833   4.340   4.571  13.078  0.0147  1.6298 -1.2646
16448TIP3   OH270834   1.058   0.444  14.595 -0.2255 -0.2642 -0.7251
16448TIP3    H170835   1.083   0.455  14.687 -0.7444  2.5089 -0.8192
16448TIP3    H270836   1.078   0.353  14.575  1.4131 -0.5208  1.6724
16449TIP3   OH270837   3.317   3.636  11.509  0.1334 -0.2281  0.3228
16449TIP3    H170838   3.358   3.552  11.528  1.6597  0.6103  0.8940
16449TIP3    H270839   3.251   3.648  11.577  0.0137 -0.8785  0.3240
16450TIP3   OH270840   6.417   6.575  14.612  0.2500  0.0927  0.4158
16450TIP3    H170841   6.409   6.481  14.629 -0.5000  0.0682 -0.0005
16450TIP3    H270842   6.479   6.607  14.677  1.5241 -0.9109 -0.2546
16451TIP3   OH270843   3.573   5.277   0.798 -0.0154  0.6759  0.0591
16451TIP3    H170844   3.485   5.240   0.787 -0.2184  1.5082 -1.3655
16451TIP3    H270845   3.585   5.334   0.722  0.0527  3.9722  2.2956
16452TIP3   OH270846   0.854   0.638  10.502 -0.1934 -0.4449 -0.1415
16452TIP3    H170847   0.839   0.614  10.411  1.5305 -1.5381 -0.1902
16452TIP3    H270848   0.824   0.728  10.509 -0.5827 -0.4313 -1.7235
16453TIP3   OH270849   4.230   1.560   2.966  0.6131  0.2249  0.5310
16453TIP3    H170850   4.139   1.539   2.949  0.4360 -0.0449  1.7796
16453TIP3    H270851   4.271   1.477   2.989  1.3204  0.2439 -0.5466
16454TIP3   OH270852   0.089   3.765  14.448  0.0922 -0.3511  0.7732
16454TIP3    H170853   0.143   3.809  14.383  1.4564  0.4709  2.3609
16454TIP3    H270854   0.010   3.819  14.455  0.0341 -0.3260 -0.0070
16455TIP3   OH270855   0.244   4.750   1.222  0.0630 -0.0055 -0.3770
16455TIP3    H170856   0.338   4.758   1.206  0.7755 -2.4903  1.8946
16455TIP3    H270857   0.208   4.721   1.138  1.6444 -0.9575 -0.7630
16456TIP3   OH270858   0.148   5.155  12.764 -0.1358 -0.1393 -0.3611
16456TIP3    H170859   0.106   5.228  12.809  1.1425  1.5252 -1.7207
16456TIP3    H270860   0.202   5.113  12.831 -1.7928 -0.6391  0.7324
16457TIP3   OH270861   6.492   2.382  14.709  0.9680  0.5851  0.4182
16457TIP3    H170862   6.468   2.473  14.729  0.2886  0.5747 -0.3179
16457TIP3    H270863   6.569   2.390  14.653 -1.2641  0.9084 -2.8657
16458TIP3   OH270864   1.001   2.683  11.976  0.4266 -0.1600 -0.4717
16458TIP3    H170865   0.948   2.691  11.897 -0.3324 -2.7357 -0.3203
16458TIP3    H270866   0.940   2.653  12.043  1.2804  0.9136  0.8501
16459TIP3   OH270867   0.626   2.750   0.514  0.2370  0.2710 -0.1714
16459TIP3    H170868   0.703   2.699   0.492  0.6147  0.8470 -0.2174
16459TIP3    H270869   0.648   2.840   0.488 -0.7594  0.3062 -0.9720
16460TIP3   OH270870   3.970   0.823   0.654 -0.2694  0.1844 -0.0676
16460TIP3    H170871   3.938   0.743   0.613 -0.4792 -0.0311  0.5078
16460TIP3    H270872   4.033   0.792   0.719 -1.9757  0.3135  1.7267
16461TIP3   OH270873   6.421   1.397   4.177  0.3437  0.1465 -0.3738
16461TIP3    H170874   6.349   1.365   4.122  0.1710  0.4852 -0.3480
16461TIP3    H270875   6.473   1.319   4.195  0.7727  0.1306 -1.5677
16462TIP3   OH270876   2.244   5.375   5.079  0.0390  0.2674  0.2999
16462TIP3    H170877   2.224   5.360   4.987  2.0487  2.3389 -0.5539
16462TIP3    H270878   2.305   5.305   5.102 -0.4449 -0.2369  0.0900
16463TIP3   OH270879   6.799   2.059   5.692 -0.7779 -0.4553  0.1348
16463TIP3    H170880   6.732   2.109   5.739  0.0363  0.7332  0.0550
16463TIP3    H270881   6.881   2.081   5.734 -0.1494 -0.1248 -1.2071
16464TIP3   OH270882   4.554   0.440   3.524  0.1659 -0.3703  0.1572
16464TIP3    H170883   4.536   0.446   3.430 -1.5317 -0.4953  0.4315
16464TIP3    H270884   4.537   0.349   3.546 -0.7685 -0.0641  0.7938
16465TIP3   OH270885   3.893   2.780   5.673  0.1946 -0.2735  0.1503
16465TIP3    H170886   3.985   2.753   5.674  0.1500 -0.4244  0.1522
16465TIP3    H270887   3.867   2.782   5.765 -0.3426 -2.0724  0.0624
16466TIP3   OH270888   1.026   3.542   6.751 -0.6458 -0.2853 -0.3129
16466TIP3    H170889   1.049   3.500   6.669 -0.8987 -0.9938 -0.0274
16466TIP3    H270890   1.106   3.538   6.804 -1.5144 -3.4721  0.9876
16467TIP3   OH270891   5.700   6.644  13.009  0.1092 -0.2496  0.3683
16467TIP3    H170892   5.666   6.567  13.054  0.1909  0.7346  2.1897
16467TIP3    H270893   5.637   6.714  13.029  0.0288  0.1946 -1.2596
16468TIP3   OH270894   0.046   5.572   1.114 -0.3391 -0.5075  0.0560
16468TIP3    H170895  -0.039   5.561   1.155 -0.3592  0.2279  0.2170
16468TIP3    H270896   0.097   5.496   1.143 -0.3020  0.0606  1.5572
16469TIP3   OH270897   5.734   3.486   1.631  0.1269  1.2082  0.2248
16469TIP3    H170898   5.741   3.403   1.680 -3.5334  0.3025 -0.4939
16469TIP3    H270899   5.794   3.476   1.558 -0.6983 -1.1750 -0.2127
16470TIP3   OH270900   3.641   0.083  14.272  0.3102 -0.2571  0.4139
16470TIP3    H170901   3.556   0.116  14.243  1.7904  2.5610 -1.1668
16470TIP3    H270902   3.689   0.066  14.191  1.7099 -0.4694  1.2445
16471TIP3   OH270903   1.723   5.987   6.490 -0.1112 -0.4480 -0.1312
16471TIP3    H170904   1.635   5.990   6.452 -0.7413 -0.6099  1.2513
16471TIP3    H270905   1.722   5.911   6.548  0.3587  0.5257  1.2174
16472TIP3   OH270906   1.994   2.345  16.925  0.3407 -0.4223  0.0750
16472TIP3    H170907   1.990   2.308  16.837 -0.6465  2.6835 -1.3282
16472TIP3    H270908   1.936   2.290  16.977 -0.6919 -1.1477 -1.7567
16473TIP3   OH270909   3.226   0.319   1.507 -0.1641 -0.6714  0.4042
16473TIP3    H170910   3.266   0.403   1.526  1.1663 -1.4722  1.3399
16473TIP3    H270911   3.212   0.320   1.412  2.2994 -0.3861 -0.0408
16474TIP3   OH270912   5.871   4.630   2.397  0.0927 -0.3338  0.4561
16474TIP3    H170913   5.820   4.708   2.419  2.8518  1.6486  0.4265
16474TIP3    H270914   5.868   4.576   2.476  0.9257  1.4902  1.8056
16475TIP3   OH270915   5.068   1.221   6.657 -0.1361  0.5310  0.1170
16475TIP3    H170916   5.129   1.293   6.670  0.6986 -0.0294 -0.6503
16475TIP3    H270917   4.988   1.250   6.701  0.3482  1.7000  0.2625
16476TIP3   OH270918   3.140   3.084  16.753 -0.5738  0.0068 -0.2376
16476TIP3    H170919   3.166   3.138  16.828  0.6623 -1.1988  0.2363
16476TIP3    H270920   3.073   3.024  16.788 -2.2820  1.4399 -0.8677
16477TIP3   OH270921   6.046   2.722   3.683 -0.0998 -0.2004  0.9109
16477TIP3    H170922   6.055   2.630   3.660  0.1959 -0.5040  2.1762
16477TIP3    H270923   6.135   2.757   3.677 -0.3861  0.3551 -0.8457
16478TIP3   OH270924   0.188   0.004   4.411  0.6481  0.8292  0.0422
16478TIP3    H170925   0.207   0.025   4.320 -0.1826 -0.9053 -0.5802
16478TIP3    H270926   0.093  -0.008   4.413  0.6960  0.5502  1.0732
16479TIP3   OH270927   6.169   1.654   1.928 -0.5007 -0.1760 -0.0926
16479TIP3    H170928   6.229   1.583   1.952  0.2535  0.4643 -0.0310
16479TIP3    H270929   6.088   1.610   1.903 -0.0427 -1.0582 -0.0563
16480TIP3   OH270930   2.439   0.878   4.854  0.6359  0.1656  0.3614
16480TIP3    H170931   2.344   0.881   4.861  0.5161  1.3372 -1.2595
16480TIP3    H270932   2.466   0.969   4.844  1.7222 -0.2908 -1.2684
16481TIP3   OH270933   2.562   1.125   3.434  0.2975 -0.4641 -0.3078
16481TIP3    H170934   2.584   1.151   3.524  0.6605 -0.1147 -0.4922
16481TIP3    H270935   2.646   1.105   3.394  0.5582  2.4645 -1.5194
16482TIP3   OH270936   3.621   2.452   4.931  0.2802  0.2552  0.8803
16482TIP3    H170937   3.695   2.448   4.991 -0.0777 -0.3857  1.2982
16482TIP3    H270938   3.597   2.360   4.917  0.4455  0.3832 -0.3650
16483TIP3   OH270939   2.262   4.737   2.171 -0.7386  0.1457  0.2869
16483TIP3    H170940   2.174   4.735   2.133 -1.7361  0.9205  2.4511
16483TIP3    H270941   2.285   4.829   2.175 -0.5999  0.0756  1.3994
16484TIP3   OH270942   6.609   5.414  15.203 -0.5971  0.0739 -0.5223
16484TIP3    H170943   6.555   5.450  15.274 -2.7810 -1.7689 -1.1010
16484TIP3    H270944   6.689   5.385  15.246 -1.1162  0.6299  0.8726
16485TIP3   OH270945   0.402   0.729   3.452 -0.4389 -0.2165  0.6936
16485TIP3    H170946   0.354   0.659   3.406  0.0603  0.8115 -1.5354
16485TIP3    H270947   0.482   0.740   3.402 -0.3970  1.7933  1.1286
16486TIP3   OH270948   2.655   2.817   2.127  0.0042 -0.2555  0.1593
16486TIP3    H170949   2.720   2.786   2.064 -1.4812 -1.7127 -0.7334
16486TIP3    H270950   2.574   2.772   2.102 -1.2738  1.2248  1.4480
16487TIP3   OH270951   2.736   2.025   2.360  0.0026  0.0972  0.0972
16487TIP3    H170952   2.800   2.093   2.382  0.7484 -0.8711  1.0526
16487TIP3    H270953   2.716   1.982   2.443 -1.0833 -0.3225 -0.3608
16488TIP3   OH270954   6.189   5.437  16.753  0.0783 -0.4245 -0.2759
16488TIP3    H170955   6.216   5.494  16.682  0.7040 -0.0642  0.2405
16488TIP3    H270956   6.199   5.490  16.832 -1.0586 -0.6591  0.0397
16489TIP3   OH270957   5.569   1.526  15.274 -0.4649  0.0573  0.4394
16489TIP3    H170958   5.536   1.451  15.323 -1.2911 -1.0096 -1.6425
16489TIP3    H270959   5.546   1.507  15.183 -0.0445  2.5071 -0.2341
16490TIP3   OH270960   3.869   0.233  12.426  0.2518  0.3783  0.1038
16490TIP3    H170961   3.876   0.188  12.510 -1.3420  0.3654  0.2758
16490TIP3    H270962   3.941   0.198  12.373  0.4430 -0.6375  1.0103
16491TIP3   OH270963   4.494   2.208   4.584  0.1965  0.4835  0.2710
16491TIP3    H170964   4.400   2.211   4.567  0.2773  0.1450 -0.2681
16491TIP3    H270965   4.501   2.170   4.672 -0.1139 -1.6832 -0.5857
16492TIP3   OH270966   1.229   2.439   4.645  0.0095  0.8969  0.4876
16492TIP3    H170967   1.147   2.392   4.629  0.9819  0.0781 -3.0175
16492TIP3    H270968   1.292   2.370   4.668  0.9815  0.4972 -2.7772
16493TIP3   OH270969   2.750   1.128   0.879  0.5695  0.0676  0.0306
16493TIP3    H170970   2.749   1.179   0.960 -1.4016  0.4180 -0.1813
16493TIP3    H270971   2.659   1.107   0.863  1.0231 -0.7367 -1.6612
16494TIP3   OH270972   6.276   5.947   0.776 -0.9474  0.0531 -0.6227
16494TIP3    H170973   6.257   5.881   0.843  0.0808 -0.6391 -0.9949
16494TIP3    H270974   6.218   6.020   0.798  0.8808  0.7917  2.3871
16495TIP3   OH270975   0.114   2.939  13.156  0.0383 -0.3704 -0.3504
16495TIP3    H170976   0.054   2.960  13.084  0.2908 -0.2050 -0.5122
16495TIP3    H270977   0.201   2.941  13.117  0.2726  0.7742  0.1841
16496TIP3   OH270978   3.568   1.746  12.460  0.0713  0.3861  0.4560
16496TIP3    H170979   3.595   1.740  12.552  0.6104 -0.0556  0.2777
16496TIP3    H270980   3.612   1.824  12.427  1.3817 -0.4735  0.0985
16497TIP3   OH270981   4.474   3.854  15.483  0.3429  0.4362 -0.3186
16497TIP3    H170982   4.380   3.874  15.486  0.0802 -0.3499 -2.1956
16497TIP3    H270983   4.505   3.896  15.403  1.6715  0.8880  0.4011
16498TIP3   OH270984   5.350   1.416  14.767 -0.1560 -0.4856 -0.3055
16498TIP3    H170985   5.335   1.379  14.680  0.6344  1.2288 -1.2351
16498TIP3    H270986   5.318   1.506  14.760  1.0961  0.0789  0.7827
16499TIP3   OH270987   0.401   1.640   4.928  0.5367  0.7310 -0.6166
16499TIP3    H170988   0.335   1.685   4.876  0.4495  0.5259 -0.6853
16499TIP3    H270989   0.354   1.610   5.006  0.0979 -1.0238 -1.5109
16500TIP3   OH270990   0.686   1.370   3.524 -0.1638  0.3706  0.6488
16500TIP3    H170991   0.654   1.280   3.520  1.3856 -0.1910  0.1462
16500TIP3    H270992   0.693   1.389   3.617  0.0258 -0.2216  0.7574
16501TIP3   OH270993   0.481   6.225  17.053  0.1040  0.1016 -0.0206
16501TIP3    H170994   0.455   6.313  17.024  1.1211  1.5515  2.9910
16501TIP3    H270995   0.420   6.204  17.124  0.6307 -1.1015  0.1006
16502TIP3   OH270996   3.018   0.727  16.272  0.5759  0.8023  0.6503
16502TIP3    H170997   2.946   0.740  16.210  0.7214 -0.2802  0.2356
16502TIP3    H270998   3.093   0.702  16.218  0.9217  0.6380  1.1938
16503TIP3   OH270999   2.629   3.547   0.082  0.5196  0.2967  0.1118
16503TIP3    H171000   2.712   3.532   0.037  0.2771  1.2103 -0.6575
16503TIP3    H271001   2.600   3.633   0.052 -0.1668  0.4738  1.2170
16504TIP3   OH271002   3.643   1.769   5.820  0.2382  0.8713 -0.0346
16504TIP3    H171003   3.729   1.742   5.854 -0.5165  1.2860  2.3467
16504TIP3    H271004   3.588   1.777   5.897 -1.9040  0.8946 -1.4935
16505TIP3   OH271005   5.164   2.291  16.109  0.1439  0.4364 -0.1185
16505TIP3    H171006   5.242   2.239  16.093 -0.9929 -1.0841 -0.9962
16505TIP3    H271007   5.150   2.287  16.203  0.3901 -0.3895 -0.1130
16506TIP3   OH271008   0.751   0.159   2.686  0.7099 -0.0021  0.6245
16506TIP3    H171009   0.790   0.230   2.634 -2.0641  0.3446 -1.2023
16506TIP3    H271010   0.729   0.092   2.621  0.4244 -1.1780  1.8987
16507TIP3   OH271011   1.388   0.337  14.705  0.0926 -0.4501 -0.2722
16507TIP3    H171012   1.321   0.279  14.669 -0.5559 -0.1637  0.4412
16507TIP3    H271013   1.413   0.394  14.632 -0.0391 -0.9245 -0.6899
16508TIP3   OH271014   1.905   3.648  14.819 -0.6141 -0.4505 -0.1520
16508TIP3    H171015   1.916   3.586  14.892 -0.9239 -0.0578  0.2355
16508TIP3    H271016   1.981   3.633  14.763  0.4572  0.3034  1.0359
16509TIP3   OH271017   0.558   6.776  12.632  0.4983 -0.2916 -0.3211
16509TIP3    H171018   0.519   6.844  12.577  0.2882 -1.5132 -1.7558
16509TIP3    H271019   0.564   6.816  12.719 -1.5218  0.8502 -0.6351
16510TIP3   OH271020   4.999   2.879  11.727 -0.1430  0.1598 -0.0445
16510TIP3    H171021   5.055   2.896  11.650 -2.4530  0.3942 -1.7898
16510TIP3    H271022   5.024   2.792  11.756  2.2502  0.8863  0.3134
16511TIP3   OH271023   1.240   4.616  13.027  0.1867 -0.7285 -0.1784
16511TIP3    H171024   1.305   4.651  13.088 -1.7292  1.5654  0.7193
16511TIP3    H271025   1.249   4.670  12.949 -0.5139 -0.4947 -0.1018
16512TIP3   OH271026   1.304   5.376   2.296 -0.1014  0.5802 -0.3910
16512TIP3    H171027   1.249   5.450   2.271  0.1345  1.6036  1.8665
16512TIP3    H271028   1.250   5.299   2.278 -2.6748  1.5530  2.3097
16513TIP3   OH271029   2.178   1.803  11.323  0.1786  0.2338 -0.4252
16513TIP3    H171030   2.129   1.767  11.397 -1.3004  2.8832  0.0449
16513TIP3    H271031   2.267   1.815  11.356  0.1387 -0.8301  0.0982
16514TIP3   OH271032   3.856   2.087   4.242 -0.0956  0.3117 -0.1767
16514TIP3    H171033   3.925   2.040   4.195 -2.5819 -2.5395 -1.2882
16514TIP3    H271034   3.874   2.069   4.334  1.4234  0.9042 -0.3139
16515TIP3   OH271035   5.602   6.003   2.543 -0.5260  0.4717  0.0400
16515TIP3    H171036   5.508   6.023   2.542 -0.9452 -1.3021  0.6554
16515TIP3    H271037   5.644   6.085   2.568 -1.9121  1.2951 -0.2527
16516TIP3   OH271038   2.433   0.430  14.661 -0.0809  0.4202 -0.0335
16516TIP3    H171039   2.500   0.485  14.703  1.1983 -1.3073  0.3066
16516TIP3    H271040   2.473   0.343  14.658 -2.0315 -0.4977 -0.5517
16517TIP3   OH271041   2.235   3.683   3.386 -0.5140  0.1808  0.3305
16517TIP3    H171042   2.261   3.760   3.335  0.2365 -0.3132 -0.0601
16517TIP3    H271043   2.311   3.666   3.442 -1.4319  0.8859  1.8480
16518TIP3   OH271044   3.362   0.428  13.717 -0.3865  0.7374  0.0420
16518TIP3    H171045   3.301   0.418  13.790 -0.3897  1.7422  0.2019
16518TIP3    H271046   3.315   0.485  13.655 -0.5214 -0.3806 -0.9083
16519TIP3   OH271047   5.469   1.010   2.493  0.4774 -0.6249 -0.0367
16519TIP3    H171048   5.498   0.999   2.402 -0.4885  1.7948 -0.7319
16519TIP3    H271049   5.414   0.934   2.510  1.4137 -1.5916 -1.1314
16520TIP3   OH271050   6.378   2.681  14.903  0.1880 -0.1908  0.1566
16520TIP3    H171051   6.436   2.757  14.904  0.4082 -0.3489 -0.3788
16520TIP3    H271052   6.371   2.655  14.995  0.9977 -0.1943  0.2234
16521TIP3   OH271053   1.105   0.027  15.443  0.0024 -0.8348 -0.6715
16521TIP3    H171054   1.118   0.038  15.537  0.3020  0.3826 -0.8318
16521TIP3    H271055   1.162  -0.046  15.418 -0.4187 -1.4551  0.1570
16522TIP3   OH271056   2.249   1.658  15.593  0.1163  0.3137 -0.5824
16522TIP3    H171057   2.194   1.735  15.581  0.3039  0.3749 -1.0990
16522TIP3    H271058   2.216   1.616  15.672 -0.3245  0.6409 -0.5931
16523TIP3   OH271059   3.103   1.671   4.876  0.3924  1.0117  0.4521
16523TIP3    H171060   3.191   1.634   4.879  0.1759  0.4371 -0.1290
16523TIP3    H271061   3.086   1.699   4.966  0.1197 -1.3766  1.2244
16524TIP3   OH271062   3.321   4.650  16.130 -0.3382  0.7692  0.1514
16524TIP3    H171063   3.412   4.666  16.104 -0.4071  0.1878 -0.4777
16524TIP3    H271064   3.285   4.598  16.058 -0.2166 -1.8408  1.8486
16525TIP3   OH271065   3.852   6.394   2.974 -0.1546 -0.0168  0.6173
16525TIP3    H171066   3.907   6.352   3.040  0.2868 -0.2117  0.1394
16525TIP3    H271067   3.912   6.413   2.902 -0.8213 -0.7761 -0.1657
16526TIP3   OH271068   1.991   1.780   0.054  0.5579 -0.3088 -0.3637
16526TIP3    H171069   1.969   1.843   0.124 -0.0547  0.0522 -0.8713
16526TIP3    H271070   2.086   1.779   0.053  0.6171 -1.2952  1.3472
16527TIP3   OH271071   4.336   1.047   3.565 -0.4774  0.1226  0.0884
16527TIP3    H171072   4.381   0.970   3.600  0.5148  1.1290  1.1195
16527TIP3    H271073   4.373   1.059   3.477  0.6908  0.4503  0.6085
16528TIP3   OH271074   0.344   0.815  15.400 -0.2910 -0.4071  0.3095
16528TIP3    H171075   0.285   0.850  15.334 -2.4242 -0.0113  2.3010
16528TIP3    H271076   0.310   0.727  15.419  0.8359 -0.8714  0.2620
16529TIP3   OH271077   3.278   5.134  16.352  0.0638 -0.2559 -0.5130
16529TIP3    H171078   3.294   5.063  16.415 -2.2019 -0.1469  0.2798
16529TIP3    H271079   3.306   5.098  16.268  1.7430 -0.9638  0.3032
16530TIP3   OH271080   5.678   6.385  14.932 -0.2318 -0.1732  0.1740
16530TIP3    H171081   5.593   6.409  14.895 -0.0554 -0.2773 -0.3041
16530TIP3    H271082   5.663   6.381  15.026 -0.6011  0.4603  0.1507
16531TIP3   OH271083   4.341   1.083   3.203 -0.2335  0.2566  0.2277
16531TIP3    H171084   4.383   1.068   3.118 -1.3706 -0.1880 -0.2848
16531TIP3    H271085   4.252   1.048   3.192 -0.0231 -0.9904  2.0072
16532TIP3   OH271086   2.731   2.055  14.194 -0.4449 -0.2729  0.1672
16532TIP3    H171087   2.774   2.131  14.233 -1.8445  1.3317 -1.2618
16532TIP3    H271088   2.706   2.084  14.106 -2.8565 -1.6779  0.3014
16533TIP3   OH271089   0.905   0.165  14.066  0.3642 -0.1852 -0.0890
16533TIP3    H171090   0.911   0.144  14.159  1.2836 -1.4328 -0.3916
16533TIP3    H271091   0.821   0.128  14.038 -0.3968  1.0889  0.4254
16534TIP3   OH271092   5.049   4.017  16.421  0.2586  0.4213  0.1824
16534TIP3    H171093   4.978   4.074  16.451 -0.7455 -0.9381  0.4764
16534TIP3    H271094   5.041   3.938  16.474  1.8963  0.1552  0.0952
16535TIP3   OH271095   3.479   0.205  11.125 -0.5947  0.0488 -0.4030
16535TIP3    H171096   3.554   0.168  11.173 -0.6396  0.5655  0.0770
16535TIP3    H271097   3.437   0.263  11.188 -0.6005  0.8206 -1.1063
16536TIP3   OH271098   5.380   3.398  16.995 -0.2513 -0.5245 -0.3597
16536TIP3    H171099   5.391   3.391  17.090  2.9327  0.4672 -0.5421
16536TIP3    H271100   5.302   3.345  16.976 -2.1921  0.8209  2.9702
16537TIP3   OH271101   1.675   3.426   1.175  0.5054 -0.3487  0.3103
16537TIP3    H171102   1.645   3.416   1.085  1.3698 -2.8161  0.1950
16537TIP3    H271103   1.768   3.447   1.167  0.1844  1.3566  0.6684
16538TIP3   OH271104   1.396   1.630  12.807  0.2344  0.7266  0.2356
16538TIP3    H171105   1.317   1.623  12.755  1.6965  0.0624 -2.0250
16538TIP3    H271106   1.367   1.616  12.897 -2.3535  1.6331 -0.3767
16539TIP3   OH271107   4.946   4.546   1.188  0.2817  0.2414 -0.4524
16539TIP3    H171108   4.977   4.634   1.170  1.1334  0.2968  1.1239
16539TIP3    H271109   4.903   4.552   1.273  1.5568 -1.1024  0.3476
16540TIP3   OH271110   3.489   5.625  12.395 -0.3996  0.1817 -0.5419
16540TIP3    H171111   3.424   5.563  12.429 -0.2230 -0.4464 -1.3191
16540TIP3    H271112   3.481   5.701  12.452  1.3477 -1.5799  2.2884
16541TIP3   OH271113   6.697   3.701   0.508 -0.0216  0.2634 -0.2986
16541TIP3    H171114   6.604   3.704   0.487 -0.2474 -0.6348  0.4579
16541TIP3    H271115   6.738   3.762   0.447 -0.7746 -1.2382 -2.4452
16542TIP3   OH271116   2.680   6.478   1.730 -0.4251  0.5214 -0.4984
16542TIP3    H171117   2.713   6.568   1.735  2.1190 -0.3903  1.0960
16542TIP3    H271118   2.732   6.430   1.795 -1.2552 -2.2341 -1.7346
16543TIP3   OH271119   4.365   6.260   2.487 -0.6884 -0.1232 -0.1619
16543TIP3    H171120   4.316   6.305   2.418  1.6593  0.8006 -1.3559
16543TIP3    H271121   4.442   6.315   2.501 -0.7705 -0.6400  2.8007
16544TIP3   OH271122   4.993   2.093   3.733  0.5530  0.0927  0.4124
16544TIP3    H171123   5.016   2.000   3.734  0.7794  0.1137  3.0013
16544TIP3    H271124   4.897   2.094   3.736  0.5352 -0.1988  3.5288
16545TIP3   OH271125   0.818   1.085   4.332 -0.7543 -0.0509 -0.4959
16545TIP3    H171126   0.879   1.074   4.258  1.1552  1.7464  0.6860
16545TIP3    H271127   0.846   1.167   4.373 -1.7861 -0.9530  2.1896
16546TIP3   OH271128   2.496   5.225   3.590 -0.0725  0.3225  0.7742
16546TIP3    H171129   2.478   5.184   3.675 -0.2612 -1.4864 -0.1111
16546TIP3    H271130   2.574   5.180   3.557  0.4804  1.5640  0.3134
16547TIP3   OH271131   1.591   0.191  11.718 -0.1942  0.0431 -0.0843
16547TIP3    H171132   1.672   0.237  11.739  0.5666 -1.5140  0.5344
16547TIP3    H271133   1.600   0.167  11.626 -0.0118 -0.0075 -0.0530
16548TIP3   OH271134   5.479   5.524  12.530 -0.0331 -0.0794 -0.3013
16548TIP3    H171135   5.518   5.608  12.504  1.3988 -0.0204  1.7005
16548TIP3    H271136   5.424   5.546  12.606 -1.3722 -0.6776 -1.0620
16549TIP3   OH271137   0.774   1.906   1.224 -0.0932 -0.5022 -0.1403
16549TIP3    H171138   0.731   1.855   1.155 -1.7661  1.7647 -0.9081
16549TIP3    H271139   0.853   1.941   1.183  0.6129 -1.7077  0.1355
16550TIP3   OH271140   2.973   6.275   5.404 -0.0335  0.5449 -0.4018
16550TIP3    H171141   2.949   6.299   5.315 -2.8681 -1.1113 -0.2072
16550TIP3    H271142   3.012   6.188   5.396  1.6562  1.2410 -0.1812
16551TIP3   OH271143   5.294   1.463   2.846 -0.9333  0.5538  0.1115
16551TIP3    H171144   5.359   1.529   2.824 -0.1441 -0.5135 -0.9038
16551TIP3    H271145   5.263   1.430   2.762 -0.4619 -1.1410  0.5491
16552TIP3   OH271146   3.743   4.865   0.757 -0.1906  0.3008 -0.8736
16552TIP3    H171147   3.662   4.818   0.735  0.1463  0.0709 -1.6275
16552TIP3    H271148   3.718   4.922   0.830 -1.0646  0.3250 -1.1831
16553TIP3   OH271149   2.394   5.339   5.422  0.2308  0.3375 -0.0025
16553TIP3    H171150   2.321   5.297   5.468  1.4463  0.1553  1.8489
16553TIP3    H271151   2.380   5.317   5.330 -2.0256  0.2877  0.2886
16554TIP3   OH271152   2.598   1.211   5.037  0.4416 -0.2664 -0.3304
16554TIP3    H171153   2.561   1.193   4.951 -1.6978 -1.3943  0.7396
16554TIP3    H271154   2.627   1.126   5.069 -1.9916 -0.5499  1.3953
16555TIP3   OH271155   3.861   3.086  13.721  0.0024 -0.2134 -0.2323
16555TIP3    H171156   3.902   3.087  13.635 -0.4677 -0.5409 -0.4597
16555TIP3    H271157   3.922   3.037  13.776 -0.8676 -2.2042 -0.9705
16556TIP3   OH271158   3.115   5.085   4.424  0.3904 -0.0822  0.2576
16556TIP3    H171159   3.182   5.084   4.355 -0.1168 -1.1459 -0.2450
16556TIP3    H271160   3.080   5.174   4.421  0.9380  0.1258 -0.3008
16557TIP3   OH271161   0.666   2.608  12.047  0.1114 -0.1692  0.1670
16557TIP3    H171162   0.715   2.653  12.116  0.7163 -0.8686  0.2044
16557TIP3    H271163   0.635   2.527  12.088  3.8038 -2.6150 -1.3219
16558TIP3   OH271164   2.316   2.885  11.455 -0.1405 -0.7280  0.2444
16558TIP3    H171165   2.339   2.871  11.547 -0.1494 -2.1985  0.0436
16558TIP3    H271166   2.220   2.883  11.455 -0.1261 -1.8021  0.0631
16559TIP3   OH271167   0.724   1.878  16.741  0.0377  0.5809  0.5277
16559TIP3    H171168   0.801   1.922  16.706  1.0685 -2.0163 -0.7706
16559TIP3    H271169   0.745   1.863  16.833  1.4226 -0.5883  0.0718
16560TIP3   OH271170   2.076   0.507  10.301 -0.0323  0.1024  0.5797
16560TIP3    H171171   2.000   0.562  10.323  0.5238  0.6619  1.1230
16560TIP3    H271172   2.097   0.461  10.382 -0.5653 -1.0360  0.1008
16561TIP3   OH271173   1.911   6.411  13.101 -0.1868  0.6720  0.2377
16561TIP3    H171174   1.916   6.461  13.183  1.1751 -0.3817  0.8364
16561TIP3    H271175   1.996   6.427  13.059  0.1934 -0.9297  0.3412
16562TIP3   OH271176   2.639   0.231  11.712  0.5143  0.0139 -0.0970
16562TIP3    H171177   2.644   0.160  11.775  0.6627  0.6838  0.6660
16562TIP3    H271178   2.661   0.191  11.628 -0.1362 -0.9825  0.2004
16563TIP3   OH271179   5.143   0.018   4.627 -0.0312 -0.3763 -0.2119
16563TIP3    H171180   5.122   0.069   4.549 -2.8368 -0.3310  0.4568
16563TIP3    H271181   5.220  -0.033   4.602  0.2389  0.9438 -2.3714
16564TIP3   OH271182   4.862   2.093   6.008 -0.2534 -0.1975 -0.1071
16564TIP3    H171183   4.786   2.119   5.956 -0.6124 -0.4507  0.2826
16564TIP3    H271184   4.825   2.063   6.091  0.2667 -0.4389  0.0430
16565TIP3   OH271185   6.470   3.908  11.854 -0.0655 -0.0743  0.0761
16565TIP3    H171186   6.521   3.894  11.774  0.5572  0.1917  0.4252
16565TIP3    H271187   6.379   3.913  11.823  0.2352  0.8731 -0.7217
16566TIP3   OH271188   0.023   3.665  11.501 -0.7207 -0.3905  0.1562
16566TIP3    H171189   0.024   3.577  11.465  0.5663 -0.4811  0.3636
16566TIP3    H271190   0.045   3.654  11.593  1.9511  0.3024 -0.3158
16567TIP3   OH271191   0.522   6.570  13.468 -0.2964 -0.1057  0.5344
16567TIP3    H171192   0.437   6.526  13.458  0.1283 -0.9092  0.4188
16567TIP3    H271193   0.510   6.627  13.544 -1.0104 -0.0403  0.3842
16568TIP3   OH271194   3.319   4.302  13.068 -0.0970 -0.3809  0.1319
16568TIP3    H171195   3.353   4.285  13.156 -0.9887  0.0535  0.5792
16568TIP3    H271196   3.397   4.308  13.013  0.8009  2.8563  1.5103
16569TIP3   OH271197   1.628   2.744  16.866 -0.2767  0.3279  0.7059
16569TIP3    H171198   1.581   2.812  16.914  0.3245 -0.2481  2.1591
16569TIP3    H271199   1.670   2.692  16.934 -0.2273 -1.1325 -0.4131
16570TIP3   OH271200   3.889   6.382  11.098 -0.1978  0.0453 -0.0983
16570TIP3    H171201   3.815   6.341  11.055 -0.3117  0.2709 -0.1160
16570TIP3    H271202   3.929   6.437  11.031 -1.0829  1.3400  0.3964
16571TIP3   OH271203   3.634   2.002  16.422 -0.5373  0.5340 -0.5170
16571TIP3    H171204   3.584   1.933  16.379 -2.2978  0.3372  1.6050
16571TIP3    H271205   3.689   2.039  16.354 -0.3852 -2.1781 -1.9914
16572TIP3   OH271206   1.749   6.164  11.449  0.0705  0.9062  0.8649
16572TIP3    H171207   1.756   6.100  11.520  1.8838  1.0534  0.8699
16572TIP3    H271208   1.793   6.122  11.375 -3.0616  0.1231 -0.7227
16573TIP3   OH271209   5.294   5.891  15.394 -1.0135  0.3398 -0.1878
16573TIP3    H171210   5.233   5.921  15.462  1.6331 -0.7166  2.8625
16573TIP3    H271211   5.359   5.960  15.387 -0.8088  0.0727 -1.0993
16574TIP3   OH271212   1.419   5.760  12.104 -0.0081  0.0683  0.5639
16574TIP3    H171213   1.356   5.700  12.064  0.2156 -0.2715  0.7141
16574TIP3    H271214   1.496   5.706  12.121  0.7033  0.7019 -0.5279
16575TIP3   OH271215   3.622   5.622   4.464 -0.2329  0.3476  0.4570
16575TIP3    H171216   3.640   5.603   4.372  0.9706 -0.1200  0.7643
16575TIP3    H271217   3.612   5.717   4.467 -0.8227  0.3150 -0.2316
16576TIP3   OH271218   2.984   0.490  13.027  0.1702 -0.2507  0.8667
16576TIP3    H171219   2.950   0.574  13.061  3.2878  1.4549  0.1166
16576TIP3    H271220   3.041   0.458  13.097  0.7698 -0.5859  0.2240
16577TIP3   OH271221   5.552   1.461  11.786 -0.3356 -0.0593  0.1968
16577TIP3    H171222   5.545   1.374  11.747 -0.0559 -0.1046  0.2400
16577TIP3    H271223   5.474   1.507  11.757  0.6079  0.4408 -1.7629
16578TIP3   OH271224   5.520   3.555   5.184  0.3425  0.4557  0.4446
16578TIP3    H171225   5.513   3.527   5.276 -0.2280 -1.3081 -0.1050
16578TIP3    H271226   5.473   3.638   5.181  3.1451  2.3201  2.4078
16579TIP3   OH271227   0.412   6.557   0.740 -0.1381 -0.0757 -0.1738
16579TIP3    H171228   0.360   6.608   0.803 -0.3287 -0.0509 -0.3503
16579TIP3    H271229   0.347   6.518   0.682 -0.1148 -1.7663  0.8663
16580TIP3   OH271230   4.546   1.806  12.408 -0.3383  0.1992 -0.2903
16580TIP3    H171231   4.492   1.884  12.392  2.6513  2.4341 -0.2628
16580TIP3    H271232   4.597   1.796  12.327  0.0054 -1.1694  0.0873
16581TIP3   OH271233   2.326   6.228   2.668 -0.1416  0.3755 -0.0332
16581TIP3    H171234   2.299   6.169   2.738  1.1411  1.5061  1.4707
16581TIP3    H271235   2.262   6.213   2.598 -0.2604 -2.2430  0.5601
16582TIP3   OH271236   6.806   2.110   4.394 -0.3895 -0.3267 -0.1809
16582TIP3    H171237   6.818   2.015   4.394  1.1584 -0.1742 -1.0094
16582TIP3    H271238   6.719   2.123   4.430  0.4857 -1.8867  2.8675
16583TIP3   OH271239   5.528   4.812  16.928 -0.0082 -0.6927  0.0260
16583TIP3    H171240   5.475   4.870  16.874 -0.1386 -0.6747  0.1716
16583TIP3    H271241   5.618   4.837  16.910 -0.0854  0.1771  0.7672
16584TIP3   OH271242   5.706   5.738   1.127  0.3228 -0.0123 -0.1957
16584TIP3    H171243   5.780   5.683   1.150  0.6808 -0.2285 -1.7642
16584TIP3    H271244   5.639   5.718   1.193  1.2836 -0.5609  0.6279
16585TIP3   OH271245   3.987   2.484   0.561  0.5326  0.2564 -0.4545
16585TIP3    H171246   3.934   2.509   0.637  1.0444 -0.0708  0.0251
16585TIP3    H271247   4.016   2.567   0.523 -0.8840  0.4510 -1.1372
16586TIP3   OH271248   4.523   0.384   4.833 -0.1161 -0.1385  0.0345
16586TIP3    H171249   4.577   0.458   4.861  1.3257 -1.3033  0.4232
16586TIP3    H271250   4.456   0.377   4.901  0.1848  0.3284  0.3897
16587TIP3   OH271251   2.829   1.606  14.079 -0.0042  0.7041 -0.2652
16587TIP3    H171252   2.847   1.660  14.156 -0.0768  0.8593 -0.3573
16587TIP3    H271253   2.735   1.612  14.066  0.2109  2.1093 -1.4121
16588TIP3   OH271254   4.977   0.622  15.993  0.0504 -1.2573  0.2828
16588TIP3    H171255   4.926   0.678  16.052 -2.3112 -0.7502 -2.0753
16588TIP3    H271256   4.940   0.535  16.004 -0.7273 -1.0699 -0.7549
16589TIP3   OH271257   0.603   0.115  10.672  0.2108  0.5732  0.4833
16589TIP3    H171258   0.664   0.093  10.602 -1.3117 -0.4485 -0.6063
16589TIP3    H271259   0.655   0.164  10.736  2.0737 -0.0451 -0.4913
16590TIP3   OH271260   3.473   1.163   1.921  0.1543 -0.4700  0.5780
16590TIP3    H171261   3.422   1.229   1.874  1.5965 -0.0676 -0.4839
16590TIP3    H271262   3.494   1.097   1.855  1.1307 -0.5502  0.9506
16591TIP3   OH271263   3.752   0.056  15.845 -0.4331  0.4008 -0.5041
16591TIP3    H171264   3.793   0.080  15.762  0.0368  1.9207  0.1386
16591TIP3    H271265   3.807  -0.014  15.879 -0.1388  0.3423 -1.0795
16592TIP3   OH271266   3.159   3.591   6.022  0.2187 -0.3788  0.2527
16592TIP3    H171267   3.245   3.556   6.004  0.2423 -0.2651  0.1430
16592TIP3    H271268   3.151   3.588   6.117  0.7038  0.4490  0.3305
16593TIP3   OH271269   4.971   3.857  13.466 -0.1967 -0.0486 -0.6312
16593TIP3    H171270   4.896   3.798  13.473  1.8700 -2.7324  0.3429
16593TIP3    H271271   4.992   3.880  13.556 -0.0586  1.0210 -0.9214
16594TIP3   OH271272   1.512   4.037   4.890 -0.4206  0.0031 -0.6497
16594TIP3    H171273   1.480   3.988   4.814 -1.2871  2.0412 -1.6805
16594TIP3    H271274   1.441   4.030   4.954 -0.2866 -0.5838 -0.5670
16595TIP3   OH271275   5.121   3.681   2.787 -0.4659 -0.0762 -0.3934
16595TIP3    H171276   5.053   3.618   2.807 -2.3848  0.9216 -3.1467
16595TIP3    H271277   5.114   3.747   2.855 -1.1029 -0.8311  0.2880
16596TIP3   OH271278   2.959   1.406   5.023  0.7008  0.9181 -0.1249
16596TIP3    H171279   2.958   1.319   4.983 -1.7115  0.4608  0.7757
16596TIP3    H271280   3.040   1.409   5.073  1.2053 -0.4838 -0.8123
16597TIP3   OH271281   5.921   5.190   3.209 -0.3592  0.3674  0.4206
16597TIP3    H171282   5.905   5.132   3.283 -0.2863  0.1958  0.3030
16597TIP3    H271283   5.853   5.167   3.145 -0.0404  0.0787  0.1808
16598TIP3   OH271284   3.214   2.519   4.227  0.0098 -0.6134 -0.1664
16598TIP3    H171285   3.151   2.547   4.161  0.9334 -0.8721 -1.1762
16598TIP3    H271286   3.192   2.427   4.242 -1.4024 -0.0883  1.3056
16599TIP3   OH271287   4.017   3.627   2.802  0.5561  0.4412  0.6225
16599TIP3    H171288   4.072   3.615   2.879  1.9131  1.0350 -0.2210
16599TIP3    H271289   4.066   3.688   2.747 -0.4040  0.0623 -0.6987
16600TIP3   OH271290   4.258   3.718  15.086  0.1674  0.3960 -0.3927
16600TIP3    H171291   4.283   3.628  15.106 -0.1251  0.5690  0.7973
16600TIP3    H271292   4.339   3.768  15.094  0.3787  0.2156 -1.2895
16601TIP3   OH271293   3.691   1.243   1.715 -0.4864 -0.1262  0.2612
16601TIP3    H171294   3.646   1.161   1.734 -1.5723  0.8150  2.1015
16601TIP3    H271295   3.774   1.217   1.676 -1.6764 -2.0018 -1.1629
16602TIP3   OH271296   2.122   6.085   2.827 -0.1443  0.5266  0.5401
16602TIP3    H171297   2.116   6.129   2.912  0.2221  1.6136  0.0240
16602TIP3    H271298   2.048   6.120   2.777 -0.2361  0.0521  0.3428
16603TIP3   OH271299   4.368   2.484   6.698  0.4056 -0.5905 -0.3107
16603TIP3    H171300   4.273   2.498   6.707  0.5886  0.4703  0.1411
16603TIP3    H271301   4.396   2.551   6.635  1.4699  1.9652  2.6218
16604TIP3   OH271302   6.758   3.450   3.838 -0.3921 -0.3627 -0.6559
16604TIP3    H171303   6.666   3.451   3.866 -0.1507  0.6388  0.1577
16604TIP3    H271304   6.769   3.531   3.789  0.1427 -0.2860 -0.4162
16605TIP3   OH271305   6.406   4.682   6.429  0.2831 -0.0213  0.0389
16605TIP3    H171306   6.463   4.619   6.386  0.2224  0.4371 -0.7300
16605TIP3    H271307   6.377   4.740   6.359  0.1418  0.7127  0.6871
16606TIP3   OH271308   2.547   3.925   4.040  0.1609 -0.0411  0.6386
16606TIP3    H171309   2.605   3.850   4.023 -0.0983 -0.0994  0.0165
16606TIP3    H271310   2.479   3.918   3.974 -0.6644 -0.0694  1.4719
16607TIP3   OH271311   1.869   2.333   4.651  0.0215  0.1427  0.1891
16607TIP3    H171312   1.880   2.428   4.645 -0.3506  0.2629  1.1642
16607TIP3    H271313   1.792   2.322   4.707  0.9463 -0.7406  1.3236
16608TIP3   OH271314   4.636   0.834  11.683 -0.0710  0.5626 -0.2759
16608TIP3    H171315   4.550   0.794  11.693 -0.0603  0.6255  0.0959
16608TIP3    H271316   4.690   0.792  11.751  0.0258  0.9646 -0.1017
16609TIP3   OH271317   6.816   6.659  14.707  0.1779  0.0823 -0.1920
16609TIP3    H171318   6.834   6.725  14.639  0.1137 -1.9928 -2.3543
16609TIP3    H271319   6.883   6.674  14.773  0.4540  2.0033 -0.8409
16610TIP3   OH271320   1.776   3.638  13.592 -0.2284  0.2256 -0.1538
16610TIP3    H171321   1.683   3.635  13.571  0.0377 -1.8015 -1.2990
16610TIP3    H271322   1.793   3.730  13.614 -2.3580  0.7456 -0.4906
16611TIP3   OH271323   3.841   4.843   4.090  0.7149 -0.9421  0.1539
16611TIP3    H171324   3.888   4.816   4.169 -0.8568  0.5284  1.6697
16611TIP3    H271325   3.909   4.847   4.023  2.7680  0.8490  2.1621
16612TIP3   OH271326   0.837   6.270  11.500  0.1347  0.2716  0.1365
16612TIP3    H171327   0.863   6.355  11.464 -0.8496  0.3770 -0.3739
16612TIP3    H271328   0.752   6.252  11.459 -0.1523 -0.4788  1.0272
16613TIP3   OH271329   3.917   0.938  16.209 -0.4869  0.4523 -0.4540
16613TIP3    H171330   3.937   0.949  16.302 -0.2748  0.2167 -0.4716
16613TIP3    H271331   3.864   1.015  16.186 -1.5631 -0.0778  0.1495
16614TIP3   OH271332   5.127   6.212   1.656  0.4826  0.3805  0.2160
16614TIP3    H171333   5.165   6.285   1.607  0.2411 -1.3785 -2.8787
16614TIP3    H271334   5.049   6.188   1.606 -0.7778 -0.5461  2.4820
16615TIP3   OH271335   2.015   4.441  15.706 -0.0994  0.3991  0.2079
16615TIP3    H171336   2.103   4.478  15.706  0.7426 -1.4162 -1.3440
16615TIP3    H271337   2.026   4.355  15.747 -1.2036  0.2508  0.2103
16616TIP3   OH271338   2.249   1.752   5.658 -0.6038  1.0084 -0.5866
16616TIP3    H171339   2.172   1.799   5.691 -0.2783  0.3400  1.2450
16616TIP3    H271340   2.212   1.677   5.611 -1.0812  1.9342 -1.7377
16617TIP3   OH271341   6.234   3.429  11.846  0.2393  0.4980  0.2713
16617TIP3    H171342   6.209   3.337  11.851  0.6709  0.3990  0.6949
16617TIP3    H271343   6.308   3.437  11.906  2.1227  0.4670 -1.8872
16618TIP3   OH271344   5.579   5.448   2.405 -0.3141  0.0486  0.1352
16618TIP3    H171345   5.547   5.369   2.361  0.3318 -0.7914  1.1323
16618TIP3    H271346   5.518   5.517   2.378 -0.2528 -0.5447 -1.6128
16619TIP3   OH271347   3.297   6.271  11.284 -0.5511  0.3903 -0.0129
16619TIP3    H171348   3.244   6.326  11.226 -1.9567 -0.7955  0.0706
16619TIP3    H271349   3.370   6.243  11.229 -1.0845  0.4535 -0.7869
16620TIP3   OH271350   6.312   2.818   3.653  0.1734 -0.1858 -0.6463
16620TIP3    H171351   6.361   2.776   3.583 -3.2580  0.6385 -3.8944
16620TIP3    H271352   6.295   2.906   3.621 -1.0561  0.4606  1.5561
16621TIP3   OH271353   1.246   0.270  11.766 -0.7349 -0.0904  0.1712
16621TIP3    H171354   1.174   0.217  11.800 -0.0636 -0.8139  0.5187
16621TIP3    H271355   1.321   0.209  11.765  0.0683  0.8679  0.6127
16622TIP3   OH271356   3.737   2.737  13.794 -0.1472  0.1296 -0.4084
16622TIP3    H171357   3.649   2.774  13.796 -0.3855 -0.4270 -0.2830
16622TIP3    H271358   3.780   2.774  13.871 -1.0246 -1.3693  0.8701
16623TIP3   OH271359   4.153   6.143  16.705 -0.6770 -0.8142 -0.5520
16623TIP3    H171360   4.109   6.211  16.655 -0.6334  0.5234  1.1473
16623TIP3    H271361   4.215   6.191  16.761 -1.9767 -2.0296  2.0706
16624TIP3   OH271362   6.042   1.835  11.404 -0.6891  0.5093  0.0462
16624TIP3    H171363   6.084   1.790  11.331 -1.9840 -2.7897  1.1180
16624TIP3    H271364   6.115   1.864  11.459  0.2575  0.4548 -1.1390
16625TIP3   OH271365   6.816   4.202  15.645  0.3151  0.0808  0.1257
16625TIP3    H171366   6.742   4.235  15.595  1.0931  0.4398 -0.8166
16625TIP3    H271367   6.826   4.111  15.616  2.4585  1.0439 -2.5167
16626TIP3   OH271368   1.289   3.207  13.265  0.0832  0.1561 -0.0751
16626TIP3    H171369   1.298   3.164  13.350 -1.2934  0.8028  0.4274
16626TIP3    H271370   1.274   3.299  13.286  0.3701  0.4348 -1.0447
16627TIP3   OH271371   0.918   1.461  13.631  1.1597 -0.1895  0.1412
16627TIP3    H171372   0.905   1.515  13.554  0.1116  0.8460  1.0078
16627TIP3    H271373   1.007   1.480  13.659  1.3090 -0.0601 -0.4176
16628TIP3   OH271374   5.418   1.234   5.123 -0.2198 -0.1070 -0.1616
16628TIP3    H171375   5.381   1.150   5.148  1.7903 -0.8135  0.6730
16628TIP3    H271376   5.393   1.246   5.032 -2.1701 -0.6508  0.2636
16629TIP3   OH271377   6.210   0.802   5.677  0.3495  0.1030 -0.5389
16629TIP3    H171378   6.120   0.780   5.700 -0.0847  0.6807 -1.6162
16629TIP3    H271379   6.232   0.877   5.732  1.5639 -2.3450  2.5827
16630TIP3   OH271380   0.030   0.059   3.798 -0.3856 -0.8539  0.3982
16630TIP3    H171381   0.104   0.097   3.751 -0.3231 -1.7293 -0.2188
16630TIP3    H271382  -0.030   0.133   3.811  1.0443  0.1014  1.8641
16631TIP3   OH271383   6.235   3.451   5.767  0.4223 -0.1308  0.4723
16631TIP3    H171384   6.315   3.418   5.726  1.4506  3.6681 -1.0232
16631TIP3    H271385   6.244   3.427   5.859  1.8593 -2.2573 -0.1408
16632TIP3   OH271386   6.510   0.595  10.264 -0.0998  0.3448 -0.2540
16632TIP3    H171387   6.535   0.615  10.355  2.0763 -1.2635 -0.4288
16632TIP3    H271388   6.417   0.577  10.269 -0.2846  1.4675  1.4472
16633TIP3   OH271389   4.190   2.414   1.977 -0.0994 -0.1375 -0.0154
16633TIP3    H171390   4.260   2.349   1.979 -0.0890 -0.1560 -0.7930
16633TIP3    H271391   4.163   2.418   1.885 -0.0048  1.0595 -0.0096
16634TIP3   OH271392   2.894   0.611   6.414 -0.3630 -0.1824 -0.1457
16634TIP3    H171393   2.855   0.690   6.452 -1.5012 -1.2680  1.0419
16634TIP3    H271394   2.835   0.587   6.343 -1.1474 -1.0518  0.7695
16635TIP3   OH271395   6.800   3.921   0.341 -0.2285  0.4839 -0.2013
16635TIP3    H171396   6.877   3.952   0.389  1.3298 -1.5063 -1.2672
16635TIP3    H271397   6.807   3.962   0.255  0.3103 -0.5787 -0.6817
16636TIP3   OH271398   1.819   5.405  14.201 -0.0633 -0.0009  0.7020
16636TIP3    H171399   1.780   5.326  14.164  0.1393 -0.0901  0.6775
16636TIP3    H271400   1.874   5.440  14.131 -1.7861  1.3445 -0.0601
16637TIP3   OH271401   2.587   5.359   3.058  0.1700  0.6504 -0.2732
16637TIP3    H171402   2.537   5.395   3.131  0.8858  0.4402  0.3349
16637TIP3    H271403   2.678   5.360   3.088  0.6580  1.8367 -1.6782
16638TIP3   OH271404   6.095   2.993   3.276 -0.8754  0.9208  0.2376
16638TIP3    H171405   6.039   2.986   3.199  1.7894 -2.1218 -1.6924
16638TIP3    H271406   6.055   2.936   3.341 -0.5983 -0.4288 -0.7512
16639TIP3   OH271407   0.416   0.479  10.223 -0.3137  0.4291  0.4127
16639TIP3    H171408   0.335   0.428  10.232 -0.9477  1.4853  0.8407
16639TIP3    H271409   0.482   0.426  10.269 -1.3266  0.7949  2.4090
16640TIP3   OH271410   0.327   2.673   2.555  0.4234 -0.4787 -0.0593
16640TIP3    H171411   0.411   2.648   2.518  0.8925 -0.6293  1.0680
16640TIP3    H271412   0.286   2.590   2.581 -0.2208 -0.4328 -0.8966
16641TIP3   OH271413   3.889   1.548  11.319 -0.5209 -0.3968 -0.5867
16641TIP3    H171414   3.974   1.530  11.359 -0.5797  0.2752 -0.1447
16641TIP3    H271415   3.846   1.463  11.315  0.3138 -0.8061 -1.1534
16642TIP3   OH271416   3.667   5.025   0.968  0.1269  0.4117 -0.2339
16642TIP3    H171417   3.709   5.107   0.993 -0.0946  0.1485  1.0591
16642TIP3    H271418   3.591   5.018   1.026 -2.1446  1.1725 -2.9057
16643TIP3   OH271419   5.658   3.796   0.210 -0.2972  0.5123 -0.4075
16643TIP3    H171420   5.606   3.733   0.161  1.7005 -0.3079 -1.6106
16643TIP3    H271421   5.675   3.754   0.294  1.5583 -0.9200 -1.4351
16644TIP3   OH271422   3.415   2.560  16.205  0.0217 -0.5247 -0.2863
16644TIP3    H171423   3.417   2.598  16.293 -1.3918 -2.3881  0.6265
16644TIP3    H271424   3.467   2.481  16.211 -2.1275 -2.0275 -0.3626
16645TIP3   OH271425   4.729   3.525   0.280 -0.4844  0.2034  0.2164
16645TIP3    H171426   4.761   3.613   0.260 -1.8201  0.7207  0.2328
16645TIP3    H271427   4.640   3.523   0.244 -0.5304 -1.0873  0.3584
16646TIP3   OH271428   5.719   1.843   0.674  0.0176 -0.4435  0.0580
16646TIP3    H171429   5.661   1.835   0.599  0.3555  0.6907 -0.3369
16646TIP3    H271430   5.678   1.788   0.741 -0.0922 -1.7784 -1.0450
16647TIP3   OH271431   2.000   6.666   2.451  0.0084 -0.8663  0.0778
16647TIP3    H171432   2.067   6.661   2.520  2.2282  0.5374 -1.8144
16647TIP3    H271433   2.003   6.579   2.410  0.1976 -1.0266  0.4216
16648TIP3   OH271434   5.119   0.794  14.289 -0.3704  0.0181 -0.4816
16648TIP3    H171435   5.076   0.724  14.240  1.2108 -1.5835  0.3079
16648TIP3    H271436   5.208   0.798  14.254  0.2178  0.1087  0.9320
16649TIP3   OH271437   1.031   6.549   4.255  0.5355 -0.2549  0.0390
16649TIP3    H171438   1.069   6.570   4.340  1.4415  0.0968 -0.4383
16649TIP3    H271439   1.027   6.453   4.253  0.9811 -0.2797  0.2834
16650TIP3   OH271440   3.132   6.676   1.514  0.3827  0.2160  0.6276
16650TIP3    H171441   3.084   6.597   1.538  1.6183 -0.2023  1.8575
16650TIP3    H271442   3.067   6.731   1.470 -0.7931 -0.9817  0.7990
16651TIP3   OH271443   2.165   0.083  11.074 -0.2292  0.1069  0.2287
16651TIP3    H171444   2.097   0.129  11.025 -0.7161  0.5217  1.2613
16651TIP3    H271445   2.231   0.150  11.092  0.7052 -0.3929 -1.1559
16652TIP3   OH271446   3.466   6.225   1.596 -0.1588  0.3671 -0.0801
16652TIP3    H171447   3.547   6.261   1.633  0.4107 -0.8556 -0.0804
16652TIP3    H271448   3.402   6.296   1.604  0.1616  0.4409  2.4448
16653TIP3   OH271449   5.354   5.300   6.065 -0.1440  0.0881  0.3923
16653TIP3    H171450   5.302   5.261   6.135 -0.3226 -2.1108 -0.8948
16653TIP3    H271451   5.439   5.256   6.070  0.8469  1.9747  0.9953
16654TIP3   OH271452   6.577   3.071  12.021  0.1566 -0.0718 -0.2248
16654TIP3    H171453   6.588   3.157  11.981  0.5770 -0.3161 -0.6415
16654TIP3    H271454   6.650   3.019  11.987 -1.1737 -1.1731 -1.5453
16655TIP3   OH271455   2.015   6.006  16.555  0.0900  0.3446  0.1112
16655TIP3    H171456   2.041   5.934  16.498  0.2080 -0.0812  0.6912
16655TIP3    H271457   1.959   6.062  16.500 -1.6158 -1.2050  0.1710
16656TIP3   OH271458   2.713   4.491  10.437 -0.3348 -0.6233 -0.6840
16656TIP3    H171459   2.742   4.478  10.528  0.5459 -2.2774 -1.1697
16656TIP3    H271460   2.794   4.489  10.386 -0.8372  0.1650 -1.5357
16657TIP3   OH271461   2.194   1.565  14.229  0.2441 -0.2498  0.4864
16657TIP3    H171462   2.108   1.569  14.188  1.2412 -0.1932 -1.7627
16657TIP3    H271463   2.190   1.628  14.301 -0.7971  1.7650 -1.2199
16658TIP3   OH271464   4.110   2.609   0.017  0.9319 -0.3624  0.6932
16658TIP3    H171465   4.062   2.563   0.085  1.0611 -0.0394  1.0062
16658TIP3    H271466   4.108   2.701   0.044 -0.1319 -0.0321 -0.3925
16659TIP3   OH271467   5.020   1.634  14.660 -0.2559  0.1937 -1.1066
16659TIP3    H171468   5.021   1.539  14.651  0.2802 -0.0007  0.7078
16659TIP3    H271469   4.985   1.665  14.576 -0.4380 -1.5812 -1.7373
16660TIP3   OH271470   0.603   0.974  16.711 -0.1350  0.3744  0.1463
16660TIP3    H171471   0.555   1.056  16.714 -0.8695 -0.0189 -0.4636
16660TIP3    H271472   0.611   0.954  16.617 -0.7219 -0.6747  0.3003
16661TIP3   OH271473   2.919   0.013  10.744 -0.3068  0.0702 -0.0792
16661TIP3    H171474   2.962  -0.036  10.674  1.2271 -1.2867  1.7096
16661TIP3    H271475   2.861   0.074  10.699  1.3332 -0.0563 -2.5420
16662TIP3   OH271476   3.816   3.318  14.443 -0.6090 -0.4901  0.2119
16662TIP3    H171477   3.722   3.325  14.428 -0.8577  2.3701  2.2699
16662TIP3    H271478   3.827   3.235  14.489 -2.0030 -1.1559 -0.5891
16663TIP3   OH271479   6.526   2.277   3.827  0.0119 -0.0620  0.8354
16663TIP3    H171480   6.615   2.243   3.820  0.0661 -0.1222  1.7445
16663TIP3    H271481   6.473   2.217   3.774  0.0564 -1.7860  2.6268
16664TIP3   OH271482   5.365   1.654   0.051  0.0857 -0.2827 -0.3841
16664TIP3    H171483   5.384   1.709  -0.025  0.8485 -0.6300 -0.4497
16664TIP3    H271484   5.304   1.588   0.019 -0.5230  0.2837 -0.4025
16665TIP3   OH271485   3.289   3.507  16.383  0.4921  0.0264 -0.1802
16665TIP3    H171486   3.195   3.498  16.401  0.5812  0.9935  0.8937
16665TIP3    H271487   3.307   3.600  16.398  2.0110 -0.5071  1.6773
16666TIP3   OH271488   5.378   1.476  10.669 -0.2722 -0.4393 -0.4131
16666TIP3    H171489   5.336   1.413  10.610 -1.6754  0.6381 -0.6264
16666TIP3    H271490   5.396   1.425  10.748 -2.8282 -0.8086  0.0265
16667TIP3   OH271491   6.040   2.080  12.649  0.2683  0.2295 -0.1480
16667TIP3    H171492   6.070   2.169  12.629  2.2139 -0.4197 -0.4245
16667TIP3    H271493   6.096   2.024  12.595  0.8110 -1.2743  1.8389
16668TIP3   OH271494   5.133   4.372  11.176  0.1836  0.1047  0.0796
16668TIP3    H171495   5.151   4.279  11.162  2.3943  0.8017 -2.3737
16668TIP3    H271496   5.219   4.413  11.181 -0.7239  2.2881 -1.0613
16669TIP3   OH271497   3.495   5.701   6.025  0.4619 -0.4954 -0.3915
16669TIP3    H171498   3.400   5.689   6.034  0.2834  0.3690 -0.9283
16669TIP3    H271499   3.509   5.793   6.050  0.8896 -0.0726 -2.0665
16670TIP3   OH271500   6.556   3.324  15.584 -0.0999 -0.1291  0.0713
16670TIP3    H171501   6.539   3.259  15.652  0.0284 -1.1429 -0.8401
16670TIP3    H271502   6.469   3.358  15.562 -0.0456  1.0476  1.5128
16671TIP3   OH271503   1.459   5.891  11.843 -0.1995  0.1626  0.5222
16671TIP3    H171504   1.510   5.814  11.817 -1.1813 -0.6847  1.0364
16671TIP3    H271505   1.464   5.892  11.938 -0.3399  0.6425  0.5265
16672TIP3   OH271506   5.329   4.143   4.828 -1.1371 -0.5287 -0.1561
16672TIP3    H171507   5.302   4.088   4.755 -1.7232 -0.3086 -0.1139
16672TIP3    H271508   5.412   4.107   4.856 -0.3767  0.0056 -1.5889
16673TIP3   OH271509   4.385   5.065  12.192  0.0242  0.0129  0.1363
16673TIP3    H171510   4.381   4.990  12.251 -0.4563 -1.1190 -1.2990
16673TIP3    H271511   4.440   5.129  12.239  2.0158 -1.9282  0.5996
16674TIP3   OH271512   5.371   4.850   2.601 -0.2628 -0.5391  0.6445
16674TIP3    H171513   5.448   4.906   2.592 -1.3179  0.8070 -0.5794
16674TIP3    H271514   5.349   4.854   2.694  0.3406  0.1525  0.7680
16675TIP3   OH271515   5.908   1.216  12.530 -0.3325  0.3602  0.6904
16675TIP3    H171516   6.000   1.211  12.503 -0.4087  2.0297 -0.0419
16675TIP3    H271517   5.880   1.125  12.538  0.6982 -0.2361 -1.5456
16676TIP3   OH271518   4.362   5.911  11.406 -0.0439 -0.0870 -0.6487
16676TIP3    H171519   4.397   5.884  11.321 -0.4304  0.4573 -0.9838
16676TIP3    H271520   4.288   5.967  11.385 -3.1537 -3.6006  0.0026
16677TIP3   OH271521   3.453   1.965   3.351  0.3832 -0.0155 -0.4243
16677TIP3    H171522   3.548   1.970   3.348  0.4704 -0.5173  1.0415
16677TIP3    H271523   3.434   1.876   3.381 -0.5531  0.1040 -0.6215
16678TIP3   OH271524   4.379   1.875   2.319  0.7927  0.1226  0.4835
16678TIP3    H171525   4.404   1.956   2.274 -0.1760 -1.1707 -2.6696
16678TIP3    H271526   4.304   1.900   2.373  0.4348  1.3586 -0.5211
16679TIP3   OH271527   4.508   2.442  11.915  0.0775  0.3010 -0.5377
16679TIP3    H171528   4.543   2.449  11.826  1.0193  0.1998 -0.1872
16679TIP3    H271529   4.508   2.348  11.933 -0.7183  0.2739 -0.6621
16680TIP3   OH271530   4.198   2.220  16.566  0.3860  0.3134 -0.1958
16680TIP3    H171531   4.184   2.154  16.635 -1.6490 -0.1037 -0.9345
16680TIP3    H271532   4.132   2.200  16.500  0.0851  2.7452 -0.7252
16681TIP3   OH271533   3.812   6.041  12.614  0.1008 -0.3692  0.4312
16681TIP3    H171534   3.811   6.052  12.709 -0.4368 -0.0139  0.3855
16681TIP3    H271535   3.763   6.116  12.580 -1.0030 -1.2895 -0.0480
16682TIP3   OH271536   4.499   4.613   3.246 -0.0696 -0.2431  0.5436
16682TIP3    H171537   4.591   4.641   3.243 -0.2239  0.2269 -0.0203
16682TIP3    H271538   4.454   4.675   3.189 -0.5190 -1.2761 -0.2464
16683TIP3   OH271539   5.488   3.563   3.426  0.3893  0.3438 -0.3804
16683TIP3    H171540   5.561   3.610   3.384  1.2255  0.4130  1.0704
16683TIP3    H271541   5.530   3.488   3.469 -0.6575 -0.6213 -0.9793
16684TIP3   OH271542   3.941   3.748   5.574  0.1503  0.4479  0.5853
16684TIP3    H171543   4.006   3.810   5.541 -0.2628  0.4828 -0.1869
16684TIP3    H271544   3.861   3.800   5.584 -0.3553 -0.0734 -0.6233
16685TIP3   OH271545   4.836   2.090   2.631  0.2956  0.0046 -0.2672
16685TIP3    H171546   4.877   2.004   2.641  0.1955  0.0884  0.9921
16685TIP3    H271547   4.859   2.137   2.711  0.7647  1.3403 -1.1551
16686TIP3   OH271548   5.948   3.373   0.852 -0.0829 -0.4345  0.0151
16686TIP3    H171549   5.864   3.334   0.827 -1.2273  2.3547 -0.9080
16686TIP3    H271550   6.007   3.350   0.781 -1.1870  0.8124 -1.3692
16687TIP3   OH271551   6.047   2.973   5.488 -0.2935  0.1047  0.0841
16687TIP3    H171552   5.999   2.916   5.547  0.4084  1.3846  1.9922
16687TIP3    H271553   6.099   3.029   5.546  1.0062  0.9332 -1.7882
16688TIP3   OH271554   1.900   3.366   6.033 -0.4259  0.0201 -0.1833
16688TIP3    H171555   1.955   3.444   6.042 -0.7143  0.3840 -1.3801
16688TIP3    H271556   1.962   3.297   6.010 -0.1407 -0.1726  1.0866
16689TIP3   OH271557   2.568   0.002  15.945 -0.3119  0.0474 -0.0420
16689TIP3    H171558   2.650  -0.027  15.986 -0.6944  0.8124  1.3204
16689TIP3    H271559   2.588   0.005  15.852  0.9206 -0.7185  0.1738
16690TIP3   OH271560   5.089   2.584   0.935 -0.1956 -0.6021  0.1794
16690TIP3    H171561   5.098   2.679   0.923  0.1827 -0.3274  2.2790
16690TIP3    H271562   5.167   2.547   0.894  0.4919  0.1527  0.7657
16691TIP3   OH271563   5.982   3.016   4.825  0.2212 -0.2835  0.2086
16691TIP3    H171564   5.933   3.013   4.907 -0.3738 -0.4686 -0.1519
16691TIP3    H271565   5.929   3.069   4.767  1.5203  1.4119  0.5010
16692TIP3   OH271566   1.304   2.851  14.368 -0.2339 -0.4615  0.3191
16692TIP3    H171567   1.392   2.836  14.401  1.1900  1.3252 -2.2672
16692TIP3    H271568   1.281   2.939  14.400 -0.5332 -0.4072 -0.0340
16693TIP3   OH271569   1.816   3.853   1.230  0.1019  0.6665 -0.0791
16693TIP3    H171570   1.765   3.855   1.312  1.6849 -0.0710  0.9714
16693TIP3    H271571   1.825   3.944   1.205 -0.0083  0.9337  0.8215
16694TIP3   OH271572   5.297   5.037   4.843  0.0782 -0.1272 -0.1815
16694TIP3    H171573   5.267   5.046   4.752  0.1482  2.5566 -0.0095
16694TIP3    H271574   5.390   5.013   4.835  0.6845  2.1815 -0.9478
16695TIP3   OH271575   4.274   6.139  15.808  0.0305  0.3444  0.6119
16695TIP3    H171576   4.209   6.200  15.844 -0.4876 -0.7651  1.6486
16695TIP3    H271577   4.346   6.141  15.871  0.7308  1.0823 -0.1958
16696TIP3   OH271578   3.469   1.355  16.250  0.3642 -0.2909  0.2801
16696TIP3    H171579   3.544   1.385  16.300 -0.0038 -0.3832  0.8889
16696TIP3    H271580   3.499   1.273  16.210  1.3101  0.7325 -1.2421
16697TIP3   OH271581   6.620   5.427   0.757 -0.4336 -0.3795  0.1635
16697TIP3    H171582   6.701   5.443   0.806 -1.6587  2.8787  1.4813
16697TIP3    H271583   6.551   5.465   0.812 -2.7258 -1.9610 -1.4250
16698TIP3   OH271584   4.779   2.991  14.909 -0.0966  0.5784  0.1011
16698TIP3    H171585   4.795   2.910  14.860  1.0975  1.3245 -0.8073
16698TIP3    H271586   4.820   3.059  14.856 -3.5306  2.2416 -0.6893
16699TIP3   OH271587   4.455   0.673   2.358  0.0598 -0.0638 -0.0205
16699TIP3    H171588   4.521   0.673   2.428 -0.8934 -0.1532  0.8947
16699TIP3    H271589   4.393   0.741   2.383  0.1233  0.4578 -1.2114
16700TIP3   OH271590   6.576   2.331  15.783 -0.1760  0.8124 -0.6299
16700TIP3    H171591   6.594   2.402  15.844  0.7824 -1.5841  2.1094
16700TIP3    H271592   6.659   2.317  15.736  1.0521 -1.0389  1.8376
16701TIP3   OH271593   5.721   2.978   0.172 -0.1244 -0.6557  0.2192
16701TIP3    H171594   5.668   2.958   0.095 -1.1891  0.2743  0.6885
16701TIP3    H271595   5.696   2.912   0.236 -1.4666  0.3542  0.7698
16702TIP3   OH271596   4.329   0.433   2.923  0.2578 -0.0991  0.2101
16702TIP3    H171597   4.291   0.443   3.010 -1.6056  2.0460 -0.7335
16702TIP3    H271598   4.264   0.381   2.875  0.7025 -0.2705 -0.2050
16703TIP3   OH271599   3.128   3.494   1.611  0.4063  0.0248  0.1058
16703TIP3    H171600   3.089   3.568   1.565 -1.1184 -1.2470 -0.7365
16703TIP3    H271601   3.082   3.491   1.694  0.2657 -0.1527  0.0213
16704TIP3   OH271602   0.208   0.948   2.588 -0.8437  0.1061 -0.5606
16704TIP3    H171603   0.127   0.997   2.575 -1.0808  0.1444  0.9367
16704TIP3    H271604   0.191   0.892   2.663  0.0400 -0.9606 -1.1254
16705TIP3   OH271605   6.579   1.724   5.145  0.3353 -0.5701 -0.1827
16705TIP3    H171606   6.671   1.724   5.171 -0.2120 -0.6908  1.8807
16705TIP3    H271607   6.532   1.757   5.221 -1.3167 -0.0557 -1.3635
16706TIP3   OH271608   1.110   0.272  14.289 -0.1216 -0.2905 -0.4942
16706TIP3    H171609   1.131   0.277  14.195 -0.1237  1.0702 -0.4364
16706TIP3    H271610   1.092   0.362  14.314  0.3082 -0.5808  0.9216
16707TIP3   OH271611   5.172   2.189  16.474 -0.1072 -0.4240  0.3280
16707TIP3    H171612   5.083   2.155  16.478 -0.7899  1.1199 -0.8714
16707TIP3    H271613   5.226   2.121  16.514 -1.8640 -1.2066  1.4304
16708TIP3   OH271614   5.041   5.466   0.282 -0.1217  0.7660  0.2142
16708TIP3    H171615   5.065   5.474   0.375 -0.9429 -0.7430  0.5870
16708TIP3    H271616   5.123   5.481   0.235  0.7355 -0.3922  1.2853
16709TIP3   OH271617   6.612   2.223  13.180 -0.0424 -0.0088  0.2756
16709TIP3    H171618   6.626   2.317  13.193 -0.1813  0.1959 -0.9435
16709TIP3    H271619   6.551   2.218  13.106 -0.3682 -1.0486  0.6083
16710TIP3   OH271620   4.731   2.741  13.190  0.7183 -0.1361  0.5219
16710TIP3    H171621   4.742   2.833  13.211  1.2726  0.7248 -2.9111
16710TIP3    H271622   4.677   2.740  13.111 -1.1478 -2.9255  1.6664
16711TIP3   OH271623   0.205   1.017  15.574  0.3100 -0.2557 -0.1082
16711TIP3    H171624   0.247   1.090  15.620 -0.7344  1.6187 -1.9628
16711TIP3    H271625   0.277   0.965  15.540  1.1226  0.8516 -0.1418
16712TIP3   OH271626   0.632   3.792  14.975 -0.3031  0.1798  0.0767
16712TIP3    H171627   0.689   3.868  14.984 -0.3567  0.1151  1.2049
16712TIP3    H271628   0.590   3.784  15.061  0.2656 -1.5670  0.2450
16713TIP3   OH271629   1.499   4.325  14.636 -0.4045 -0.1351  0.3778
16713TIP3    H171630   1.429   4.265  14.610 -0.0834 -0.0302 -0.7851
16713TIP3    H271631   1.580   4.278  14.618 -0.1410  0.7150 -0.8155
16714TIP3   OH271632   5.243   1.936  12.803  0.2811  0.2842 -0.2944
16714TIP3    H171633   5.271   2.010  12.749 -0.6355 -0.2017 -1.4897
16714TIP3    H271634   5.166   1.969  12.850  1.2786  0.8140  1.0171
16715TIP3   OH271635   6.727   4.635   2.771  0.3559 -0.4242 -0.4709
16715TIP3    H171636   6.687   4.698   2.831  2.0265  1.0818 -0.8251
16715TIP3    H271637   6.669   4.633   2.695 -0.1068  0.1237 -0.1397
16716TIP3   OH271638   4.657   0.477   5.759 -0.1471 -0.1354 -0.8385
16716TIP3    H171639   4.613   0.560   5.777 -0.3433 -0.2685 -0.7101
16716TIP3    H271640   4.698   0.454   5.842 -2.0594 -1.3676 -0.1753
16717TIP3   OH271641   0.439   2.619   4.093 -0.2753  0.0559 -0.6267
16717TIP3    H171642   0.362   2.567   4.071 -0.4507  0.2186 -0.3973
16717TIP3    H271643   0.459   2.595   4.183  0.1850 -0.2877 -0.8183
16718TIP3   OH271644   1.451   6.503  12.859  0.4419  0.1558  0.4681
16718TIP3    H171645   1.533   6.482  12.904  0.7355  3.0104  1.4704
16718TIP3    H271646   1.448   6.599  12.858 -0.8507  0.2415 -3.3697
16719TIP3   OH271647   3.647   0.432  13.678  0.5840 -0.2453  0.1779
16719TIP3    H171648   3.642   0.454  13.585 -1.0833 -1.7899 -0.1429
16719TIP3    H271649   3.557   0.434  13.709  0.7508 -2.5267  1.0397
16720TIP3   OH271650   4.721   4.444   2.674 -0.7613 -0.0532  0.1200
16720TIP3    H171651   4.679   4.411   2.754 -0.5797  1.1927  0.7689
16720TIP3    H271652   4.761   4.527   2.701  2.0665 -1.0858 -0.4557
16721TIP3   OH271653   0.524   1.389   3.765  0.1019 -0.6275  0.7511
16721TIP3    H171654   0.557   1.313   3.814 -1.8079 -1.5430  0.6949
16721TIP3    H271655   0.493   1.449   3.832  0.1175 -0.6243  0.7555
16722TIP3   OH271656   1.547   4.359  16.537 -0.0748 -0.7567 -0.8668
16722TIP3    H171657   1.543   4.339  16.631  1.8883  1.7617 -0.1216
16722TIP3    H271658   1.630   4.321  16.508 -1.1378 -2.4085 -1.9058
16723TIP3   OH271659   2.660   3.310   5.456  0.4815  0.9287 -0.1356
16723TIP3    H171660   2.620   3.384   5.503  2.8864  2.7028 -0.6459
16723TIP3    H271661   2.630   3.233   5.503 -0.7252  2.3478  1.5793
16724TIP3   OH271662   6.430   2.452   1.718 -0.1047 -0.1575  0.5848
16724TIP3    H171663   6.398   2.453   1.808 -0.1969  0.5316  0.5482
16724TIP3    H271664   6.369   2.394   1.672 -0.3627 -0.1033  0.8549
16725TIP3   OH271665   5.470   6.589   4.617  0.2727  0.2488 -0.2784
16725TIP3    H171666   5.391   6.560   4.571  0.4114 -0.4125 -0.1093
16725TIP3    H271667   5.460   6.684   4.624 -1.1832  0.0322  0.9828
16726TIP3   OH271668   5.872   4.005   2.817 -0.7836 -0.2537  0.2161
16726TIP3    H171669   5.868   4.028   2.909  0.3970 -0.3757  0.3187
16726TIP3    H271670   5.813   3.931   2.807 -1.4092  0.1705  0.7325
16727TIP3   OH271671   0.614   4.015   3.681  0.3300  0.2348 -0.4376
16727TIP3    H171672   0.648   4.083   3.624 -0.3380  0.3487 -0.7095
16727TIP3    H271673   0.571   4.062   3.752 -0.8063  0.1258 -1.0254
16728TIP3   OH271674   4.429   2.099  16.396 -0.1906  0.4706 -0.1586
16728TIP3    H171675   4.411   2.130  16.307 -2.1183  0.6755  0.2591
16728TIP3    H271676   4.389   2.165  16.453  2.1930  1.0611  0.9352
16729TIP3   OH271677   2.686   4.461  12.498  0.1338 -0.4861 -0.2150
16729TIP3    H171678   2.661   4.398  12.565  0.6633 -0.3149  0.1458
16729TIP3    H271679   2.652   4.423  12.416 -1.0749 -0.3734  0.2196
16730TIP3   OH271680   4.067   0.084   3.081 -0.1492 -0.3837  0.4307
16730TIP3    H171681   3.973   0.081   3.098 -0.3028 -0.8920 -0.4701
16730TIP3    H271682   4.102   0.139   3.151 -1.0850 -0.3633  0.8972
16731TIP3   OH271683   6.300   6.727  16.625  0.5695  0.1692  0.5902
16731TIP3    H171684   6.353   6.667  16.678  1.2206  2.9243  3.3727
16731TIP3    H271685   6.255   6.781  16.689 -3.4611 -0.0690 -1.6937
16732TIP3   OH271686   0.720   3.536  12.211 -0.3187 -0.3169 -0.3382
16732TIP3    H171687   0.757   3.618  12.244 -0.2624 -0.3352 -0.3545
16732TIP3    H271688   0.692   3.489  12.289 -0.5652 -0.1801 -0.3448
16733TIP3   OH271689   4.767   6.011  13.855  0.0872  0.1099 -0.4568
16733TIP3    H171690   4.711   5.977  13.786 -1.1430 -1.8232  1.3714
16733TIP3    H271691   4.753   5.952  13.929  1.9472  1.5979  1.2050
16734TIP3   OH271692   0.251   4.929  15.549  0.3747  0.5524 -0.4612
16734TIP3    H171693   0.295   4.923  15.464 -0.3540  0.0138 -0.8183
16734TIP3    H271694   0.254   5.021  15.572 -0.2042  0.8501 -1.5116
16735TIP3   OH271695   2.122   2.649  10.913  0.3079 -0.2538 -0.1082
16735TIP3    H171696   2.120   2.744  10.929 -0.1656 -0.2371 -0.2403
16735TIP3    H271697   2.053   2.635  10.847  1.8155 -0.3935 -1.7188
16736TIP3   OH271698   4.875   6.558  11.985  0.7379  0.2597  0.1742
16736TIP3    H171699   4.867   6.618  12.059  2.0648 -0.0649  0.6226
16736TIP3    H271700   4.923   6.483  12.021 -2.0385 -1.7344 -0.0180
16737TIP3   OH271701   3.440   4.024  15.287 -0.2341 -0.0841  0.1005
16737TIP3    H171702   3.476   3.988  15.205 -1.1535 -0.0582 -0.3266
16737TIP3    H271703   3.367   4.078  15.258 -1.7887 -1.5762  1.0545
16738TIP3   OH271704   1.732   2.059   5.610 -0.4258  0.3110  0.2607
16738TIP3    H171705   1.652   2.093   5.650  0.5928  0.9703  1.7766
16738TIP3    H271706   1.766   1.996   5.674 -0.7495 -1.5043 -1.2418
16739TIP3   OH271707   5.297   6.320  12.952  0.2370  0.4385  0.1606
16739TIP3    H171708   5.371   6.380  12.948 -0.7710  1.7551  0.4727
16739TIP3    H271709   5.220   6.377  12.957 -0.7792 -0.8845  0.2159
16740TIP3   OH271710   5.661   0.446   1.573  0.2500 -0.0610  0.0075
16740TIP3    H171711   5.619   0.390   1.639 -0.8787 -0.5094 -1.0465
16740TIP3    H271712   5.606   0.436   1.495  1.4761  0.5512 -0.9709
16741TIP3   OH271713   4.306   5.834  15.313  0.4416  0.3103  0.1388
16741TIP3    H171714   4.401   5.827  15.303  0.5556  0.1724  1.1855
16741TIP3    H271715   4.270   5.798  15.232  1.2904  1.1926 -0.6523
16742TIP3   OH271716   2.734   5.672  14.727  0.1394 -0.2599 -0.0985
16742TIP3    H171717   2.773   5.691  14.642 -0.8076 -0.1186 -0.5236
16742TIP3    H271718   2.806   5.680  14.789  0.3280  2.3038 -0.5444
16743TIP3   OH271719   4.824   5.483  14.668  0.2323 -0.2036 -0.4910
16743TIP3    H171720   4.797   5.515  14.755  1.1755 -0.9766  0.0958
16743TIP3    H271721   4.744   5.445  14.632  0.0036 -0.5452  0.3452
16744TIP3   OH271722   4.273   0.167  12.711 -0.3165 -0.2372  0.0251
16744TIP3    H171723   4.304   0.180  12.800 -0.4565 -0.1352  0.0610
16744TIP3    H271724   4.182   0.196  12.713  0.6652  3.4147 -1.0149
16745TIP3   OH271725   2.102   5.369   4.098  0.1689  0.7183  0.7784
16745TIP3    H171726   2.037   5.432   4.128  1.3945  1.8325  1.1786
16745TIP3    H271727   2.055   5.313   4.037 -0.6968  2.7224 -0.4617
16746TIP3   OH271728   2.863   1.023  13.672 -0.2900  0.3656 -0.8322
16746TIP3    H171729   2.924   1.076  13.722 -1.2899  0.4557  0.3569
16746TIP3    H271730   2.894   1.028  13.582  2.1494 -0.5911 -0.1315
16747TIP3   OH271731   5.544   6.728   2.013 -0.1809  0.8907  0.2352
16747TIP3    H171732   5.620   6.691   1.968 -0.9652 -0.2633 -0.1804
16747TIP3    H271733   5.509   6.656   2.066 -1.0273  1.3818  0.3660
16748TIP3   OH271734   5.675   6.475  11.370  0.5221 -0.2000 -0.2298
16748TIP3    H171735   5.680   6.426  11.287  1.9015 -0.4177 -0.0432
16748TIP3    H271736   5.645   6.562  11.345 -1.3964 -0.9335 -0.6462
16749TIP3   OH271737   6.595   2.665  12.759  0.2248 -0.1538 -0.2292
16749TIP3    H171738   6.571   2.723  12.832  0.2774 -0.8795  0.3806
16749TIP3    H271739   6.554   2.581  12.781  0.1509 -0.3555 -1.1011
16750TIP3   OH271740   1.766   2.137   5.911  0.1880 -0.1672  0.3771
16750TIP3    H171741   1.772   2.049   5.950  1.3301  0.3907  1.5611
16750TIP3    H271742   1.857   2.161   5.893 -0.1312  0.6942 -0.1308
16751TIP3   OH271743   0.769   1.378  13.197  0.5119 -0.4945 -0.4175
16751TIP3    H171744   0.757   1.470  13.219  1.3229 -0.4809  0.0047
16751TIP3    H271745   0.754   1.332  13.280 -0.3618 -0.7964 -0.7245
16752TIP3   OH271746   0.623   5.459   4.731 -0.2896  0.4334 -0.3334
16752TIP3    H171747   0.604   5.452   4.638  0.4067 -1.8842 -0.3740
16752TIP3    H271748   0.629   5.368   4.761 -1.7709  1.0884  2.2611
16753TIP3   OH271749   6.804   6.322  12.190 -0.7535 -0.2767 -0.2670
16753TIP3    H171750   6.847   6.407  12.186 -0.4646 -0.3630  0.6711
16753TIP3    H271751   6.873   6.259  12.170 -0.6090 -0.3699  0.4921
16754TIP3   OH271752   3.067   4.789  16.725 -0.3583  0.8178 -0.0139
16754TIP3    H171753   3.037   4.879  16.708  0.9088  1.1490 -0.5873
16754TIP3    H271754   3.161   4.798  16.741 -0.3559 -0.3213  0.7360
16755TIP3   OH271755   1.544   1.264  12.612 -0.7036  0.2808 -0.0645
16755TIP3    H171756   1.586   1.347  12.588 -2.2034  0.6399 -1.6306
16755TIP3    H271757   1.451   1.285  12.617 -0.9394 -0.9479  1.2889
16756TIP3   OH271758   1.294   5.558   3.032 -0.1005 -0.0722  0.0458
16756TIP3    H171759   1.278   5.652   3.030 -0.7409 -0.1291  1.4701
16756TIP3    H271760   1.264   5.527   2.947 -1.0590  0.8386  0.0342
16757TIP3   OH271761   5.483   3.878  15.885  0.0490  0.1031 -0.0761
16757TIP3    H171762   5.421   3.895  15.955  0.2760  0.5319  0.0240
16757TIP3    H271763   5.525   3.963  15.869 -1.3235  0.4668 -2.0215
16758TIP3   OH271764   3.463   4.682  13.564 -0.5831  0.6769  0.0936
16758TIP3    H171765   3.532   4.712  13.505  0.9941 -2.5827  0.0149
16758TIP3    H271766   3.387   4.668  13.507  0.4323 -0.8838 -0.9825
16759TIP3   OH271767   4.328   1.346   3.315 -0.7003  0.0242  0.4557
16759TIP3    H171768   4.262   1.407   3.282  1.5235  1.3035 -2.0412
16759TIP3    H271769   4.348   1.289   3.240  0.3790 -0.9073  1.4153
16760TIP3   OH271770   4.948   1.655   1.848  0.3966 -0.6173 -0.3122
16760TIP3    H171771   4.985   1.742   1.835 -0.0753 -0.5035 -0.9889
16760TIP3    H271772   4.910   1.633   1.763  0.9312 -1.6907 -0.2860
16761TIP3   OH271773   5.746   0.718   4.216  0.0641  0.3907  0.3021
16761TIP3    H171774   5.713   0.799   4.178 -2.4026  0.1764  1.8227
16761TIP3    H271775   5.763   0.738   4.308  1.2562 -0.3663  0.2808
16762TIP3   OH271776   4.699   1.586  15.875 -0.2236 -0.7343  0.3689
16762TIP3    H171777   4.734   1.498  15.886 -0.3046 -0.6855  1.0242
16762TIP3    H271778   4.770   1.644  15.902  0.5094 -0.5347 -1.8251
16763TIP3   OH271779   5.083   3.347  12.779  0.7090 -0.7188  0.4285
16763TIP3    H171780   5.116   3.309  12.697  1.2732  0.2825  0.1828
16763TIP3    H271781   5.087   3.275  12.841  0.3458 -1.4771 -0.4003
16764TIP3   OH271782   4.408   3.537   5.428 -0.0163 -0.0848  0.0638
16764TIP3    H171783   4.496   3.563   5.401  0.0670  0.5620  0.9004
16764TIP3    H271784   4.351   3.606   5.394 -0.0912 -0.0579  0.2386
16765TIP3   OH271785   1.136   0.478  16.370  1.2637  0.7754  0.6647
16765TIP3    H171786   1.142   0.542  16.441 -0.0450  0.5396  1.0075
16765TIP3    H271787   1.152   0.529  16.290 -0.6539  1.7443  0.8472
16766TIP3   OH271788   0.852   2.064  17.101  0.0645  0.2618  0.0024
16766TIP3    H171789   0.810   2.143  17.067 -0.8198 -1.2907 -2.8881
16766TIP3    H271790   0.783   2.021  17.152 -0.2248  0.2325 -0.4030
16767TIP3   OH271791   1.842   6.104   0.810 -0.3398 -0.3181  0.3803
16767TIP3    H171792   1.834   6.120   0.715 -0.3529  0.8992  0.5719
16767TIP3    H271793   1.805   6.016   0.822  0.3126 -0.7981 -0.8364
16768TIP3   OH271794   5.377   4.346  12.196  0.3894 -0.6559 -0.3183
16768TIP3    H171795   5.284   4.330  12.209  0.0096  1.7118  0.2812
16768TIP3    H271796   5.419   4.312  12.275 -0.2946  0.6670  0.6432
16769TIP3   OH271797   2.279   6.099   3.751  0.0268  0.6706 -0.1477
16769TIP3    H171798   2.183   6.106   3.755  0.0207  0.5211 -0.0377
16769TIP3    H271799   2.300   6.024   3.807  0.0003 -1.1020 -2.3925
16770TIP3   OH271800   4.077   4.999   3.580 -0.6428  0.4173 -0.3706
16770TIP3    H171801   4.169   4.981   3.564 -0.8374 -1.4466  0.3793
16770TIP3    H271802   4.030   4.944   3.518 -1.2569  0.8512 -0.3013
16771TIP3   OH271803   0.122   0.140   0.043 -0.1496  0.4330 -0.1301
16771TIP3    H171804   0.096   0.100   0.126  1.1361  0.5173  0.3511
16771TIP3    H271805   0.051   0.200   0.021  0.0923  1.4690  1.6737
16772TIP3   OH271806   1.385   2.153  17.218 -0.1639 -0.2410  0.0362
16772TIP3    H171807   1.299   2.112  17.224  0.0638 -0.7931 -0.4053
16772TIP3    H271808   1.431   2.104  17.150  0.4096  0.2151  0.0813
16773TIP3   OH271809   0.942   2.450   0.895  1.1732 -0.3653  0.0166
16773TIP3    H171810   0.993   2.438   0.815 -0.9156 -1.7261 -1.2112
16773TIP3    H271811   0.933   2.545   0.904  1.8436 -0.1805 -1.1137
16774TIP3   OH271812   6.659   2.053   0.683 -0.2651 -0.0193  0.1121
16774TIP3    H171813   6.671   1.995   0.759 -0.0572 -1.4715 -0.9878
16774TIP3    H271814   6.742   2.049   0.636 -0.3164  1.0407 -0.0938
16775TIP3   OH271815   5.633   2.181  15.832  0.4202  0.2427  0.6379
16775TIP3    H171816   5.687   2.140  15.899 -0.8546  0.2886  1.7461
16775TIP3    H271817   5.693   2.201  15.761  1.3633 -2.1931  0.6510
16776TIP3   OH271818   6.474   4.720   5.039  0.0337  0.1837 -0.6970
16776TIP3    H171819   6.507   4.800   4.999  2.6589 -0.7943 -0.7386
16776TIP3    H271820   6.524   4.650   4.997  0.2852 -1.1749  1.6595
16777TIP3   OH271821   6.160   6.602   1.639  0.2282  0.2619 -0.1784
16777TIP3    H171822   6.105   6.531   1.672  1.1890 -0.1463  0.6089
16777TIP3    H271823   6.174   6.581   1.547  1.3198 -1.1541  0.2677
16778TIP3   OH271824   5.709   1.155   2.412  0.0588 -0.1150 -0.7123
16778TIP3    H171825   5.627   1.108   2.425  0.3056 -0.1305  1.0345
16778TIP3    H271826   5.753   1.107   2.342 -0.4888 -1.3945 -0.2199
16779TIP3   OH271827   5.355   3.575  15.436  0.0450  0.0561  0.6693
16779TIP3    H171828   5.293   3.502  15.437  0.0595  0.0345  2.0865
16779TIP3    H271829   5.382   3.585  15.527 -1.7882  3.3951  1.0146
16780TIP3   OH271830   1.716   4.090   3.753  0.2587  0.3273  0.4373
16780TIP3    H171831   1.650   4.070   3.818  0.5363  0.2126  0.6864
16780TIP3    H271832   1.795   4.109   3.803  0.8729 -1.1837  0.1249
16781TIP3   OH271833   6.367   3.430   1.202 -0.1320  0.3764  0.1840
16781TIP3    H171834   6.315   3.425   1.122  0.4274 -0.1665 -0.1505
16781TIP3    H271835   6.446   3.380   1.183  0.1657  0.5354  0.9571
16782TIP3   OH271836   4.277   3.739  13.234  0.1907  0.3027  0.1082
16782TIP3    H171837   4.314   3.801  13.298 -1.6398  0.6299  0.9094
16782TIP3    H271838   4.203   3.699  13.280 -0.6670 -0.0733 -1.5545
16783TIP3   OH271839   6.610   5.032  12.105 -0.5336  0.4910 -0.0643
16783TIP3    H171840   6.640   5.014  12.016 -0.9238 -2.7786  0.3290
16783TIP3    H271841   6.691   5.045  12.155 -0.1166 -0.8599 -0.3492
16784TIP3   OH271842   5.533   2.926   4.723 -0.0140  0.4475  0.5243
16784TIP3    H171843   5.443   2.933   4.693 -0.6115 -0.2048  2.0772
16784TIP3    H271844   5.529   2.940   4.818  1.4710  0.1663  0.6636
16785TIP3   OH271845   3.686   5.271  13.939  0.0655  0.0715  0.2800
16785TIP3    H171846   3.600   5.241  13.909 -0.5952  2.6569 -0.6774
16785TIP3    H271847   3.731   5.300  13.859  1.3493 -0.0734  0.9224
16786TIP3   OH271848   6.002   0.560   6.505 -0.1424  0.2325 -0.5826
16786TIP3    H171849   5.909   0.566   6.481 -0.1001  1.6077 -0.4950
16786TIP3    H271850   6.045   0.626   6.451  0.7494 -0.2245 -0.4384
16787TIP3   OH271851   2.133   4.779   3.582 -0.4047  0.2214 -0.4251
16787TIP3    H171852   2.151   4.694   3.621  0.1588  1.0230  1.1259
16787TIP3    H271853   2.194   4.785   3.508  0.7420 -0.0602  0.4652
16788TIP3   OH271854   5.265   1.673   6.282 -0.1445 -0.2283  0.1037
16788TIP3    H171855   5.263   1.736   6.354 -0.6226 -0.9761  0.7595
16788TIP3    H271856   5.327   1.606   6.311 -0.6914 -0.7712  0.0284
16789TIP3   OH271857   6.540   1.727   1.175 -0.1272 -0.0812 -0.6776
16789TIP3    H171858   6.476   1.762   1.113  0.9115  2.2178 -0.5312
16789TIP3    H271859   6.587   1.804   1.208  2.2342 -1.6073 -0.2468
16790TIP3   OH271860   0.635   1.171   1.541  0.1948  0.5219 -0.0911
16790TIP3    H171861   0.691   1.170   1.619 -0.6889 -0.5865  0.5400
16790TIP3    H271862   0.695   1.152   1.468  0.6724 -0.5811  0.5672
16791TIP3   OH271863   6.697   2.519   3.642 -0.8183 -0.6033 -0.2092
16791TIP3    H171864   6.704   2.568   3.724  2.2033  1.3467 -1.4259
16791TIP3    H271865   6.728   2.431   3.664  0.6151  0.0780  0.6978
16792TIP3   OH271866   1.556   1.499   2.873  0.1284  0.1580 -0.1320
16792TIP3    H171867   1.597   1.425   2.919  1.1023  0.8636  0.1596
16792TIP3    H271868   1.506   1.458   2.803  0.9024 -0.7661 -0.1654
16793TIP3   OH271869   3.494   5.594  13.464 -0.0851 -0.1268  0.0667
16793TIP3    H171870   3.475   5.610  13.371  1.1604  1.2411  0.0173
16793TIP3    H271871   3.564   5.655  13.485 -0.5391 -0.2037  1.9979
16794TIP3   OH271872   5.108   5.927   2.599  0.0864 -0.2989 -0.2873
16794TIP3    H171873   5.084   6.010   2.640  0.5833  0.2746 -1.1468
16794TIP3    H271874   5.087   5.939   2.507  2.3749 -0.2615 -0.8505
16795TIP3   OH271875   6.627   5.376   1.086  0.1232 -0.0645 -0.5190
16795TIP3    H171876   6.706   5.341   1.046  0.3546 -0.7451  0.5090
16795TIP3    H271877   6.645   5.376   1.180 -0.3582  1.6361 -0.3969
16796TIP3   OH271878   5.154   1.821   4.846 -0.2488 -0.2422  0.7427
16796TIP3    H171879   5.069   1.796   4.808 -0.8426  0.6911  1.4194
16796TIP3    H271880   5.142   1.810   4.940  0.2928  0.1599  0.8597
16797TIP3   OH271881   4.691   4.245   0.985  0.2735 -0.2274 -0.6911
16797TIP3    H171882   4.629   4.204   1.046 -1.7822  0.4834 -2.2035
16797TIP3    H271883   4.707   4.332   1.022 -1.6828  0.5518 -1.5118
16798TIP3   OH271884   3.093   4.036   0.400 -0.3702 -0.0722 -0.9641
16798TIP3    H171885   3.074   4.125   0.432  0.0851 -1.3282  3.5072
16798TIP3    H271886   3.011   3.988   0.412  0.2174 -0.9495 -0.3282
16799TIP3   OH271887   5.797   3.432  15.047  0.1357 -0.1655  0.0380
16799TIP3    H171888   5.831   3.352  15.008  1.4940  0.6531 -0.5648
16799TIP3    H271889   5.730   3.462  14.985  1.6884  0.6748 -1.3564
16800TIP3   OH271890   0.690   1.171   3.853  0.3765  0.6011  0.1830
16800TIP3    H171891   0.751   1.109   3.813  0.3255  0.0328  0.9688
16800TIP3    H271892   0.606   1.126   3.853 -0.4121  1.8712 -2.1158
16801TIP3   OH271893   2.778   5.121  11.055  0.0276  0.6317  0.4404
16801TIP3    H171894   2.786   5.026  11.051  2.4608  0.8218 -1.7134
16801TIP3    H271895   2.836   5.147  11.127  1.9239  0.6053 -1.0046
16802TIP3   OH271896   6.747   2.322  14.186  0.0001 -0.2878  0.5826
16802TIP3    H171897   6.664   2.371  14.192 -0.2207 -0.3127 -1.4433
16802TIP3    H271898   6.788   2.334  14.271 -1.6749  0.4845  1.3374
16803TIP3   OH271899   0.501   1.039   3.200  0.5781  0.2689  0.4101
16803TIP3    H171900   0.428   1.074   3.251  0.9158  0.4745  0.7623
16803TIP3    H271901   0.573   1.030   3.264  0.6564 -0.5773  0.2206
16804TIP3   OH271902   0.794   1.379   2.736  0.1633 -0.7296 -0.5580
16804TIP3    H171903   0.867   1.420   2.690  0.6075 -1.1373 -0.2307
16804TIP3    H271904   0.831   1.299   2.773 -0.2955 -0.6206  0.1485
16805TIP3   OH271905   1.282   4.873  15.040  0.0506 -0.0773  0.3994
16805TIP3    H171906   1.274   4.862  14.945 -1.2140 -0.8525  0.5821
16805TIP3    H271907   1.342   4.803  15.067 -0.6550 -0.7117  0.3410
16806TIP3   OH271908   6.742   2.803   0.211  0.1397 -0.3909  0.0901
16806TIP3    H171909   6.727   2.736   0.144  2.1814 -0.5020 -0.3491
16806TIP3    H271910   6.808   2.860   0.172  0.6366  0.1166  1.6188
16807TIP3   OH271911   2.990   3.842  15.465  0.0531 -0.2893  0.1980
16807TIP3    H171912   3.073   3.794  15.459  0.4544  0.3810  0.3204
16807TIP3    H271913   2.963   3.832  15.556  1.4184  1.7745  0.9084
16808TIP3   OH271914   5.330   6.656   4.986  0.3910 -0.0945  0.0395
16808TIP3    H171915   5.318   6.600   5.063  1.5273  2.4492  2.2106
16808TIP3    H271916   5.425   6.667   4.978  0.2042  1.5333 -0.2725
16809TIP3   OH271917   5.823   5.741  13.598 -0.5839 -1.0366  0.3534
16809TIP3    H171918   5.820   5.774  13.508  0.4554 -1.0374  0.3016
16809TIP3    H271919   5.858   5.653  13.590  1.0405 -0.4756  0.8642
16810TIP3   OH271920   2.444   6.683   1.231  0.2435 -0.0650 -0.0545
16810TIP3    H171921   2.472   6.670   1.321  0.7353 -0.7411 -0.2920
16810TIP3    H271922   2.517   6.727   1.188 -0.0694  0.4372 -0.0742
16811TIP3   OH271923   3.455   1.521   6.760 -0.0010  0.0480  0.1296
16811TIP3    H171924   3.480   1.431   6.737 -0.5643 -0.4142  1.2386
16811TIP3    H271925   3.396   1.511   6.835  0.6470  1.3897  0.8693
16812TIP3   OH271926   6.353   1.035   5.154 -0.7658  0.7784 -0.4028
16812TIP3    H171927   6.318   0.995   5.233  0.9113 -1.0344 -0.5070
16812TIP3    H271928   6.288   1.101   5.129 -2.7584 -0.6478  0.8044
16813TIP3   OH271929   6.230   4.624   0.720 -0.4011 -0.1412  0.1189
16813TIP3    H171930   6.159   4.640   0.782 -1.0379 -0.2065 -0.5717
16813TIP3    H271931   6.206   4.541   0.678  1.8440 -2.0086  2.2706
16814TIP3   OH271932   4.448   6.268  15.636 -0.6444  0.0308  0.8672
16814TIP3    H171933   4.356   6.241  15.646 -1.3761  2.3121  0.9959
16814TIP3    H271934   4.445   6.335  15.567  1.1089 -0.5762  0.1502
16815TIP3   OH271935   5.347   4.049  15.151 -0.3464 -0.2546 -0.0864
16815TIP3    H171936   5.376   4.136  15.177  1.3270 -1.3703  2.1757
16815TIP3    H271937   5.371   4.042  15.059  1.1008  1.0846  0.1357
16816TIP3   OH271938   4.915   3.459  15.615 -0.4951  0.0890  0.0164
16816TIP3    H171939   4.899   3.386  15.555  0.3585 -0.2665  0.1961
16816TIP3    H271940   4.957   3.526  15.560 -0.2404 -0.0104  0.0862
16817TIP3   OH271941   3.741   4.316   3.518  0.2440 -0.0016  0.2967
16817TIP3    H171942   3.818   4.334   3.572 -1.1231  1.3696  1.8792
16817TIP3    H271943   3.740   4.386   3.453  1.2081 -0.9659 -0.8111
16818TIP3   OH271944   0.716   0.217  15.501  0.3187  0.1489 -0.0857
16818TIP3    H171945   0.730   0.290  15.561  0.9290 -0.2972  0.3321
16818TIP3    H271946   0.800   0.208  15.455  1.4345 -2.3010  2.1435
16819TIP3   OH271947   3.370   1.328  15.868  0.4280 -0.2254 -0.2148
16819TIP3    H171948   3.401   1.417  15.882  1.0903 -0.5416  0.4107
16819TIP3    H271949   3.305   1.315  15.937 -1.0284  0.3841 -1.4304
16820TIP3   OH271950   5.188   4.346  11.646 -0.5913 -0.2658 -0.1289
16820TIP3    H171951   5.183   4.306  11.733 -0.5868 -0.3886 -0.1853
16820TIP3    H271952   5.239   4.426  11.659 -1.4011  0.2160  0.1648
16821TIP3   OH271953   0.878   1.913  15.711  0.8794  0.2090  0.3638
16821TIP3    H171954   0.850   1.901  15.620 -0.3499  0.4012  0.7044
16821TIP3    H271955   0.852   2.003  15.733 -0.7278 -0.5033  1.5409
16822TIP3   OH271956   4.204   6.082  12.823 -0.4490 -0.3366  0.2325
16822TIP3    H171957   4.238   6.168  12.847 -1.6005  0.3175 -0.4036
16822TIP3    H271958   4.278   6.037  12.782 -0.2253  0.8967 -0.7652
16823TIP3   OH271959   2.888   6.263   2.566  0.1174 -0.3162 -1.0312
16823TIP3    H171960   2.929   6.205   2.630  0.3645 -0.8463 -1.6492
16823TIP3    H271961   2.796   6.268   2.593  0.9981  3.3708  2.2261
16824TIP3   OH271962   2.734   4.962  14.032 -0.0112  0.0321  0.4660
16824TIP3    H171963   2.657   5.012  14.057  0.1430  0.2127  0.5850
16824TIP3    H271964   2.740   4.892  14.098 -1.1435 -1.1319 -0.6016
16825TIP3   OH271965   6.632   5.629   0.508 -0.1151  0.3217  0.0951
16825TIP3    H171966   6.643   5.586   0.593 -0.8388  1.2683  0.6819
16825TIP3    H271967   6.632   5.722   0.528 -1.6594  0.5395 -0.7621
16826TIP3   OH271968   4.788   4.665   0.304  0.1970  0.0899  0.3419
16826TIP3    H171969   4.875   4.650   0.266 -0.6237 -1.0175 -1.2005
16826TIP3    H271970   4.792   4.754   0.339  2.9040 -0.9449  3.1058
16827TIP3   OH271971   1.038   2.172  12.543 -0.1920  0.6143 -0.3276
16827TIP3    H171972   1.062   2.109  12.474 -1.6584  0.5675 -0.8237
16827TIP3    H271973   0.945   2.157  12.558 -0.0162  0.9846  1.3238
16828TIP3   OH271974   5.746   3.008  15.271  0.2161  0.0871 -0.6597
16828TIP3    H171975   5.679   3.071  15.296  1.5824  1.2517  0.1991
16828TIP3    H271976   5.706   2.922  15.287 -0.5329  0.7519  1.3451
16829TIP3   OH271977   1.659   4.283  11.809 -0.4845  0.8139  1.0212
16829TIP3    H171978   1.701   4.198  11.796 -1.6049  0.6131 -1.8559
16829TIP3    H271979   1.622   4.278  11.897 -0.1076 -1.4988  1.1051
16830TIP3   OH271980   6.390   6.403   3.070  0.1279  0.0829  0.5056
16830TIP3    H171981   6.388   6.430   3.162 -0.4473 -0.1175  0.5562
16830TIP3    H271982   6.338   6.323   3.067  2.5168 -1.5500  0.4983
16831TIP3   OH271983   3.873   2.792  14.350 -0.7454  0.2325  0.4953
16831TIP3    H171984   3.949   2.850  14.356  0.0647 -0.6335 -1.0335
16831TIP3    H271985   3.880   2.736  14.427  0.0065  0.3381  0.5102
16832TIP3   OH271986   6.353   6.135   4.878 -0.6492 -0.8183 -0.3942
16832TIP3    H171987   6.314   6.214   4.841  0.9086  0.3329  0.3187
16832TIP3    H271988   6.437   6.164   4.913  0.8228 -3.1622 -1.7337
16833TIP3   OH271989   4.587   2.475   4.610  0.3502  1.0250 -0.2910
16833TIP3    H171990   4.547   2.388   4.616  2.4616 -0.0219 -0.5593
16833TIP3    H271991   4.599   2.489   4.516  1.2323  1.0140 -0.1830
16834TIP3   OH271992   1.062   0.605  10.248 -0.3136  0.3502  1.4449
16834TIP3    H171993   1.059   0.687  10.198  0.0256  0.7365  2.0421
16834TIP3    H271994   0.971   0.590  10.274 -0.7529 -0.6694 -0.5517
16835TIP3   OH271995   2.575   0.729  13.481  0.5779 -0.1248 -0.6322
16835TIP3    H171996   2.569   0.650  13.535  0.4481 -0.2686 -0.8558
16835TIP3    H271997   2.669   0.743  13.469  0.6015 -0.2363 -0.5801
16836TIP3   OH271998   3.670   6.046   2.479  0.1769 -0.1488 -0.1402
16836TIP3    H171999   3.668   6.076   2.388 -1.6568 -0.8146 -0.3627
16836TIP3    H272000   3.607   5.975   2.482 -0.0035  0.0424  1.7299
16837TIP3   OH272001   1.347   5.465  15.747 -0.0392  1.0448 -0.4186
16837TIP3    H172002   1.258   5.498  15.749 -0.3129  0.2972  0.1474
16837TIP3    H272003   1.338   5.370  15.740  0.6340  0.7468  1.8335
16838TIP3   OH272004   3.054   6.371   1.522  0.0210  0.4599 -0.5591
16838TIP3    H172005   2.998   6.405   1.452 -0.0012  1.3501 -0.1289
16838TIP3    H272006   3.005   6.297   1.558 -0.1281  0.2169 -1.2489
16839TIP3   OH272007   3.882   5.981   2.650  0.5491 -1.1076  0.3987
16839TIP3    H172008   3.831   5.995   2.570  1.3120 -0.8847 -0.0605
16839TIP3    H272009   3.971   6.007   2.626  0.8587 -1.3940  1.2155
16840TIP3   OH272010   5.754   4.860  12.416  0.1489 -0.4694  0.6526
16840TIP3    H172011   5.827   4.840  12.474  1.6151  0.1061 -0.9040
16840TIP3    H272012   5.757   4.956  12.405  1.1846 -0.6910 -1.8324
16841TIP3   OH272013   5.741   3.728  15.770  0.0601 -0.2759 -0.1200
16841TIP3    H172014   5.749   3.712  15.676 -0.4882 -1.6447  0.0543
16841TIP3    H272015   5.651   3.757  15.782 -0.0815 -0.7827  0.0659
16842TIP3   OH272016   4.129   3.088   1.270  0.6477  0.7805  0.2668
16842TIP3    H172017   4.165   3.172   1.299  3.5512 -0.6755  1.2743
16842TIP3    H272018   4.167   3.024   1.331  0.4697 -1.5406 -1.9225
16843TIP3   OH272019   5.575   1.694  16.224 -0.2828  0.2004  0.1455
16843TIP3    H172020   5.666   1.696  16.196 -0.4486 -0.7017 -0.5205
16843TIP3    H272021   5.572   1.630  16.295 -0.2049  1.0735  0.9497
16844TIP3   OH272022   4.325   2.939  13.488 -0.3269  0.2610 -0.2517
16844TIP3    H172023   4.311   2.856  13.441  0.5424 -1.2523  1.9972
16844TIP3    H272024   4.268   2.934  13.564 -1.3985  2.4710 -0.8383
16845TIP3   OH272025   2.640   4.519  14.148 -0.3822  0.0691  0.0968
16845TIP3    H172026   2.554   4.487  14.121  0.4104 -1.8739 -0.2632
16845TIP3    H272027   2.674   4.565  14.072 -0.1218 -1.3040 -0.6599
16846TIP3   OH272028   4.345   4.139   6.497 -0.5203 -0.7485  0.4214
16846TIP3    H172029   4.421   4.148   6.554  0.1942  2.6827 -0.8130
16846TIP3    H272030   4.278   4.192   6.539 -1.0147 -0.7516 -0.3570
16847TIP3   OH272031   4.783   3.555   3.436 -0.4089  0.4102 -0.2557
16847TIP3    H172032   4.736   3.624   3.388  0.2391  0.5279 -0.7374
16847TIP3    H272033   4.798   3.593   3.523 -1.2342  0.3559 -0.0888
16848TIP3   OH272034   3.436   5.942  13.261  0.1213 -0.9634 -0.2000
16848TIP3    H172035   3.395   5.876  13.206  0.4646  0.1212 -1.8186
16848TIP3    H272036   3.504   5.980  13.206 -1.0680  1.8051  0.0782
16849TIP3   OH272037   1.578   4.759   3.147 -0.4295 -0.3325  0.3997
16849TIP3    H172038   1.489   4.792   3.156 -0.2075  0.7812 -1.1663
16849TIP3    H272039   1.594   4.711   3.229 -2.0487  0.4103  1.1979
16850TIP3   OH272040   4.647   1.416   4.541 -0.0769  0.0697 -0.0685
16850TIP3    H172041   4.616   1.485   4.483  0.6201  0.8168  0.4256
16850TIP3    H272042   4.715   1.371   4.491 -0.1206  0.1201 -0.1725
16851TIP3   OH272043   1.068   1.236   1.967 -0.5650  0.3961  0.0203
16851TIP3    H172044   1.090   1.326   1.990  2.0517  0.2007 -1.2841
16851TIP3    H272045   1.087   1.186   2.047  0.1278  0.7545  0.0943
16852TIP3   OH272046   2.459   2.079  12.847  0.4649 -0.3526  0.5267
16852TIP3    H172047   2.419   2.166  12.855 -0.3413 -0.7972  1.4602
16852TIP3    H272048   2.540   2.095  12.799  0.2144  0.8837  0.4752
16853TIP3   OH272049   5.607   4.908  16.379 -0.1833  0.5875  0.1011
16853TIP3    H172050   5.524   4.883  16.339  0.1329  0.8256 -0.7274
16853TIP3    H272051   5.672   4.899  16.309  0.5606  0.0354  0.8346
16854TIP3   OH272052   1.337   0.887  11.481 -0.2472 -0.7078  0.4678
16854TIP3    H172053   1.401   0.855  11.417  0.9134  0.8402  0.8014
16854TIP3    H272054   1.344   0.827  11.555  0.9061 -0.5037  0.5378
16855TIP3   OH272055   3.279   2.374   1.143  0.2504  0.3153 -0.2183
16855TIP3    H172056   3.252   2.286   1.114  1.9539 -1.0101  1.9113
16855TIP3    H272057   3.197   2.423   1.150 -0.9444 -1.6111  0.0837
16856TIP3   OH272058   5.093   4.897   2.394 -0.3127  0.8621  0.2092
16856TIP3    H172059   5.041   4.852   2.460 -0.5429  0.2698 -0.3633
16856TIP3    H272060   5.171   4.928   2.441 -0.8080  1.0723  0.8990
16857TIP3   OH272061   1.887   4.843  11.786  0.1438  0.6918  0.5110
16857TIP3    H172062   1.978   4.850  11.755  0.0774  1.0073  0.3771
16857TIP3    H272063   1.868   4.750  11.786  0.5999  0.5946  0.9116
16858TIP3   OH272064   2.985   5.397  12.473 -0.2460 -0.0349  0.0795
16858TIP3    H172065   3.027   5.330  12.526 -0.0658 -0.4355 -0.5526
16858TIP3    H272066   2.910   5.426  12.525  0.8435  0.7611  1.2639
16859TIP3   OH272067   0.070   2.957   3.094  0.2260  0.7803  0.1382
16859TIP3    H172068   0.106   2.897   3.161 -0.8832 -2.1097 -1.6466
16859TIP3    H272069  -0.020   2.973   3.122  0.2520  0.8810  0.1634
16860TIP3   OH272070   3.711   2.630   3.364 -0.0214  0.5880  0.4885
16860TIP3    H172071   3.618   2.638   3.385 -0.1024  0.5194  0.1535
16860TIP3    H272072   3.716   2.560   3.300  0.4028 -0.2784  1.4466
16861TIP3   OH272073   0.992   3.656   3.358  0.3578  0.6713 -0.5759
16861TIP3    H172074   1.074   3.682   3.316  0.4229  0.9126 -0.3023
16861TIP3    H272075   0.980   3.564   3.334  0.9840  0.4828 -0.1722
16862TIP3   OH272076   5.467   1.783  15.642  0.0669  0.2690  0.1522
16862TIP3    H172077   5.397   1.838  15.607  0.4845  3.2977  3.5520
16862TIP3    H272078   5.424   1.699  15.660 -2.4449  1.6337  1.0044
16863TIP3   OH272079   4.506   4.293  11.639 -0.2113 -0.4884 -0.2347
16863TIP3    H172080   4.588   4.245  11.648 -0.2149 -0.5196 -0.3633
16863TIP3    H272081   4.522   4.377  11.682 -0.2373 -0.6440  0.0788
16864TIP3   OH272082   0.581   2.037   0.604  0.2575 -0.8521  0.6168
16864TIP3    H172083   0.570   2.055   0.698  1.6146  1.8119  0.3358
16864TIP3    H272084   0.491   2.032   0.571 -0.2344  0.0778  1.7345
16865TIP3   OH272085   3.311   5.802  13.085 -0.2351  0.4906 -0.4451
16865TIP3    H172086   3.304   5.800  12.989 -0.6896  0.2697 -0.4063
16865TIP3    H272087   3.223   5.784  13.116  0.0018  0.1158  0.0240
16866TIP3   OH272088   4.720   5.904   3.112  0.4928  0.4650  0.2329
16866TIP3    H172089   4.650   5.953   3.070  2.5337  1.4267 -2.2672
16866TIP3    H272090   4.786   5.969   3.135  1.6734 -0.6602  0.1995
16867TIP3   OH272091   6.158   6.446  15.334  0.1610 -0.5290 -0.0103
16867TIP3    H172092   6.170   6.534  15.369  0.4594 -1.2733  1.8890
16867TIP3    H272093   6.064   6.438  15.318  0.1790  0.2399 -0.5607
16868TIP3   OH272094   5.061   5.767   5.411 -0.1359  0.2531 -0.3827
16868TIP3    H172095   5.060   5.826   5.486  0.4012  1.4166 -1.2656
16868TIP3    H272096   5.010   5.812   5.344 -1.2227 -1.1004 -0.5018
16869TIP3   OH272097   6.116   0.397   2.744 -0.3076  0.5601 -0.2284
16869TIP3    H172098   6.126   0.436   2.831 -1.4033  2.0888 -0.7352
16869TIP3    H272099   6.053   0.326   2.757 -2.1516  2.1380 -0.0834
16870TIP3   OH272100   3.879   4.261   3.986  0.2454 -0.1321  0.3832
16870TIP3    H172101   3.791   4.298   3.971 -0.4670 -1.9416 -0.1822
16870TIP3    H272102   3.887   4.192   3.920  2.3598  0.3721  0.0385
16871TIP3   OH272103   2.742   3.060  11.051  0.0978 -0.5847  0.6966
16871TIP3    H172104   2.774   2.977  11.015  1.4636 -0.1393  0.8215
16871TIP3    H272105   2.708   3.108  10.975 -2.0006 -1.7825  0.8145
16872TIP3   OH272106   5.724   1.665   3.581  0.0240 -0.1709 -0.1524
16872TIP3    H172107   5.799   1.722   3.597 -0.0843  0.5114 -1.8419
16872TIP3    H272108   5.648   1.717   3.610  0.0478 -0.1334 -0.1580
16873TIP3   OH272109   4.046   1.131  11.705 -0.4657  0.3074  0.5238
16873TIP3    H172110   4.053   1.223  11.731  1.5561  0.4949 -0.4929
16873TIP3    H272111   3.985   1.131  11.632 -0.1525  0.9124  0.2545
16874TIP3   OH272112   5.486   6.033   5.807 -0.4088 -0.0747  0.2348
16874TIP3    H172113   5.451   5.950   5.776 -0.2519 -0.2071  0.4142
16874TIP3    H272114   5.409   6.082   5.837 -0.5595  0.0468 -0.3414
16875TIP3   OH272115   3.591   3.737  11.806 -0.3378  0.1042  0.5630
16875TIP3    H172116   3.569   3.674  11.737 -0.0806 -0.1372  0.6979
16875TIP3    H272117   3.513   3.792  11.813 -0.3570  0.1473  0.0656
16876TIP3   OH272118   5.717   4.228   1.986 -0.4275 -0.1637  0.0889
16876TIP3    H172119   5.697   4.295   1.920 -1.5182 -0.3038  0.2692
16876TIP3    H272120   5.727   4.278   2.068 -1.8442 -0.2677  0.3402
16877TIP3   OH272121   3.945   0.225   4.690 -0.1055 -0.8034 -0.4960
16877TIP3    H172122   3.882   0.268   4.632 -0.5257 -1.2539 -0.3887
16877TIP3    H272123   3.890   0.182   4.756  0.3274 -1.0267 -0.2791
16878TIP3   OH272124   3.851   6.722   5.833 -0.1121 -0.5610  1.0127
16878TIP3    H172125   3.855   6.799   5.776  1.0932 -1.9439 -0.8692
16878TIP3    H272126   3.899   6.748   5.912 -0.4599  0.8701  0.7863
16879TIP3   OH272127   2.364   6.798   4.705  0.2637 -0.3557  0.5167
16879TIP3    H172128   2.314   6.738   4.650 -0.6867  0.9864 -0.1096
16879TIP3    H272129   2.432   6.833   4.647  0.3322 -0.2364  0.6673
16880TIP3   OH272130   3.155   0.963  16.065 -0.3024 -0.5237 -0.1707
16880TIP3    H172131   3.144   1.051  16.030 -0.2222  0.3711  1.8931
16880TIP3    H272132   3.069   0.939  16.099 -0.6866 -1.8638 -1.9285
16881TIP3   OH272133   3.422   4.306   4.844 -0.0911  0.7644  0.0559
16881TIP3    H172134   3.407   4.275   4.755 -0.4166 -0.4949  0.5180
16881TIP3    H272135   3.335   4.310   4.884  0.2020 -0.7344  0.9319
16882TIP3   OH272136   0.232   3.147   2.307 -0.1984 -0.6090 -0.9615
16882TIP3    H172137   0.254   3.071   2.360  3.9441 -0.2811 -1.9029
16882TIP3    H272138   0.206   3.111   2.222  0.2565 -1.0145 -0.9289
16883TIP3   OH272139   1.577   2.915  13.780  0.0177  0.0349 -0.6331
16883TIP3    H172140   1.657   2.892  13.826  0.1808 -2.5874 -2.0276
16883TIP3    H272141   1.519   2.841  13.794 -2.2622  1.8711  0.3720
16884TIP3   OH272142   3.533   5.623   5.752 -0.5115 -0.3003 -0.0122
16884TIP3    H172143   3.443   5.653   5.760  0.0732  1.1801  1.7866
16884TIP3    H272144   3.581   5.672   5.819  1.2008 -2.7719  0.7307
16885TIP3   OH272145   5.793   3.366   6.603 -0.5347 -0.3056 -0.2330
16885TIP3    H172146   5.811   3.458   6.582  2.9250 -0.8127 -0.1998
16885TIP3    H272147   5.764   3.367   6.694  1.4403  0.7174  0.4531
16886TIP3   OH272148   5.757   4.485   3.355  0.0469  0.2707  0.8207
16886TIP3    H172149   5.702   4.563   3.346 -1.2343 -0.4253  2.1143
16886TIP3    H272150   5.725   4.443   3.435  0.6762 -1.6060  0.1341
16887TIP3   OH272151   1.557   1.032   2.491 -0.1205 -0.2898 -0.3388
16887TIP3    H172152   1.604   1.050   2.410 -1.1537  4.7562 -0.1182
16887TIP3    H272153   1.618   1.059   2.560 -0.7083 -0.7433  0.3699
16888TIP3   OH272154   3.025   2.938  12.913  0.0088 -0.1437  0.1199
16888TIP3    H172155   3.082   3.014  12.924  0.4764 -0.7640  2.5023
16888TIP3    H272156   2.937   2.971  12.931 -0.4869  0.7630 -3.3350
16889TIP3   OH272157   3.873   4.805   2.571  0.7345 -0.0420 -0.0558
16889TIP3    H172158   3.861   4.847   2.656 -0.4678 -1.1381  0.3507
16889TIP3    H272159   3.930   4.864   2.522 -1.5240  2.4741  0.1759
16890TIP3   OH272160   0.771   0.818   1.483 -0.0437 -0.6877 -0.2053
16890TIP3    H172161   0.843   0.880   1.473 -1.4227  1.1614  0.7980
16890TIP3    H272162   0.791   0.770   1.563  0.3739 -0.6579 -0.2903
16891TIP3   OH272163   1.304   0.423   2.260 -0.2195  0.9907 -0.1320
16891TIP3    H172164   1.240   0.352   2.260  1.5580 -0.6766  1.2939
16891TIP3    H272165   1.339   0.423   2.171 -0.2639  0.0984 -0.1588
16892TIP3   OH272166   5.109   2.434  16.996 -0.2650  0.3883  0.1399
16892TIP3    H172167   5.089   2.370  17.065  2.9538  1.2642  2.1275
16892TIP3    H272168   5.029   2.485  16.988 -1.3078 -0.7827  2.1177
16893TIP3   OH272169   5.513   6.590  16.607  0.7644  0.0503 -1.0992
16893TIP3    H172170   5.578   6.520  16.611 -0.1438 -0.7913 -0.4952
16893TIP3    H272171   5.509   6.624  16.696 -0.1609 -0.4430 -0.9354
16894TIP3   OH272172   4.289   3.426  15.167  0.8821  0.1206 -0.1809
16894TIP3    H172173   4.258   3.377  15.090  1.0936 -0.7708  0.2826
16894TIP3    H272174   4.226   3.405  15.235  1.2723  0.0614  0.1670
16895TIP3   OH272175   5.538   1.001   4.263  0.2058  0.1833 -0.4410
16895TIP3    H172176   5.594   1.008   4.185 -0.4248  0.8549 -0.8477
16895TIP3    H272177   5.449   1.007   4.229 -0.0522  1.8379  0.4652
16896TIP3   OH272178   5.006   1.148  13.368  0.4614 -0.5717 -0.7690
16896TIP3    H172179   5.038   1.059  13.380 -1.2847 -1.2059 -0.5290
16896TIP3    H272180   5.007   1.161  13.273  1.3543 -0.5816 -0.7710
16897TIP3   OH272181   6.409   5.304   4.946 -0.4626 -0.1065 -0.0444
16897TIP3    H172182   6.438   5.358   5.020 -1.7947  0.5381  0.0362
16897TIP3    H272183   6.357   5.234   4.986 -0.5744 -0.1785 -0.3097
16898TIP3   OH272184   3.643   0.647  12.530  0.2210  0.1570  0.9390
16898TIP3    H172185   3.708   0.621  12.595 -0.8805 -1.3507  1.5263
16898TIP3    H272186   3.560   0.645  12.578 -0.5739 -0.5866 -0.4013
16899TIP3   OH272187   1.419   3.733   4.150 -0.1343  0.0658 -0.4693
16899TIP3    H172188   1.359   3.764   4.082 -0.1878 -0.2266 -0.5584
16899TIP3    H272189   1.499   3.711   4.103 -0.3994 -0.7903 -0.5472
16900TIP3   OH272190   6.421   1.622   0.065 -0.0611 -0.2573  0.8152
16900TIP3    H172191   6.504   1.592   0.102 -0.0492  0.7448  1.6662
16900TIP3    H272192   6.382   1.544   0.027  0.6777 -1.0106  1.5558
16901TIP3   OH272193   5.588   0.113  11.814 -0.1470 -0.2802  0.5497
16901TIP3    H172194   5.579   0.111  11.719 -2.2124  1.4247  0.6442
16901TIP3    H272195   5.507   0.153  11.846  1.7576  2.1528  2.8169
16902TIP3   OH272196   4.407   1.517  11.095 -0.1279 -0.2030 -0.7493
16902TIP3    H172197   4.448   1.574  11.030 -0.4846 -0.2943 -1.0568
16902TIP3    H272198   4.391   1.435  11.049 -0.5465 -0.2092 -0.5961
16903TIP3   OH272199   1.670   6.197  13.994  0.0847 -0.0018 -0.1937
16903TIP3    H172200   1.722   6.130  14.039 -0.6574  0.9422  2.2522
16903TIP3    H272201   1.726   6.228  13.924  1.7579 -0.8594  0.7045
16904TIP3   OH272202   2.332   3.118   0.184 -0.0682 -0.0565 -0.1145
16904TIP3    H172203   2.285   3.110   0.267 -1.4402 -1.5643 -0.9804
16904TIP3    H272204   2.282   3.183   0.134 -1.1109 -1.4053 -0.9017
16905TIP3   OH272205   5.298   6.113   5.531 -1.2429 -0.2106  0.1908
16905TIP3    H172206   5.380   6.146   5.495 -0.9828 -2.2671 -1.2972
16905TIP3    H272207   5.232   6.175   5.502 -0.3400  1.0442  0.7405
16906TIP3   OH272208   3.732   5.394  13.489 -0.0985 -0.2908 -0.3844
16906TIP3    H172209   3.667   5.451  13.448  1.8652  1.0317 -1.8347
16906TIP3    H272210   3.684   5.315  13.512 -2.0665  0.3782 -1.9636
16907TIP3   OH272211   1.047   2.031  13.252  0.5525 -0.0248  0.0952
16907TIP3    H172212   0.964   2.012  13.296  1.3833 -0.7610  1.4078
16907TIP3    H272213   1.092   1.946  13.248  2.2935  0.7494  1.6978
16908TIP3   OH272214   0.995   1.765  11.830  0.4383 -0.1437 -0.0820
16908TIP3    H172215   1.023   1.696  11.769 -0.1520 -0.0015 -0.5346
16908TIP3    H272216   1.019   1.732  11.916  5.9600  1.7697 -0.5120
16909TIP3   OH272217   0.002   5.578  12.668 -0.5043  0.5346  0.1243
16909TIP3    H172218  -0.013   5.506  12.729 -1.5480 -1.6800 -2.5332
16909TIP3    H272219  -0.084   5.594  12.629  0.4252  0.4820 -2.1080
16910TIP3   OH272220   0.828   1.758  16.946  0.2057  0.2131 -0.3115
16910TIP3    H172221   0.919   1.758  16.918 -0.5550  0.5643 -2.9988
16910TIP3    H272222   0.833   1.763  17.042  2.9964 -1.6873 -0.2301
16911TIP3   OH272223   1.714   4.769   3.423  0.6527  0.3623 -0.4544
16911TIP3    H172224   1.756   4.776   3.508  2.3123 -0.6308 -1.1397
16911TIP3    H272225   1.772   4.815   3.363  1.4400 -1.9523 -1.6185
16912TIP3   OH272226   4.085   4.738  14.870  0.6948  0.0704 -0.4966
16912TIP3    H172227   4.015   4.802  14.855  0.5841  0.1643  0.3965
16912TIP3    H272228   4.121   4.760  14.955  1.9461  0.1287 -1.0162
16913TIP3   OH272229   0.299   5.111  12.973  0.4530 -0.1812  0.0893
16913TIP3    H172230   0.360   5.074  13.037  0.0477 -0.6050  0.2430
16913TIP3    H272231   0.257   5.183  13.020 -1.1137 -1.5791  0.9446
16914TIP3   OH272232   3.249   4.563  17.066 -0.0954  0.4688 -0.0717
16914TIP3    H172233   3.293   4.647  17.053  1.5881 -0.5253 -1.2425
16914TIP3    H272234   3.234   4.530  16.978  2.3087 -1.9068  0.2700
16915TIP3   OH272235   3.448   2.088   2.803  0.3046  0.4052  0.3471
16915TIP3    H172236   3.453   2.031   2.880 -0.6197  1.3944  1.1741
16915TIP3    H272237   3.407   2.168   2.836 -0.3704  0.7418 -1.2359
16916TIP3   OH272238   1.365   6.824  14.463 -0.1358 -0.2611  0.1484
16916TIP3    H172239   1.330   6.737  14.445 -0.3897 -0.3062  0.8419
16916TIP3    H272240   1.453   6.808  14.496 -0.9180 -0.4132  2.3206
16917TIP3   OH272241   1.223   3.060  15.875 -0.1792  0.2529 -0.1105
16917TIP3    H172242   1.161   3.133  15.876  0.0799  0.4734  1.0335
16917TIP3    H272243   1.247   3.051  15.783 -2.1403 -0.0638 -0.6321
16918TIP3   OH272244   2.958   2.049   3.533  0.0721  0.0539  0.0916
16918TIP3    H172245   3.041   2.081   3.497  0.4517 -0.9810  0.0253
16918TIP3    H272246   2.912   2.128   3.560  0.6819  0.7029 -0.7297
16919TIP3   OH272247   4.264   5.688  13.723  0.2412  0.0623 -0.0130
16919TIP3    H172248   4.344   5.712  13.770 -0.2418  0.0429  0.8365
16919TIP3    H272249   4.213   5.769  13.721  0.5568  0.2477 -1.1372
16920TIP3   OH272250   4.620   1.982   0.307  0.1584  0.0988 -0.5000
16920TIP3    H172251   4.537   2.005   0.349  0.5896 -2.0712  1.7140
16920TIP3    H272252   4.596   1.912   0.246  0.2736  0.0229 -0.4554
16921TIP3   OH272253   3.756   2.459   6.031 -0.2983 -0.6736  0.3601
16921TIP3    H172254   3.772   2.428   6.120  0.3187  2.2667  1.3808
16921TIP3    H272255   3.675   2.510   6.037  0.2267  0.3080 -0.5465
16922TIP3   OH272256   3.963   3.564  11.749 -0.2411 -0.1922 -0.0704
16922TIP3    H172257   3.950   3.558  11.844 -0.2346  1.4217  0.0607
16922TIP3    H272258   4.051   3.527  11.735  0.0929  0.2975  0.6623
16923TIP3   OH272259   2.172   0.814  16.029 -0.2001 -0.4093  0.2154
16923TIP3    H172260   2.166   0.824  15.934 -1.7247  0.3304  0.3520
16923TIP3    H272261   2.081   0.800  16.057 -0.0705  1.5517  1.7934
16924TIP3   OH272262   5.807   4.021   3.595  0.2840 -0.2985 -0.4167
16924TIP3    H172263   5.888   3.970   3.595  0.9745  0.6865  1.3700
16924TIP3    H272264   5.827   4.100   3.545 -0.2119 -0.8957 -1.6072
16925TIP3   OH272265   0.021   1.639  13.795  0.2495 -0.4365  0.0162
16925TIP3    H172266   0.101   1.598  13.827 -0.3011 -0.2238  1.7645
16925TIP3    H272267   0.043   1.731  13.786  0.3922 -0.4864 -0.1363
16926TIP3   OH272268   4.262   0.934   4.447  0.1506  0.3919 -0.0162
16926TIP3    H172269   4.305   0.906   4.528 -1.5853  0.8237  1.1173
16926TIP3    H272270   4.169   0.919   4.463 -0.4158  2.2914 -1.1941
16927TIP3   OH272271   5.739   1.384   5.401  0.2553 -0.1418 -0.0024
16927TIP3    H172272   5.810   1.427   5.448 -0.2278  0.1570  0.4765
16927TIP3    H272273   5.662   1.396   5.458 -0.6846  1.5158 -1.5438
16928TIP3   OH272274   1.558   1.517   2.546  0.2339 -0.1320 -0.1480
16928TIP3    H172275   1.571   1.576   2.472 -0.3078  0.6210  0.3444
16928TIP3    H272276   1.495   1.453   2.515  0.0536  0.1463 -0.3611
16929TIP3   OH272277   3.970   3.965   4.526  0.6089 -0.2645  0.0332
16929TIP3    H172278   3.945   3.993   4.614 -1.7762 -3.3550  0.4924
16929TIP3    H272279   3.907   4.007   4.468  1.4087  0.7829 -0.1001
16930TIP3   OH272280   1.650   2.572   2.313  0.2151  0.0942  0.0498
16930TIP3    H172281   1.569   2.561   2.264 -0.0048  2.0298 -0.1174
16930TIP3    H272282   1.622   2.585   2.404  0.3948 -0.1283  0.1376
16931TIP3   OH272283   1.732   5.822  15.739  0.1669 -0.1377 -0.6343
16931TIP3    H172284   1.775   5.827  15.825  1.5811  0.1288 -1.3183
16931TIP3    H272285   1.652   5.772  15.755  0.6907 -0.5937  0.7297
16932TIP3   OH272286   6.062   5.692  15.939  0.4848 -0.1483  0.1657
16932TIP3    H172287   6.027   5.643  16.014 -0.0822  0.7005  0.4719
16932TIP3    H272288   6.123   5.632  15.897  1.2322 -0.4321  1.6323
16933TIP3   OH272289   5.545   6.238  14.299  0.3017 -0.6233  0.5264
16933TIP3    H172290   5.505   6.311  14.253 -0.6031 -0.1155  2.0280
16933TIP3    H272291   5.620   6.276  14.345  0.8707 -1.0089 -0.0613
16934TIP3   OH272292   4.164   4.480  14.897  0.2889 -0.7182  0.1097
16934TIP3    H172293   4.124   4.565  14.879  2.3667  0.7265  1.8131
16934TIP3    H272294   4.121   4.420  14.836 -2.3172  1.2278 -0.1504
16935TIP3   OH272295   6.057   4.278  12.357 -0.0362 -0.1026 -0.3049
16935TIP3    H172296   6.079   4.195  12.314  1.9305  0.7067 -0.9456
16935TIP3    H272297   6.085   4.266  12.448 -1.0535 -0.6153 -0.0480
16936TIP3   OH272298   4.690   0.558  13.222  0.2120 -0.7274 -0.5230
16936TIP3    H172299   4.678   0.465  13.241  0.9540 -0.8821 -0.7868
16936TIP3    H272300   4.684   0.564  13.127  0.4966 -0.5624 -0.5326
16937TIP3   OH272301   3.326   2.204  17.069  0.1437  0.3880  0.5546
16937TIP3    H172302   3.386   2.143  17.026 -1.7001 -0.8577 -0.3987
16937TIP3    H272303   3.348   2.289  17.032 -1.1591 -0.5606 -2.8409
16938TIP3   OH272304   5.656   3.869  15.015 -0.8456  0.2997 -0.4669
16938TIP3    H172305   5.712   3.855  14.939  0.3088 -0.1838  0.4279
16938TIP3    H272306   5.583   3.808  15.004  0.2705 -1.1141 -0.2958
16939TIP3   OH272307   6.700   5.644  13.192 -0.1824 -0.0115 -0.7439
16939TIP3    H172308   6.641   5.676  13.124 -1.2646  0.0830  0.2050
16939TIP3    H272309   6.704   5.716  13.255 -0.5037 -0.7117  0.0884
16940TIP3   OH272310   2.832   0.489   5.725  0.2219  0.1811 -0.3057
16940TIP3    H172311   2.896   0.418   5.734 -0.7038 -0.7312 -0.7563
16940TIP3    H272312   2.812   0.491   5.632 -1.0700 -0.1542 -0.0522
16941TIP3   OH272313   2.915   5.918  14.554  0.0185  0.2758 -0.5055
16941TIP3    H172314   2.970   5.872  14.618 -2.6996 -3.0049 -0.2695
16941TIP3    H272315   2.843   5.954  14.606 -2.0685 -2.1776 -1.4881
16942TIP3   OH272316   6.062   4.427  16.189 -0.3494 -0.0170  0.3935
16942TIP3    H172317   6.113   4.507  16.181  0.0763 -0.2565  0.6917
16942TIP3    H272318   6.115   4.360  16.145 -0.9932 -0.0153 -0.4223
16943TIP3   OH272319   2.137   5.758   1.290  0.2745 -0.3378  0.0191
16943TIP3    H172320   2.169   5.752   1.200  1.9893  0.9929  0.4835
16943TIP3    H272321   2.201   5.709   1.342  0.7372  1.0298  0.7902
16944TIP3   OH272322   6.721   3.932   3.102  0.3544  0.3748  0.4345
16944TIP3    H172323   6.740   3.907   3.012 -1.8114 -0.6983  0.2384
16944TIP3    H272324   6.792   3.892   3.153  2.1759  1.8205 -0.8194
16945TIP3   OH272325   5.002   3.235  13.274 -0.3484 -0.8257 -0.0739
16945TIP3    H172326   4.960   3.186  13.345 -1.6319  0.6663  0.2431
16945TIP3    H272327   4.932   3.290  13.237  1.3270  2.0954  0.7615
16946TIP3   OH272328   2.660   3.073   6.267  0.3053  0.0988 -0.2006
16946TIP3    H172329   2.585   3.038   6.218  1.3223  0.1511 -1.8687
16946TIP3    H272330   2.737   3.045   6.217  1.2659  2.7280 -0.3476
16947TIP3   OH272331   4.782   0.576   0.444 -0.4412  0.0974 -0.1124
16947TIP3    H172332   4.798   0.666   0.414 -0.8017 -0.4080 -1.8805
16947TIP3    H272333   4.816   0.576   0.534  2.0035  1.3022 -0.9318
16948TIP3   OH272334   2.023   3.070   5.445  0.3811 -0.6150 -1.1944
16948TIP3    H172335   1.989   3.106   5.527  0.0734 -0.5668 -1.3443
16948TIP3    H272336   2.016   2.975   5.455 -0.7669 -0.5882 -1.6351
16949TIP3   OH272337   5.433   5.289  12.134  0.3574 -0.0804 -0.3825
16949TIP3    H172338   5.369   5.249  12.193 -0.6464  2.9741  0.7846
16949TIP3    H272339   5.510   5.303  12.189  0.1805  0.8341 -0.3533
16950TIP3   OH272340   4.129   3.001   5.602 -0.0227 -0.0662 -0.5264
16950TIP3    H172341   4.124   3.084   5.555  0.6311  1.2920  1.6280
16950TIP3    H272342   4.080   3.016   5.683  1.8821 -1.0305  0.8840
16951TIP3   OH272343   6.495   2.740  12.382  0.2620  0.0915  0.1163
16951TIP3    H172344   6.574   2.754  12.329 -0.0125 -0.8023 -0.5745
16951TIP3    H272345   6.425   2.732  12.317  0.0130 -1.6902  0.5582
16952TIP3   OH272346   0.363   6.026   3.071 -0.0633 -0.4563 -0.0371
16952TIP3    H172347   0.365   6.122   3.071 -1.4692 -0.3566 -1.9098
16952TIP3    H272348   0.395   6.002   2.984  0.8964 -1.7436  0.6438
16953TIP3   OH272349   4.929   5.991  11.324  0.1732 -0.2024 -0.0276
16953TIP3    H172350   4.951   6.085  11.327 -0.6841  0.0268 -0.6370
16953TIP3    H272351   4.841   5.986  11.359 -0.1233 -0.6655 -0.8243
16954TIP3   OH272352   2.853   1.657  13.433 -0.1676 -0.3227  0.1576
16954TIP3    H172353   2.776   1.666  13.378  0.4645  0.0356 -0.6931
16954TIP3    H272354   2.923   1.699  13.383  0.3350  0.4067  1.4182
16955TIP3   OH272355   6.322   3.974  11.240  0.0139 -0.1335 -0.0489
16955TIP3    H172356   6.411   4.001  11.264 -0.0448  0.2495 -0.2590
16955TIP3    H272357   6.311   4.005  11.150 -0.6085  0.4985  0.2362
16956TIP3   OH272358   6.795   6.607  16.274  0.3010 -0.0330 -0.0025
16956TIP3    H172359   6.870   6.572  16.323  2.1070  2.3182 -0.8401
16956TIP3    H272360   6.774   6.689  16.319 -1.5667 -0.4670 -0.0311
16957TIP3   OH272361   6.761   4.109   3.377  0.3800  0.2522 -0.3064
16957TIP3    H172362   6.754   4.204   3.367 -1.1358  0.0539 -1.6119
16957TIP3    H272363   6.757   4.075   3.287 -0.4700 -1.1047  0.2042
16958TIP3   OH272364   5.064   2.673  16.657 -0.4881  0.4201  0.4860
16958TIP3    H172365   5.092   2.715  16.576 -1.6874 -0.0544 -0.1945
16958TIP3    H272366   5.144   2.634  16.693 -0.0747 -0.0516 -0.8741
16959TIP3   OH272367   6.185   2.334   1.592 -0.1218  0.1126 -0.2875
16959TIP3    H172368   6.134   2.303   1.667 -1.5062  0.8171 -0.9101
16959TIP3    H272369   6.123   2.334   1.519  0.7489  1.0903 -1.0559
16960TIP3   OH272370   5.744   6.746  17.189  0.6611 -0.2672 -0.1545
16960TIP3    H172371   5.650   6.731  17.202  0.9620 -0.7683  1.7597
16960TIP3    H272372   5.762   6.709  17.102 -0.4415 -2.4996  0.4814
16961TIP3   OH272373   1.234   3.957  12.656  0.1295  0.2393  0.4324
16961TIP3    H172374   1.233   3.924  12.745  2.1912 -0.7567  0.1509
16961TIP3    H272375   1.326   3.974  12.638 -0.1979  0.1289 -1.5923
16962TIP3   OH272376   2.925   1.947  10.948 -1.0961  0.6387 -0.0016
16962TIP3    H172377   2.873   1.884  10.999 -2.1482  0.0127 -1.7446
16962TIP3    H272378   2.910   2.031  10.991 -0.6079 -0.0937  1.6868
16963TIP3   OH272379   5.733   6.031  12.546  0.4293 -0.5986  0.1926
16963TIP3    H172380   5.753   5.999  12.458  2.0318  1.6187 -0.3452
16963TIP3    H272381   5.818   6.036  12.590  0.0802  1.2296  0.7597
16964TIP3   OH272382   2.916   0.988  11.443  0.3825  0.2359 -0.1080
16964TIP3    H172383   3.011   0.994  11.435  0.5288  0.2675  1.3345
16964TIP3    H272384   2.891   1.065  11.494 -0.7209  1.4101 -2.2524
16965TIP3   OH272385   0.378   6.626  10.930  0.2952  0.0035  0.6711
16965TIP3    H172386   0.456   6.618  10.875 -1.2087 -3.2544 -1.2532
16965TIP3    H272387   0.404   6.590  11.015  0.6153 -2.3347 -0.3581
16966TIP3   OH272388   1.387   2.754  14.820 -0.5659 -0.3356 -0.0333
16966TIP3    H172389   1.410   2.731  14.910  2.0670 -0.3638 -0.6280
16966TIP3    H272390   1.375   2.670  14.776 -0.2760 -0.3769 -0.0411
16967TIP3   OH272391   6.806   2.912  16.644  0.2456  0.0895  0.0420
16967TIP3    H172392   6.807   2.822  16.676 -1.0153  0.2415  0.5584
16967TIP3    H272393   6.897   2.930  16.620  0.5901 -1.1711  0.3416
16968TIP3   OH272394   1.189   5.735  13.887 -0.0817  0.1201  0.2210
16968TIP3    H172395   1.197   5.740  13.983  0.4744  0.9814  0.1399
16968TIP3    H272396   1.116   5.793  13.866  0.5497  0.8630  0.0333
16969TIP3   OH272397   5.841   1.884   6.114  0.2983 -0.1196 -0.1530
16969TIP3    H172398   5.860   1.828   6.039  1.6497  0.6563 -0.4302
16969TIP3    H272399   5.925   1.889   6.161 -0.3798 -0.1509  1.1104
16970TIP3   OH272400   6.645   1.969  15.023  0.1593  0.1259  0.3994
16970TIP3    H172401   6.718   2.029  15.007 -1.3233  2.1333  0.6554
16970TIP3    H272402   6.625   1.931  14.937 -1.0164  2.7066 -0.5808
16971TIP3   OH272403   0.035   5.745  13.482  0.5769 -0.0004 -0.1111
16971TIP3    H172404  -0.021   5.810  13.440 -0.2096 -0.7822 -0.3141
16971TIP3    H272405   0.037   5.770  13.574  1.6710  1.2777 -0.4560
16972TIP3   OH272406   0.208   2.575   6.203 -0.2764  0.0312 -0.2832
16972TIP3    H172407   0.220   2.513   6.131 -0.5712 -2.3871  1.5994
16972TIP3    H272408   0.114   2.572   6.221 -0.1736  0.4478  0.3447
16973TIP3   OH272409   0.743   4.477  13.962 -0.0286  0.8304 -0.5911
16973TIP3    H172410   0.736   4.572  13.954  0.3684  0.7848 -1.4934
16973TIP3    H272411   0.731   4.460  14.056  1.0273  1.8578 -0.2514
16974TIP3   OH272412   3.604   1.069  16.716 -0.1798  0.2208  0.3818
16974TIP3    H172413   3.525   1.115  16.747 -0.9223 -1.0577  0.4502
16974TIP3    H272414   3.639   1.026  16.794 -0.8622 -1.2814 -0.1057
16975TIP3   OH272415   6.249   4.234   1.809 -0.2165 -0.3852 -0.1074
16975TIP3    H172416   6.154   4.225   1.820 -0.1029 -0.9981  0.4640
16975TIP3    H272417   6.271   4.177   1.736 -0.2512 -0.4605 -0.0589
16976TIP3   OH272418   6.222   1.967   1.778 -0.1580 -0.3509  0.1412
16976TIP3    H172419   6.235   2.008   1.693  0.1873 -1.0048 -0.1341
16976TIP3    H272420   6.173   2.031   1.829 -0.0681  0.1867 -0.4365
16977TIP3   OH272421   5.760   0.114  14.844 -0.1967 -0.3814 -0.6535
16977TIP3    H172422   5.780   0.033  14.891  0.3395 -0.4124 -0.9250
16977TIP3    H272423   5.801   0.182  14.897 -0.6747 -0.2843 -0.4076
16978TIP3   OH272424   0.268   1.647   0.339  0.2153 -0.3121 -0.2066
16978TIP3    H172425   0.189   1.700   0.351 -0.4641 -0.5188 -2.9001
16978TIP3    H272426   0.336   1.693   0.388 -1.1168  1.0875  0.4158
16979TIP3   OH272427   4.599   5.718  16.525  0.5781  0.1087  0.0099
16979TIP3    H172428   4.683   5.760  16.543  1.0385 -1.0665  0.6910
16979TIP3    H272429   4.545   5.739  16.602  0.2887  0.7187 -0.3506
16980TIP3   OH272430   3.194   4.797  11.221  0.3007 -0.5094  0.0886
16980TIP3    H172431   3.215   4.864  11.156 -1.3934  0.5291  0.5350
16980TIP3    H272432   3.171   4.720  11.169 -2.8010  0.8192 -0.7428
16981TIP3   OH272433   1.435   0.542  15.447 -0.6566 -0.3088  1.0604
16981TIP3    H172434   1.467   0.453  15.463  0.6657 -0.1664 -0.5498
16981TIP3    H272435   1.342   0.539  15.469 -0.2929 -1.6592  2.5670
16982TIP3   OH272436   1.882   0.392  16.862 -0.0013  0.0908 -0.2953
16982TIP3    H172437   1.893   0.306  16.902 -1.6361  0.0225  0.0543
16982TIP3    H272438   1.884   0.375  16.768 -0.0513 -0.2967 -0.2302
16983TIP3   OH272439   0.807   0.809   1.983 -0.6317  0.0796 -0.8438
16983TIP3    H172440   0.818   0.761   1.901  0.0099 -0.8668 -0.2203
16983TIP3    H272441   0.894   0.812   2.022 -1.0265 -0.0015  0.0790
16984TIP3   OH272442   3.866   4.209   0.180  0.1617 -0.0464 -0.3084
16984TIP3    H172443   3.773   4.197   0.198  0.0056 -0.4943 -1.3479
16984TIP3    H272444   3.907   4.126   0.204  0.1827 -0.0941 -0.5026
16985TIP3   OH272445   2.499   6.466   3.959  0.1481  0.2361  0.2363
16985TIP3    H172446   2.452   6.440   3.880  1.6284  0.1270 -0.6439
16985TIP3    H272447   2.585   6.425   3.951  0.7659  1.2390  1.3027
16986TIP3   OH272448   4.264   2.176   0.547 -0.1513 -0.3773  0.1188
16986TIP3    H172449   4.268   2.252   0.490  0.2560  0.2344  0.9371
16986TIP3    H272450   4.170   2.163   0.563 -0.2413 -0.3049 -0.3586
16987TIP3   OH272451   5.111   6.273  11.863  0.6117 -0.0012  0.1618
16987TIP3    H172452   5.205   6.256  11.874  0.6166  0.1078  0.2921
16987TIP3    H272453   5.106   6.329  11.786  0.4781 -1.7836 -1.1997
16988TIP3   OH272454   1.586   5.007   0.579 -0.4937  0.0183 -0.2999
16988TIP3    H172455   1.518   5.073   0.564  0.7028  1.1537 -0.9981
16988TIP3    H272456   1.665   5.044   0.538  1.2448  0.0338  2.6873
16989TIP3   OH272457   1.312   5.476  16.952  0.0109  0.2202  0.4104
16989TIP3    H172458   1.231   5.517  16.983 -0.8391  0.2322 -1.6486
16989TIP3    H272459   1.347   5.431  17.029 -1.0223  1.6346  1.7863
16990TIP3   OH272460   0.358   1.135  13.035 -0.6068  0.4145  0.7349
16990TIP3    H172461   0.265   1.116  13.017 -0.1230 -0.0865 -1.5527
16990TIP3    H272462   0.356   1.188  13.115 -2.6697 -1.7006  2.2650
16991TIP3   OH272463   1.398   1.398   1.149  0.1919  0.5475  0.0543
16991TIP3    H172464   1.489   1.415   1.126  0.2516  0.0263 -0.1017
16991TIP3    H272465   1.390   1.303   1.150  0.0173  0.5616  1.5272
16992TIP3   OH272466   0.744   5.605  11.187  0.0647  0.0300 -0.1148
16992TIP3    H172467   0.804   5.674  11.156  0.8695 -0.1061  1.0724
16992TIP3    H272468   0.714   5.636  11.272  0.1965 -0.9356  0.2956
16993TIP3   OH272469   2.156   2.363  15.023 -0.3182  0.1017 -0.7466
16993TIP3    H172470   2.163   2.353  15.118 -0.5142 -0.6676 -0.8101
16993TIP3    H272471   2.077   2.416  15.010 -1.1059 -0.9822 -0.5263
16994TIP3   OH272472   6.285   4.818  11.510  0.0702  0.0648 -0.8847
16994TIP3    H172473   6.370   4.838  11.549 -1.1393  2.7507  0.6759
16994TIP3    H272474   6.230   4.791  11.584 -1.3233  1.7738 -1.2192
16995TIP3   OH272475   4.426   6.562  16.067 -0.4300  0.2796  0.2838
16995TIP3    H172476   4.401   6.583  16.157  0.3655 -1.6682  1.0355
16995TIP3    H272477   4.521   6.570  16.066 -0.4121  0.0652 -0.3085
16996TIP3   OH272478   3.026   5.962   3.789 -0.1865  0.9496  0.2128
16996TIP3    H172479   3.083   5.940   3.716  1.2287 -2.2776  2.0347
16996TIP3    H272480   3.069   6.035   3.833  0.9431  0.5284 -0.1600
16997TIP3   OH272481   1.698   1.379  13.477 -0.8907  0.7817  0.2103
16997TIP3    H172482   1.703   1.309  13.412 -1.0925 -0.8607  1.9015
16997TIP3    H272483   1.705   1.460  13.425  0.1871 -0.4661 -1.7114
16998TIP3   OH272484   3.768   0.130   0.686 -0.2623  0.1070 -0.3751
16998TIP3    H172485   3.772   0.094   0.774  2.2713 -0.5353 -0.6756
16998TIP3    H272486   3.761   0.225   0.698 -1.6126 -0.0601  0.4448
16999TIP3   OH272487   5.698   3.377   5.359  0.2770 -0.3483  0.4565
16999TIP3    H172488   5.670   3.312   5.423 -0.3721 -0.7567 -0.2380
16999TIP3    H272489   5.641   3.364   5.284  1.2782 -0.1320 -0.3723
17000TIP3   OH272490   4.850   3.353   5.365 -0.1358 -0.3535 -0.7497
17000TIP3    H172491   4.872   3.261   5.353 -0.7020 -0.2783 -2.7544
17000TIP3    H272492   4.928   3.392   5.406 -0.1778 -1.8311  0.8313
17001TIP3   OH272493   1.307   3.824  12.896 -0.3772 -0.6432  0.1768
17001TIP3    H172494   1.378   3.865  12.944  0.8245  0.6745 -2.5013
17001TIP3    H272495   1.348   3.753  12.846 -1.2542 -0.9212 -0.1855
17002TIP3   OH272496   2.295   6.741   0.804 -0.0825  0.3269  0.7078
17002TIP3    H172497   2.297   6.661   0.857 -0.5941 -0.8870 -1.0043
17002TIP3    H272498   2.387   6.754   0.779 -0.1560 -0.4882 -0.0431
17003TIP3   OH272499   4.111   6.040   0.596  0.4337 -0.1439 -0.0452
17003TIP3    H172500   4.129   6.106   0.529  0.7805  0.3264  0.5030
17003TIP3    H272501   4.082   6.090   0.672  2.3383 -0.4477  0.9551
17004TIP3   OH272502   3.386   6.687  12.262 -0.4215 -0.3241  0.4520
17004TIP3    H172503   3.395   6.602  12.218  0.3549 -0.0010 -0.0348
17004TIP3    H272504   3.461   6.738  12.231 -1.2525  0.7787  0.1979
17005TIP3   OH272505   5.480   2.636  11.953  0.2636  0.0485 -0.1956
17005TIP3    H172506   5.562   2.657  11.997  0.6482 -1.4694 -0.1338
17005TIP3    H272507   5.412   2.668  12.012  0.7962  0.0223  0.4380
17006TIP3   OH272508   6.556   2.865  13.510  0.4663 -0.4728 -0.2540
17006TIP3    H172509   6.520   2.873  13.598  1.5836 -1.6702  0.3452
17006TIP3    H272510   6.649   2.889  13.520  0.3625  0.4955 -1.3447
17007TIP3   OH272511   5.186   2.822   4.985  0.0745  0.2940 -0.0867
17007TIP3    H172512   5.186   2.740   4.934  2.4397  0.0256  0.2608
17007TIP3    H272513   5.157   2.889   4.923  2.2361 -0.1425 -1.6658
17008TIP3   OH272514   4.076   1.289  16.630  0.1360  0.2125 -0.2839
17008TIP3    H172515   4.111   1.377  16.649 -0.9741  0.6950 -0.3994
17008TIP3    H272516   4.105   1.236  16.704  0.4379  0.7817  0.0194
17009TIP3   OH272517   1.913   3.388  12.389 -0.1903  0.0671 -0.0601
17009TIP3    H172518   1.851   3.455  12.417  0.4037  0.8813 -0.6617
17009TIP3    H272519   1.994   3.410  12.433 -0.4301 -1.3190  1.1709
17010TIP3   OH272520   3.867   0.659  12.148  0.0161 -0.4037  0.7447
17010TIP3    H172521   3.810   0.734  12.163 -0.3540 -0.5456  0.0768
17010TIP3    H272522   3.869   0.613  12.232 -0.6317 -0.2474  0.8460
17011TIP3   OH272523   1.953   6.511   0.695  0.0365  0.0060  0.6937
17011TIP3    H172524   1.972   6.604   0.707 -1.6172  0.4807 -0.1849
17011TIP3    H272525   1.867   6.498   0.735 -1.2088 -0.4218 -1.9416
17012TIP3   OH272526   5.982   3.951  11.964  0.0501 -0.0510  0.2008
17012TIP3    H172527   6.028   3.870  11.944 -1.9733 -1.2197  0.0350
17012TIP3    H272528   5.891   3.934  11.941 -0.2040  2.8261 -1.3410
17013TIP3   OH272529   0.109   5.421  11.603  0.8410  0.2719  0.5833
17013TIP3    H172530   0.030   5.383  11.641  0.6570 -0.8131 -0.7754
17013TIP3    H272531   0.080   5.504  11.565  0.0831 -0.6070 -0.8313
17014TIP3   OH272532   5.226   3.455   3.065 -0.3958 -0.2825  0.0003
17014TIP3    H172533   5.284   3.521   3.102  1.4467 -0.7395 -1.8757
17014TIP3    H272534   5.281   3.378   3.052 -2.3026 -2.0187  1.4374
17015TIP3   OH272535   3.889   4.589  15.890 -0.6269 -0.4061  0.4901
17015TIP3    H172536   3.940   4.664  15.860 -2.9329  0.6859 -0.9578
17015TIP3    H272537   3.863   4.544  15.810 -3.1413 -0.0361  1.0017
17016TIP3   OH272538   0.944   3.675   6.316 -0.0403  0.5338 -0.5787
17016TIP3    H172539   0.865   3.706   6.359  0.4527  0.4587  0.4119
17016TIP3    H272540   1.006   3.748   6.324 -0.4022  1.1179 -2.5258
17017TIP3   OH272541   3.981   5.294  14.531  0.3264  0.8988  0.3264
17017TIP3    H172542   3.982   5.254  14.444 -0.3825  2.3148 -0.3686
17017TIP3    H272543   3.891   5.287  14.560 -0.2151  3.3314 -0.5178
17018TIP3   OH272544   0.941   5.506  15.545 -0.0639 -0.4870  0.1882
17018TIP3    H172545   0.939   5.415  15.517 -2.5716 -0.1927 -0.8220
17018TIP3    H272546   0.961   5.502  15.638 -0.9612 -2.1424  0.3489
17019TIP3   OH272547   4.966   4.402  12.712  0.3487 -0.4787 -0.3833
17019TIP3    H172548   4.899   4.336  12.731 -0.4385  0.1012 -1.0723
17019TIP3    H272549   4.930   4.453  12.639 -0.0282  2.0072  1.3894
17020TIP3   OH272550   1.781   0.559  17.261 -0.1686  0.1921  0.4754
17020TIP3    H172551   1.845   0.621  17.296  1.9627 -1.0966 -0.9060
17020TIP3    H272552   1.770   0.585  17.169 -2.3647  0.9179  0.8931
17021TIP3   OH272553   6.441   2.703   6.634  0.1046 -0.8489  0.3718
17021TIP3    H172554   6.403   2.688   6.720 -0.2677 -0.8814  0.2013
17021TIP3    H272555   6.367   2.706   6.574  0.4202 -1.7347 -0.0789
17022TIP3   OH272556   5.800   1.750  16.873 -0.6913 -0.2799  0.1216
17022TIP3    H172557   5.861   1.678  16.888 -0.3674 -0.1231 -0.4067
17022TIP3    H272558   5.757   1.764  16.957 -0.8877 -1.2061  0.1816
17023TIP3   OH272559   1.193   5.817   2.938 -0.6114 -0.1278  0.2118
17023TIP3    H172560   1.113   5.767   2.949  0.1538 -1.4943 -0.2129
17023TIP3    H272561   1.179   5.868   2.858 -1.0352 -0.3831  0.1250
17024TIP3   OH272562   5.285   6.604   3.472  0.2376  0.5019 -0.3306
17024TIP3    H172563   5.201   6.642   3.448  1.1092  1.8649 -1.4126
17024TIP3    H272564   5.282   6.515   3.438 -0.7785  0.5246 -0.3148
17025TIP3   OH272565   2.367   2.665   1.645  0.2752  0.0417 -0.2998
17025TIP3    H172566   2.291   2.711   1.680  0.6684  0.0509  0.5779
17025TIP3    H272567   2.367   2.582   1.692  0.9368  0.1329 -0.1403
17026TIP3   OH272568   0.083   5.694   5.463 -0.5108  0.3125  0.7572
17026TIP3    H172569  -0.004   5.654   5.464 -0.1497 -0.4857  0.8805
17026TIP3    H272570   0.143   5.621   5.446 -0.0677  1.2360 -2.2472
17027TIP3   OH272571   6.234   6.011   4.588 -0.1076  0.4504 -0.0718
17027TIP3    H172572   6.204   6.013   4.497 -0.3340 -1.4831 -0.0756
17027TIP3    H272573   6.168   5.960   4.634 -0.5194  2.2082  1.4293
17028TIP3   OH272574   2.672   1.534  16.378  0.3369 -0.4264 -0.3781
17028TIP3    H172575   2.666   1.594  16.453  0.8240 -1.1550  0.2563
17028TIP3    H272576   2.642   1.586  16.304  2.5072  1.2406 -0.2004
17029TIP3   OH272577   3.908   0.357  12.677 -0.8432  0.0142  0.2631
17029TIP3    H172578   3.880   0.444  12.705  0.2686  0.6588 -0.5496
17029TIP3    H272579   3.973   0.331  12.741  0.3331  0.6892 -0.6203
17030TIP3   OH272580   4.045   5.793  11.360 -0.1300 -0.3102 -0.1677
17030TIP3    H172581   4.005   5.707  11.371  0.4490 -0.4399  1.0578
17030TIP3    H272582   4.111   5.780  11.291 -0.6743 -0.6086 -0.6463
17031TIP3   OH272583   4.080   2.760   0.948 -0.2136 -0.4874 -0.4541
17031TIP3    H172584   4.155   2.720   0.992  0.3526 -0.6239 -1.5091
17031TIP3    H272585   4.065   2.841   0.997  0.2303 -0.7566  0.1482
17032TIP3   OH272586   3.383   0.666   2.163  0.1208  0.1155 -0.0418
17032TIP3    H172587   3.478   0.669   2.172 -0.1140  1.6005  3.7056
17032TIP3    H272588   3.357   0.757   2.146 -0.7160 -0.0965  0.0598
17033TIP3   OH272589   1.529   5.944  14.893 -0.4147  0.2107 -0.3278
17033TIP3    H172590   1.617   5.977  14.915  1.3358 -3.7010 -0.5954
17033TIP3    H272591   1.524   5.951  14.798 -0.4918  0.5739 -0.3000
17034TIP3   OH272592   5.980   0.904  14.733 -0.4795 -0.5101  0.0941
17034TIP3    H172593   6.041   0.941  14.670 -1.6017  0.3946 -0.4985
17034TIP3    H272594   5.918   0.974  14.751 -1.4599 -1.4533  0.5316
17035TIP3   OH272595   5.941   3.310  11.897  0.1055 -0.6881 -0.0964
17035TIP3    H172596   5.923   3.395  11.857 -0.2653 -0.6015  0.2519
17035TIP3    H272597   5.961   3.253  11.823  1.1443 -0.1165 -0.2798
17036TIP3   OH272598   5.206   2.356  14.140  0.3597  0.2913 -0.0881
17036TIP3    H172599   5.214   2.420  14.210 -2.0977  0.5550  0.0373
17036TIP3    H272600   5.219   2.407  14.060 -1.5815  1.0264  0.0111
17037TIP3   OH272601   5.860   3.693   5.137 -0.0262 -0.0784 -0.1021
17037TIP3    H172602   5.946   3.652   5.127 -1.2519 -2.9687  0.1166
17037TIP3    H272603   5.800   3.632   5.093 -2.2462  0.6506  1.7436
17038TIP3   OH272604   1.383   5.365  14.070  0.6485 -0.7941  0.1361
17038TIP3    H172605   1.290   5.342  14.071 -0.0313  1.5135 -1.6069
17038TIP3    H272606   1.413   5.340  13.983  0.6140  1.9471 -0.7319
17039TIP3   OH272607   5.385   4.514  16.926 -0.1327 -0.1621  0.0770
17039TIP3    H172608   5.420   4.602  16.918 -0.9884  0.1826  0.0605
17039TIP3    H272609   5.394   4.477  16.838  0.8152 -0.3277  0.2324
17040TIP3   OH272610   0.917   3.710   0.549  0.2897  0.2837 -0.4928
17040TIP3    H172611   1.011   3.701   0.537  0.2880 -2.3820  0.7685
17040TIP3    H272612   0.879   3.661   0.475 -0.0378 -0.4478  0.1478
17041TIP3   OH272613   0.621   0.782  14.195 -0.1690 -0.1258  0.5558
17041TIP3    H172614   0.594   0.863  14.150 -0.1070 -1.0424 -1.2308
17041TIP3    H272615   0.624   0.806  14.287 -2.4339  1.3028  0.3339
17042TIP3   OH272616   5.050   0.244  13.104  0.5364 -0.3470 -0.3608
17042TIP3    H172617   4.987   0.295  13.053 -1.4936 -2.4445 -0.1241
17042TIP3    H272618   5.022   0.255  13.194 -0.2241 -2.1407 -0.3392
17043TIP3   OH272619   0.598   4.886  13.562  0.2331  0.3131  0.1362
17043TIP3    H172620   0.676   4.900  13.616  0.4777  0.3240 -0.2188
17043TIP3    H272621   0.630   4.840  13.485  0.0251  1.0437 -0.3948
17044TIP3   OH272622   5.028   6.615   2.017  0.0124 -0.0656  0.5247
17044TIP3    H172623   5.037   6.609   1.922  0.0589  0.4971  0.4864
17044TIP3    H272624   5.114   6.590   2.051 -0.8907 -3.5350  0.6037
17045TIP3   OH272625   2.855   0.888  14.750 -0.0611  0.0537 -0.1237
17045TIP3    H172626   2.776   0.938  14.729  0.2407  1.1247  1.1181
17045TIP3    H272627   2.878   0.843  14.669 -0.0993  2.3123 -1.4611
17046TIP3   OH272628   0.093   2.366  13.369 -0.3306 -0.3653  0.5091
17046TIP3    H172629   0.073   2.274  13.387  2.2322 -1.0875  0.0763
17046TIP3    H272630   0.114   2.368  13.276 -0.6210  0.7322  0.4504
17047TIP3   OH272631   1.939   0.248   4.661 -0.2558  0.6777 -0.3379
17047TIP3    H172632   1.901   0.306   4.726  0.4174  1.1718 -0.3801
17047TIP3    H272633   2.031   0.239   4.687  0.4249  2.1069 -2.0596
17048TIP3   OH272634   2.952   4.888   4.747  0.4484  0.2296 -0.1889
17048TIP3    H172635   2.991   4.906   4.832 -0.5441  0.4733  0.2328
17048TIP3    H272636   3.025   4.858   4.692  1.1206  0.2210  0.6956
17049TIP3   OH272637   1.529   0.466  13.206  0.3792 -0.3265  0.3573
17049TIP3    H172638   1.584   0.442  13.281  0.8504 -0.6082 -0.0752
17049TIP3    H272639   1.449   0.499  13.246  1.1191  0.7435  1.0181
17050TIP3   OH272640   3.275   5.754   3.571 -0.3746 -0.2297 -0.6374
17050TIP3    H172641   3.244   5.715   3.489 -1.5487  0.9801 -0.8022
17050TIP3    H272642   3.238   5.698   3.639  0.4609 -1.1409 -0.9099
17051TIP3   OH272643   1.780   5.407  16.343  0.2962 -0.3480  0.0914
17051TIP3    H172644   1.867   5.393  16.306 -0.3130 -1.8163 -0.8692
17051TIP3    H272645   1.747   5.485  16.298  0.8712 -0.1517  0.0006
17052TIP3   OH272646   4.333   2.264   0.106  0.1675 -0.0858 -0.2214
17052TIP3    H172647   4.370   2.346   0.075  2.3477 -0.8822  0.0800
17052TIP3    H272648   4.300   2.283   0.193  0.0673  0.6041 -0.4043
17053TIP3   OH272649   4.824   3.803  16.136  0.0039 -0.0414  0.0364
17053TIP3    H172650   4.905   3.838  16.171  0.3410 -1.7390  1.0314
17053TIP3    H272651   4.851   3.741  16.068 -0.2518 -2.3039  1.8540
17054TIP3   OH272652   6.158   1.202   5.015 -0.1513 -0.1064 -0.7309
17054TIP3    H172653   6.100   1.211   5.091  1.2074 -0.7521  0.4149
17054TIP3    H272654   6.098   1.202   4.940 -1.6883 -1.1877  0.4274
17055TIP3   OH272655   0.469   3.914   5.856 -0.2046 -0.4899  0.0429
17055TIP3    H172656   0.439   3.826   5.830  2.6368 -2.3370  2.3921
17055TIP3    H272657   0.536   3.898   5.923 -0.0975  3.5516  1.1653
17056TIP3   OH272658   4.134   4.414   0.018 -0.0344 -0.0720  0.2859
17056TIP3    H172659   4.173   4.327   0.020  0.1399 -0.0324 -0.6278
17056TIP3    H272660   4.040   4.399   0.030  0.0917 -0.3085  0.9629
17057TIP3   OH272661   6.229   6.181   5.640 -0.2422 -0.5393  0.0954
17057TIP3    H172662   6.319   6.201   5.614 -1.0310  0.5618 -2.0218
17057TIP3    H272663   6.214   6.235   5.718  0.6916 -0.1606  0.0262
17058TIP3   OH272664   4.916   4.619  11.572  0.4776 -0.0151  0.0925
17058TIP3    H172665   4.938   4.629  11.665  0.8656 -1.2615  0.1493
17058TIP3    H272666   4.821   4.635  11.569 -0.0083 -2.2211  1.1207
17059TIP3   OH272667   0.657   0.609  13.101 -0.3220  0.3671 -0.4369
17059TIP3    H172668   0.565   0.637  13.107 -0.2871  0.6477 -1.0986
17059TIP3    H272669   0.653   0.514  13.111 -0.6411  0.4222 -0.0260
17060TIP3   OH272670   5.437   6.620  11.624  0.0383  0.1048 -0.7664
17060TIP3    H172671   5.391   6.703  11.608  0.7457  0.4376 -1.1407
17060TIP3    H272672   5.506   6.643  11.685 -1.9220 -0.9414  2.0307
17061TIP3   OH272673   2.392   3.696   0.634  0.1914  0.7986 -0.5210
17061TIP3    H172674   2.403   3.691   0.729 -0.1257 -1.4972 -0.5282
17061TIP3    H272675   2.354   3.610   0.610 -1.6411  2.0362 -2.4766
17062TIP3   OH272676   4.535   0.892  16.709 -0.4192  0.1124  0.2529
17062TIP3    H172677   4.479   0.828  16.752 -0.1189 -0.0101  0.4693
17062TIP3    H272678   4.561   0.850  16.627  0.2544 -0.2985  0.6600
17063TIP3   OH272679   0.552   4.583   6.128 -0.5142  0.0262  0.1747
17063TIP3    H172680   0.614   4.535   6.182  0.2512  0.9440  0.1522
17063TIP3    H272681   0.541   4.667   6.174  0.1021  0.7993 -1.0236
17064TIP3   OH272682   5.767   2.253  14.682  0.2389  0.1210 -0.2638
17064TIP3    H172683   5.739   2.289  14.598 -0.2350 -0.2167 -0.2482
17064TIP3    H272684   5.711   2.177  14.696 -0.3973  0.7903  0.8661
17065TIP3   OH272685   6.280   2.194  13.166  0.3694 -0.1443 -0.0756
17065TIP3    H172686   6.241   2.264  13.113  1.5048  1.6116  1.2902
17065TIP3    H272687   6.336   2.240  13.229  0.1140 -2.2162  1.7865
17066TIP3   OH272688   1.066   3.784  14.636 -0.0158 -0.2841  0.2817
17066TIP3    H172689   1.046   3.877  14.639 -0.3859 -0.3820  1.0655
17066TIP3    H272690   1.150   3.776  14.681 -0.0518 -0.3453  0.3380
17067TIP3   OH272691   3.085   1.701   3.891 -0.4192 -0.2910  0.7055
17067TIP3    H172692   3.178   1.713   3.910 -0.5097  2.4040 -0.1239
17067TIP3    H272693   3.083   1.647   3.812  0.5346  1.0230 -0.2441
17068TIP3   OH272694   2.049   3.854   1.477 -0.0007 -0.0408 -0.2210
17068TIP3    H172695   2.041   3.780   1.418  0.4670  1.3445 -2.1000
17068TIP3    H272696   1.968   3.904   1.464  1.5557  2.1375 -2.4552
17069TIP3   OH272697   1.034   0.430   0.375  0.8561  0.1713 -0.3529
17069TIP3    H172698   0.973   0.387   0.314 -0.1967 -0.5628  1.1561
17069TIP3    H272699   1.063   0.509   0.328 -1.3627  0.6205 -1.0939
17070TIP3   OH272700   4.674   6.546   2.963 -0.1365 -0.1699 -0.2455
17070TIP3    H172701   4.743   6.510   2.906  0.4477  2.1896 -1.1453
17070TIP3    H272702   4.712   6.627   2.997 -1.4214 -0.2983  1.5926
17071TIP3   OH272703   1.138   2.397   6.478 -0.1796  0.4943 -0.1851
17071TIP3    H172704   1.177   2.475   6.516  0.3523  1.7472 -3.0179
17071TIP3    H272705   1.163   2.326   6.537  0.8982  2.1834  1.4917
17072TIP3   OH272706   3.561   4.402  15.465  0.1513  0.8676  0.3884
17072TIP3    H172707   3.575   4.451  15.385  1.7166  0.6119  0.4663
17072TIP3    H272708   3.609   4.320  15.452 -3.7430 -1.5587 -0.4456
17073TIP3   OH272709   3.379   3.085  13.846 -0.0898 -0.4023 -0.0671
17073TIP3    H172710   3.297   3.097  13.893  0.5203  2.1670  0.4757
17073TIP3    H272711   3.359   3.111  13.756 -0.0014 -0.2642 -0.0477
17074TIP3   OH272712   6.557   4.292  14.154 -0.1392  0.4664 -0.4335
17074TIP3    H172713   6.495   4.363  14.135  0.2780  0.7287 -0.8542
17074TIP3    H272714   6.502   4.215  14.167 -0.5834  0.8027 -0.2928
17075TIP3   OH272715   6.378   1.532   1.723 -0.2945 -0.4060  0.0103
17075TIP3    H172716   6.338   1.492   1.646 -0.6727 -0.3020  0.1489
17075TIP3    H272717   6.343   1.483   1.797  0.8129 -1.1318  0.0695
17076TIP3   OH272718   5.498   5.612  10.930 -0.5718 -0.0598  0.4513
17076TIP3    H172719   5.412   5.605  10.973 -0.7638  0.2654  0.1201
17076TIP3    H272720   5.480   5.658  10.848 -0.4339 -1.8617 -0.6362
17077TIP3   OH272721   2.989   4.227  12.223  0.2044  0.6536 -0.4009
17077TIP3    H172722   2.968   4.242  12.315 -0.3714  0.7323 -0.5419
17077TIP3    H272723   3.084   4.226  12.220  0.2260  0.5716  0.2089
17078TIP3   OH272724   2.795   2.556   4.775 -0.3109 -0.4211  0.0048
17078TIP3    H172725   2.708   2.538   4.810 -0.4508 -0.9545 -0.6013
17078TIP3    H272726   2.830   2.624   4.832 -1.3220  0.1604 -0.0507
17079TIP3   OH272727   1.349   2.628   0.696  0.2448 -0.1141 -0.4307
17079TIP3    H172728   1.356   2.545   0.743  3.3160  0.8848  1.1188
17079TIP3    H272729   1.438   2.663   0.693 -0.9897  3.5932 -0.1311
17080TIP3   OH272730   0.693   5.074   2.614 -0.1723 -0.4201 -0.2566
17080TIP3    H172731   0.644   5.152   2.589 -0.5384 -0.2305  1.0064
17080TIP3    H272732   0.739   5.048   2.534  0.8311  1.7006 -0.4408
17081TIP3   OH272733   4.949   6.555   2.319 -0.2630  0.1613  0.0216
17081TIP3    H172734   4.994   6.552   2.234 -3.8206  2.0232 -2.1757
17081TIP3    H272735   4.996   6.623   2.368  0.4352  0.7874 -1.4419
17082TIP3   OH272736   6.464   3.192  13.419 -0.3360 -0.1311  0.1236
17082TIP3    H172737   6.496   3.152  13.500  0.2232  1.5592  0.7893
17082TIP3    H272738   6.379   3.229  13.443 -0.8316 -0.8559 -0.4701
17083TIP3   OH272739   2.306   0.338  10.480  0.1538 -0.6515 -0.0506
17083TIP3    H172740   2.325   0.341  10.386  0.5784 -1.4380 -0.0056
17083TIP3    H272741   2.392   0.329  10.521  0.0915  1.0772  0.5156
17084TIP3   OH272742   4.226   0.300  15.869 -0.3458 -0.2636  0.5108
17084TIP3    H172743   4.240   0.349  15.950  3.1173  1.3647 -0.9024
17084TIP3    H272744   4.271   0.216  15.884 -1.0247 -0.5852  0.7826
17085TIP3   OH272745   1.911   3.938   4.438  0.0905  0.4803  0.3058
17085TIP3    H172746   1.897   3.960   4.530  0.1153 -2.5880  1.1576
17085TIP3    H272747   2.006   3.936   4.429  0.1058 -0.2159  0.5304
17086TIP3   OH272748   1.698   0.596   5.621  0.2659  0.4429 -0.0849
17086TIP3    H172749   1.706   0.592   5.525  0.1234  2.9260 -0.2724
17086TIP3    H272750   1.625   0.656   5.636 -2.4315 -2.8998  1.6668
17087TIP3   OH272751   3.761   5.822   0.966  0.3548 -0.3482  0.4836
17087TIP3    H172752   3.713   5.841   0.885  0.3440 -0.9164  0.3540
17087TIP3    H272753   3.804   5.738   0.950  1.1534  0.0126  0.7132
17088TIP3   OH272754   5.010   6.020  16.003  0.0717 -0.6786 -0.1642
17088TIP3    H172755   4.960   5.945  15.971  0.2898 -0.9925  0.2260
17088TIP3    H272756   5.077   6.034  15.936 -0.2517 -0.5407 -0.4642
17089TIP3   OH272757   5.122   2.001  17.145 -0.1308 -0.0134  0.4748
17089TIP3    H172758   5.063   1.929  17.166  2.3459 -1.9281  1.3445
17089TIP3    H272759   5.090   2.074  17.198 -1.3193 -1.1743  1.4233
17090TIP3   OH272760   2.031   0.197  11.765  0.3217  0.1007 -0.3606
17090TIP3    H172761   1.971   0.263  11.798 -0.4799 -0.1941 -1.1986
17090TIP3    H272762   1.986   0.158  11.690  0.3555 -2.0117  0.6240
17091TIP3   OH272763   1.126   4.552  14.574  0.6991 -0.3105 -0.2299
17091TIP3    H172764   1.073   4.613  14.626  0.0104  0.0481 -1.3184
17091TIP3    H272765   1.067   4.479  14.556  0.9735 -0.4914 -0.4013
17092TIP3   OH272766   1.105   5.170  13.182 -0.4550  0.0352 -0.1501
17092TIP3    H172767   1.098   5.102  13.115 -0.5047  0.8796 -1.0320
17092TIP3    H272768   1.163   5.133  13.249 -2.4892 -1.8680  0.6914
17093TIP3   OH272769   1.424   3.194  16.054  0.1171  0.0463 -0.3510
17093TIP3    H172770   1.409   3.277  16.008 -1.8934  1.8709  3.1633
17093TIP3    H272771   1.339   3.150  16.053  0.8494 -1.4218 -1.0681
17094TIP3   OH272772   0.259   4.668  11.372  0.6896  0.0522  0.2773
17094TIP3    H172773   0.213   4.654  11.289 -0.5302  0.1206  0.9135
17094TIP3    H272774   0.262   4.581  11.412  1.8745 -0.1061 -0.1111
17095TIP3   OH272775   6.559   1.543  11.609 -0.5612 -0.0970 -0.0365
17095TIP3    H172776   6.477   1.497  11.625 -0.1148 -0.5504  0.9733
17095TIP3    H272777   6.628   1.482  11.635  0.0942  0.4780 -0.3585
17096TIP3   OH272778   2.047   2.476  15.834 -0.1991  0.0095 -0.6502
17096TIP3    H172779   2.098   2.396  15.847  0.1502  0.1093 -1.3687
17096TIP3    H272780   2.105   2.535  15.786  0.0985  1.2935  1.2132
17097TIP3   OH272781   0.269   1.676  16.694  0.2043  0.4339 -0.6300
17097TIP3    H172782   0.327   1.735  16.743 -0.1184 -1.7251  2.6757
17097TIP3    H272783   0.185   1.682  16.739  0.2475 -2.6740  0.0406
17098TIP3   OH272784   6.457   2.515  11.056  0.2011 -0.2230  0.2968
17098TIP3    H172785   6.501   2.600  11.057 -3.9126  2.2218 -0.5861
17098TIP3    H272786   6.406   2.514  11.137  0.2154 -1.9300  0.3144
17099TIP3   OH272787   0.678   3.043   5.862 -0.0367 -0.4925  0.3476
17099TIP3    H172788   0.617   3.092   5.916 -1.4690  0.0255 -1.6147
17099TIP3    H272789   0.708   2.971   5.918 -1.9688 -0.4032  1.5765
17100TIP3   OH272790   3.383   0.944   2.117 -0.0254  0.2265 -0.4697
17100TIP3    H172791   3.461   0.981   2.077 -0.5606  1.3418 -0.5215
17100TIP3    H272792   3.361   1.004   2.188 -0.2462 -0.6359  0.2193
17101TIP3   OH272793   5.165   3.176  11.265  0.4459 -0.2390  0.2435
17101TIP3    H172794   5.243   3.143  11.219 -1.5452 -0.4840 -3.2794
17101TIP3    H272795   5.114   3.098  11.285  0.9718 -0.0746  2.5356
17102TIP3   OH272796   4.975   2.640  11.080  0.4234 -0.0800 -0.1647
17102TIP3    H172797   4.969   2.734  11.061 -0.7616 -0.2291 -0.6105
17102TIP3    H272798   4.965   2.635  11.175  0.3548  0.2380 -0.1517
17103TIP3   OH272799   5.711   2.066   2.719  0.9856 -0.0195 -0.2216
17103TIP3    H172800   5.639   2.010   2.749  1.7721 -0.4121  1.0032
17103TIP3    H272801   5.700   2.148   2.767  1.7480 -0.3386  0.5342
17104TIP3   OH272802   6.126   3.799   1.873 -0.1157  0.7144  0.1421
17104TIP3    H172803   6.178   3.727   1.908 -1.4487 -0.9222 -1.0970
17104TIP3    H272804   6.041   3.790   1.915 -0.4659  1.2272 -0.4404
17105TIP3   OH272805   1.441   4.531  13.948 -0.5440 -0.1954  0.4507
17105TIP3    H172806   1.364   4.534  14.004 -1.0060  0.9059 -0.2139
17105TIP3    H272807   1.505   4.479  13.997 -0.3985  1.9416  2.6525
17106TIP3   OH272808   0.775   2.763   3.680 -0.3480  0.4220 -0.4330
17106TIP3    H172809   0.790   2.669   3.694 -0.8548  0.4600  0.4394
17106TIP3    H272810   0.782   2.774   3.585 -2.4091 -0.9002 -0.8128
17107TIP3   OH272811   1.810   1.851   5.932 -0.0895  0.2549 -0.2513
17107TIP3    H172812   1.900   1.821   5.946 -0.0714  1.0492  1.7075
17107TIP3    H272813   1.787   1.821   5.844  1.3086 -1.9066  0.0637
17108TIP3   OH272814   5.799   0.263   0.227  0.5767  0.2230 -0.1287
17108TIP3    H172815   5.805   0.179   0.181 -2.4685 -0.0102 -0.2648
17108TIP3    H272816   5.855   0.251   0.305 -0.8079 -2.4839  0.5781
17109TIP3   OH272817   5.929   4.314  14.988  0.2728  0.3199  0.1060
17109TIP3    H172818   5.953   4.320  14.896 -0.4398  0.4748 -0.0710
17109TIP3    H272819   5.887   4.228  14.997  0.3360  0.3062  0.2931
17110TIP3   OH272820   2.706   1.821  11.063  0.4961  0.1585 -0.6464
17110TIP3    H172821   2.642   1.883  11.027 -1.7702 -0.9274  1.2482
17110TIP3    H272822   2.692   1.741  11.013  0.0943 -0.1779 -0.0126
17111TIP3   OH272823   0.228   2.253   2.016 -0.1271 -0.3001  0.6586
17111TIP3    H172824   0.154   2.220   1.966 -0.1554  1.7742 -0.7655
17111TIP3    H272825   0.190   2.282   2.099 -1.2788  2.1817 -0.6429
17112TIP3   OH272826   2.359   6.122   5.156 -0.1910  0.3145  0.1852
17112TIP3    H172827   2.333   6.058   5.090 -0.1546  1.1780 -0.6979
17112TIP3    H272828   2.451   6.141   5.135 -0.8750  2.4628 -1.1449
17113TIP3   OH272829   4.631   3.371   3.272 -0.2292 -0.3536 -0.4845
17113TIP3    H172830   4.693   3.408   3.335 -0.8140  0.6686 -0.4897
17113TIP3    H272831   4.601   3.290   3.313 -0.6598  0.3278  0.5946
17114TIP3   OH272832   4.284   6.461  11.045  0.1808  0.6235 -0.2700
17114TIP3    H172833   4.204   6.419  11.013 -0.0337  0.6463  0.2229
17114TIP3    H272834   4.309   6.521  10.975  0.1181  0.1606 -0.6951
17115TIP3   OH272835   5.288   2.281  15.183  0.0619 -0.2026 -0.1596
17115TIP3    H172836   5.294   2.194  15.141 -1.3091 -0.1088 -0.5955
17115TIP3    H272837   5.277   2.262  15.276  0.5724 -0.4743 -0.1503
17116TIP3   OH272838   2.202   3.730  15.034  0.5794 -0.1021  0.5836
17116TIP3    H172839   2.177   3.681  14.956 -0.7305 -1.5219  1.8201
17116TIP3    H272840   2.291   3.761  15.016  1.0652 -2.0444 -0.6930
17117TIP3   OH272841   3.050   1.675   3.342  0.2258 -0.1158  0.1708
17117TIP3    H172842   3.048   1.657   3.248 -1.4262  0.8210 -0.0044
17117TIP3    H272843   3.141   1.656   3.367  1.2740  1.4960 -2.0048
17118TIP3   OH272844   6.433   3.353  11.136 -0.7357  0.4550 -0.3687
17118TIP3    H172845   6.505   3.385  11.081  0.8117  1.2982  1.9784
17118TIP3    H272846   6.399   3.277  11.089  2.1343 -0.3896 -1.3080
17119TIP3   OH272847   3.901   2.428  16.031 -0.0596 -0.0088  0.0953
17119TIP3    H172848   3.891   2.385  15.946  1.9105 -1.2819  0.4384
17119TIP3    H272849   3.819   2.410  16.077  0.7397 -3.8184  0.3303
17120TIP3   OH272850   0.872   5.052  14.727 -0.0836 -0.4044 -0.4793
17120TIP3    H172851   0.785   5.080  14.698 -0.3590 -2.7277 -2.1973
17120TIP3    H272852   0.932   5.090  14.663 -0.0347 -0.2779 -0.3563
17121TIP3   OH272853   4.944   3.740   5.232  0.7046  0.0237 -0.2132
17121TIP3    H172854   5.006   3.668   5.242  0.8661 -0.1213 -1.9990
17121TIP3    H272855   4.899   3.744   5.317  0.9207 -1.9506  0.0497
17122TIP3   OH272856   4.257   1.484   0.276  0.5508 -0.4363  0.8040
17122TIP3    H172857   4.323   1.554   0.270  2.6942 -2.4756 -1.3020
17122TIP3    H272858   4.299   1.417   0.330  0.2544 -1.7859 -0.5871
17123TIP3   OH272859   0.468   3.295   2.221  0.3960  0.9945  0.2934
17123TIP3    H172860   0.527   3.269   2.291  0.6591  0.9328  0.0500
17123TIP3    H272861   0.386   3.251   2.241  0.5632  0.7258  0.3869
17124TIP3   OH272862   3.857   0.539  13.801  0.7752  0.1020  0.0509
17124TIP3    H172863   3.874   0.591  13.723  0.7403  1.5353  0.9645
17124TIP3    H272864   3.784   0.482  13.776  2.0354 -0.8961 -1.5679
17125TIP3   OH272865   5.789   2.067   0.814  0.6952 -0.1009  0.0254
17125TIP3    H172866   5.738   2.010   0.756  1.0863  0.2901 -0.7229
17125TIP3    H272867   5.778   2.155   0.777 -0.8831  0.5382  1.8467
17126TIP3   OH272868   6.104   4.098   4.648  0.4106  0.1029  0.2106
17126TIP3    H172869   6.192   4.093   4.613  0.8800  0.2940  1.3273
17126TIP3    H272870   6.110   4.161   4.720 -0.2481 -1.1166  1.3733
17127TIP3   OH272871   1.179   5.009   4.597 -0.8073  0.2864  0.4406
17127TIP3    H172872   1.236   5.084   4.586 -0.7389  0.2318  0.4226
17127TIP3    H272873   1.233   4.943   4.640 -0.8861  0.2709  0.5187
17128TIP3   OH272874   3.728   1.959   3.357 -0.2026  0.4486  0.2297
17128TIP3    H172875   3.816   1.992   3.376  0.6579 -0.6288 -1.6497
17128TIP3    H272876   3.703   1.912   3.437  1.1529  0.3377  0.6194
17129TIP3   OH272877   4.874   2.247  15.791  0.5764  0.2065  0.0260
17129TIP3    H172878   4.850   2.234  15.883 -1.9686  1.4588 -0.3714
17129TIP3    H272879   4.856   2.340  15.775  4.8801  1.1011 -0.7441
17130TIP3   OH272880   1.262   0.020   3.320  0.1446 -0.2506  0.5467
17130TIP3    H172881   1.268   0.107   3.282  0.4139  0.5156  2.2688
17130TIP3    H272882   1.231   0.034   3.410  1.8525 -1.7670  1.4435
17131TIP3   OH272883   0.888   2.293   1.379 -0.6351 -0.5988  0.2556
17131TIP3    H172884   0.796   2.316   1.394 -0.2830 -0.1762  2.0073
17131TIP3    H272885   0.903   2.216   1.434  0.1323 -0.4852  0.2241
17132TIP3   OH272886   2.627   6.820  16.309 -0.5329  0.0433  0.6548
17132TIP3    H172887   2.676   6.880  16.252 -0.4446  0.2049  0.8979
17132TIP3    H272888   2.536   6.847  16.299 -0.6475 -0.6664 -0.2884
17133TIP3   OH272889   2.569   2.807  11.921  0.1121  0.3965  0.1827
17133TIP3    H172890   2.579   2.901  11.939 -1.3077  0.7570 -0.7627
17133TIP3    H272891   2.587   2.765  12.005  0.0522  1.5754  0.8104
17134TIP3   OH272892   0.294   4.977  12.571  0.1692 -0.1236 -0.3471
17134TIP3    H172893   0.252   4.903  12.528  1.2524 -1.3413  0.5678
17134TIP3    H272894   0.234   5.002  12.641 -0.6349  0.5033 -1.2425
17135TIP3   OH272895   2.600   0.943   0.404  0.1953 -0.7024 -0.3933
17135TIP3    H172896   2.636   0.880   0.342  1.1819 -0.8530  0.3007
17135TIP3    H272897   2.631   1.028   0.373 -0.7483 -0.5800 -1.0631
17136TIP3   OH272898   2.623   3.046  11.305  0.0437 -0.1879  0.4964
17136TIP3    H172899   2.586   2.960  11.284  1.1005 -0.3310 -0.9940
17136TIP3    H272900   2.652   3.080  11.220  0.6038  1.1830  1.2104
17137TIP3   OH272901   6.310   6.096   4.256 -0.0461  0.2060  0.5679
17137TIP3    H172902   6.399   6.121   4.230  0.3418  0.0198  1.6229
17137TIP3    H272903   6.257   6.174   4.241 -0.1662 -0.3090 -2.0482
17138TIP3   OH272904   0.629   3.800   1.562 -0.0512 -0.0141  0.0607
17138TIP3    H172905   0.654   3.762   1.646  0.1743 -1.2124 -0.5209
17138TIP3    H272906   0.710   3.804   1.512 -0.3496 -0.2761 -0.4602
17139TIP3   OH272907   4.064   1.128  11.311  0.1157 -0.5142 -0.4679
17139TIP3    H172908   4.007   1.051  11.313 -0.3959 -0.1328  1.3990
17139TIP3    H272909   4.005   1.202  11.306  0.5570 -0.1942 -0.9941
17140TIP3   OH272910   6.012   3.800  14.270 -0.2029  0.4954  0.0051
17140TIP3    H172911   5.922   3.822  14.245  0.1251  2.4227  0.3849
17140TIP3    H272912   6.058   3.789  14.186 -0.8961 -1.1948 -0.2028
17141TIP3   OH272913   6.806   6.765  11.149  0.0605  0.3452  0.0735
17141TIP3    H172914   6.897   6.771  11.178 -0.2236 -1.3466  1.5467
17141TIP3    H272915   6.772   6.854  11.158  1.6820  1.1326 -1.0590
17142TIP3   OH272916   2.647   1.282   5.715 -0.5798 -0.2225 -0.3318
17142TIP3    H172917   2.731   1.329   5.711 -0.9858  0.6665  0.9477
17142TIP3    H272918   2.648   1.238   5.800 -1.8862  0.7800  0.2464
17143TIP3   OH272919   3.465   3.036  15.786 -0.6623  0.4614  0.1868
17143TIP3    H172920   3.417   3.119  15.779 -0.0327  0.9416  1.2296
17143TIP3    H272921   3.494   3.033  15.877 -0.2831 -0.7001  0.0470
17144TIP3   OH272922   2.936   2.769   3.489  0.1534  1.1527  0.2072
17144TIP3    H172923   3.024   2.805   3.474  0.3369  1.1275  1.1395
17144TIP3    H272924   2.921   2.711   3.415  2.0434 -0.9693  1.3390
17145TIP3   OH272925   5.303   0.439  16.267  0.5316 -0.0721 -0.9453
17145TIP3    H172926   5.276   0.355  16.230 -0.0651 -0.4189  0.2323
17145TIP3    H272927   5.385   0.420  16.313 -0.5936 -0.5035  1.0068
17146TIP3   OH272928   4.802   6.388  16.470 -0.0059  0.7020 -0.0975
17146TIP3    H172929   4.720   6.354  16.506  0.0277  0.8133  0.0881
17146TIP3    H272930   4.854   6.411  16.548  0.9905 -1.1743 -0.1383
17147TIP3   OH272931   3.064   3.344  13.812 -0.6749  0.1786 -0.1412
17147TIP3    H172932   3.011   3.350  13.891 -2.1379  1.0782 -1.1552
17147TIP3    H272933   3.033   3.415  13.756  0.6643 -0.1295 -1.3419
17148TIP3   OH272934   6.771   1.339  14.331 -0.0010  0.4844  0.1337
17148TIP3    H172935   6.818   1.287  14.266  2.2051  1.5819  0.7646
17148TIP3    H272936   6.829   1.340  14.407 -0.5761  2.7531  0.5994
17149TIP3   OH272937   6.218   6.353   1.979 -0.1076  0.6886 -0.3889
17149TIP3    H172938   6.204   6.307   1.896  0.5583 -0.9013  0.3429
17149TIP3    H272939   6.138   6.405   1.991 -0.6851  0.0913 -1.4823
17150TIP3   OH272940   4.028   3.629  13.983  0.4462  0.5320  0.9016
17150TIP3    H172941   3.962   3.570  13.946  1.5747  0.5380 -1.2433
17150TIP3    H272942   3.977   3.704  14.015 -0.8111 -0.6983  1.8972
17151TIP3   OH272943   6.794   4.274   3.020  0.4870 -0.1960  0.7291
17151TIP3    H172944   6.822   4.333   3.090  1.1083  0.8079 -0.3237
17151TIP3    H272945   6.876   4.241   2.982  0.2158  0.3400 -0.3754
17152TIP3   OH272946   6.017   5.716  16.392  0.5391  0.5573  0.6099
17152TIP3    H172947   6.004   5.714  16.297  0.6103 -0.6588  0.6137
17152TIP3    H272948   5.986   5.631  16.422  0.7500  0.8371  1.6558
17153TIP3   OH272949   4.434   0.475  11.332 -0.4923  0.8113 -0.2453
17153TIP3    H172950   4.415   0.524  11.252 -2.2429  0.8316  0.1362
17153TIP3    H272951   4.353   0.427  11.350  0.5531 -0.7774  0.4088
17154TIP3   OH272952   6.310   2.253   0.676 -0.0973  0.1473 -0.2479
17154TIP3    H172953   6.223   2.270   0.713  0.5622  2.0102  0.5823
17154TIP3    H272954   6.351   2.194   0.739 -0.0713  0.8551  0.4120
17155TIP3   OH272955   1.830   3.391  16.413 -0.2775 -0.0181  0.4290
17155TIP3    H172956   1.799   3.390  16.503  0.6945 -1.1149  0.7793
17155TIP3    H272957   1.769   3.335  16.365  0.7732 -1.7384  1.0074
17156TIP3   OH272958   2.331   4.874   3.400  0.3967 -0.0015 -0.3020
17156TIP3    H172959   2.337   4.959   3.355  3.7843  0.0189 -0.0769
17156TIP3    H272960   2.371   4.890   3.486 -1.3154 -1.2654  0.7902
17157TIP3   OH272961   3.941   2.876  12.991  0.0857  0.2958 -0.5539
17157TIP3    H172962   3.978   2.896  12.905  0.8159 -0.6115 -0.4737
17157TIP3    H272963   3.911   2.785  12.984 -0.4349  0.4184 -0.0413
17158TIP3   OH272964   6.674   3.773  16.370  0.1868 -0.4756 -0.4633
17158TIP3    H172965   6.620   3.848  16.346  0.3017 -0.4011 -0.4914
17158TIP3    H272966   6.736   3.808  16.434 -0.2646 -0.7215  0.1210
17159TIP3   OH272967   5.273   0.309   0.069 -0.0710  0.4458  0.7961
17159TIP3    H172968   5.365   0.293   0.048 -0.6715  0.0129 -1.9074
17159TIP3    H272969   5.234   0.221   0.071 -1.2160  0.7286 -2.7060
17160TIP3   OH272970   6.353   6.648  11.731  0.0309 -0.2126 -0.2645
17160TIP3    H172971   6.446   6.632  11.714  0.1831 -0.2684  0.5903
17160TIP3    H272972   6.349   6.671  11.824 -0.4781  2.3371 -0.8495
17161TIP3   OH272973   0.761   1.970   0.949  0.0070  0.1337 -0.1205
17161TIP3    H172974   0.674   1.949   0.981  0.5722 -2.4348  0.0063
17161TIP3    H272975   0.754   2.058   0.913 -2.3753  0.3492  0.7349
17162TIP3   OH272976   5.356   2.369  16.368  0.0509  0.5941 -0.5458
17162TIP3    H172977   5.373   2.443  16.427 -1.6133  1.3640 -0.9905
17162TIP3    H272978   5.276   2.329  16.402  0.3620 -0.3839 -0.9315
17163TIP3   OH272979   0.200   0.855   1.778  0.1258 -0.0349  0.3687
17163TIP3    H172980   0.146   0.778   1.793  1.1781 -0.5200  1.9896
17163TIP3    H272981   0.270   0.848   1.843  1.9501  0.7403 -1.4176
17164TIP3   OH272982   2.997   5.054   2.063  0.6230 -0.1140  0.7385
17164TIP3    H172983   3.015   5.097   1.979  1.2197  1.1284  1.4619
17164TIP3    H272984   2.909   5.083   2.085  1.0454  0.8373  1.2519
17165TIP3   OH272985   3.771   4.661  15.191 -0.2112 -0.6011 -0.3891
17165TIP3    H172986   3.767   4.756  15.184  2.5398 -0.4873 -1.7338
17165TIP3    H272987   3.852   4.644  15.240 -0.4459 -2.2718 -0.5026
17166TIP3   OH272988   4.155   5.587   5.242  0.0367  0.3410 -0.1425
17166TIP3    H172989   4.119   5.507   5.203 -0.5904  1.1601 -1.2890
17166TIP3    H272990   4.148   5.572   5.336 -0.1981 -0.9030 -0.3360
17167TIP3   OH272991   6.205   4.024  12.685 -0.2275  0.7389 -0.1517
17167TIP3    H172992   6.229   4.054  12.772 -0.5884  2.6121 -0.6449
17167TIP3    H272993   6.160   3.940  12.699  0.0824  0.8083  1.3976
17168TIP3   OH272994   2.576   3.412  16.474  0.0785  0.1675  0.2483
17168TIP3    H172995   2.585   3.386  16.565 -1.3215 -0.0106  0.3585
17168TIP3    H272996   2.555   3.330  16.428 -2.6962  0.7507  0.3352
17169TIP3   OH272997   4.152   4.154  11.398 -0.2434  0.8862  0.1246
17169TIP3    H172998   4.059   4.169  11.386 -0.0102  2.5201  0.1665
17169TIP3    H272999   4.167   4.065  11.366 -2.2116 -0.3074  2.2612
17170TIP3   OH273000   6.189   1.552  14.066  0.5214 -0.4871 -0.5349
17170TIP3    H173001   6.134   1.483  14.105 -0.4423  1.0918  1.0497
17170TIP3    H273002   6.146   1.572  13.983  0.7410 -1.6868 -0.9554
17171TIP3   OH273003   1.862   5.241  11.320 -0.5148  0.2565  0.0498
17171TIP3    H173004   1.850   5.322  11.271 -1.1547 -0.3099 -0.7505
17171TIP3    H273005   1.855   5.267  11.411 -0.9704  1.0630 -0.2044
17172TIP3   OH273006   3.800   1.095  12.475  0.6150 -0.3683 -0.2502
17172TIP3    H173007   3.849   1.142  12.407  0.2123 -0.7722 -0.8324
17172TIP3    H273008   3.858   1.096  12.551  0.1300  2.0972  0.1439
17173TIP3   OH273009   3.374   1.357   2.089 -0.6868 -0.4209  0.3557
17173TIP3    H173010   3.436   1.284   2.084  0.1804  0.2180  1.3239
17173TIP3    H273011   3.428   1.435   2.076 -0.4632  0.4608  4.9292
17174TIP3   OH273012   0.389   5.890  16.258 -0.1300  0.6643 -0.1401
17174TIP3    H173013   0.335   5.955  16.303  2.0730  2.5199 -0.0330
17174TIP3    H273014   0.474   5.894  16.303  1.8120  1.7727 -3.5875
17175TIP3   OH273015   2.935   5.760   3.976 -0.2720 -0.2921  0.5012
17175TIP3    H173016   2.927   5.821   4.049  0.8311 -1.2113  1.4368
17175TIP3    H273017   2.949   5.815   3.899 -0.8556  0.6670  1.0635
17176TIP3   OH273018   4.119   5.075  13.347 -0.2476  0.3948  0.6775
17176TIP3    H173019   4.076   5.147  13.393 -0.0428 -0.1076  1.6823
17176TIP3    H273020   4.211   5.102  13.342 -0.0365 -0.1061  1.6972
17177TIP3   OH273021   5.871   5.914   2.606 -0.2426  0.4422  0.3124
17177TIP3    H173022   5.809   5.868   2.663 -0.0556 -0.8900 -0.5105
17177TIP3    H273023   5.839   5.897   2.517  0.8125  0.4542 -0.0800
17178TIP3   OH273024   1.830   1.329  16.656  0.4403  0.2046 -0.3546
17178TIP3    H173025   1.806   1.281  16.577  0.4278 -2.3438  1.0752
17178TIP3    H273026   1.805   1.271  16.728  3.8051  0.6745  1.4340
17179TIP3   OH273027   4.507   1.390   2.219  0.1125 -0.2964  0.6776
17179TIP3    H173028   4.495   1.402   2.125 -0.6095 -0.5633  0.7332
17179TIP3    H273029   4.546   1.303   2.228  2.8532  0.8067  0.4553
17180TIP3   OH273030   2.706   3.915  15.484  0.1308  0.1422 -0.3258
17180TIP3    H173031   2.660   3.905  15.401  0.4116 -0.4296 -0.4185
17180TIP3    H273032   2.799   3.911  15.461  0.2188  0.3714 -0.0292
17181TIP3   OH273033   3.867   5.132   4.852 -0.0964  0.3358 -0.5428
17181TIP3    H173034   3.829   5.053   4.814  1.3579  0.5461 -2.5552
17181TIP3    H273035   3.961   5.124   4.838  0.1316  2.2668 -0.4896
17182TIP3   OH273036   0.030   3.838  14.804  0.2878  0.2476 -0.5440
17182TIP3    H173037   0.084   3.839  14.725  0.4011 -1.3167 -0.5247
17182TIP3    H273038   0.089   3.803  14.872  0.3738  2.1134  0.3910
17183TIP3   OH273039   1.875   5.601   5.384  0.1113  0.0039 -0.1564
17183TIP3    H173040   1.913   5.532   5.438 -1.8076 -0.4608  0.6834
17183TIP3    H273041   1.930   5.604   5.306  1.5693 -0.9000  0.7983
17184TIP3   OH273042   0.603   2.314   3.648  0.6966 -0.3074  0.0587
17184TIP3    H173043   0.571   2.381   3.709 -1.2582 -0.4080 -0.7615
17184TIP3    H273044   0.687   2.348   3.617  1.5568 -0.0632  2.4429
17185TIP3   OH273045   2.966   2.536   5.128  0.2487  0.2083  0.0347
17185TIP3    H173046   3.003   2.459   5.084 -1.2376 -0.2002 -0.5637
17185TIP3    H273047   2.955   2.601   5.058 -1.7048 -0.2841 -0.1613
17186TIP3   OH273048   3.795   5.123  14.143 -0.0596  0.4073 -0.1539
17186TIP3    H173049   3.885   5.157  14.146  0.3852 -0.7682  0.2693
17186TIP3    H273050   3.757   5.164  14.065  0.7442  1.1414 -0.1740
17187TIP3   OH273051   3.426   1.743  16.600  0.1416 -0.5270 -0.6206
17187TIP3    H173052   3.411   1.649  16.588  0.9702 -0.4775 -2.5196
17187TIP3    H273053   3.414   1.780  16.512  0.4626  1.0531 -0.0317
17188TIP3   OH273054   6.610   1.743   2.540 -0.0794  0.4587 -0.2203
17188TIP3    H173055   6.658   1.665   2.513  0.1258  0.4301  0.2162
17188TIP3    H273056   6.606   1.738   2.636 -1.8902 -0.0883 -0.2846
17189TIP3   OH273057   2.902   2.567  12.175  0.2649 -0.2892 -0.8568
17189TIP3    H173058   2.871   2.657  12.164 -0.7116 -0.3426  1.0036
17189TIP3    H273059   2.848   2.532  12.246  3.0863 -1.1474  1.0596
17190TIP3   OH273060   4.358   6.193   6.864 -0.8544 -0.1383 -0.1390
17190TIP3    H173061   4.442   6.147   6.859 -0.5045  0.4488  0.3015
17190TIP3    H273062   4.376   6.282   6.834 -0.9038  0.5277  1.7093
17191TIP3   OH273063   6.316   3.720  14.066  0.1905 -0.0029  0.0794
17191TIP3    H173064   6.389   3.766  14.025  0.7869 -0.8236  0.1949
17191TIP3    H273065   6.255   3.703  13.994  0.0363  0.8016  0.0076
17192TIP3   OH273066   3.102   3.411  17.214 -0.3315  0.5910  0.1670
17192TIP3    H173067   3.036   3.342  17.215  1.1450 -0.9624 -1.3158
17192TIP3    H273068   3.052   3.492  17.216 -2.2414 -0.5179  0.0085
17193TIP3   OH273069   2.211   2.824   4.090 -0.4106  0.3662 -0.2304
17193TIP3    H173070   2.293   2.837   4.043  0.7179 -0.7320  1.3312
17193TIP3    H273071   2.189   2.910   4.125 -0.6512  0.9456 -1.7641
17194TIP3   OH273072   0.914   6.502  11.364 -0.0592 -0.1402  0.9823
17194TIP3    H173073   0.842   6.528  11.307  0.1202 -1.4400  0.1247
17194TIP3    H273074   0.914   6.567  11.434 -1.6498  0.2558  0.6518
17195TIP3   OH273075   6.811   0.779  12.666 -0.3339 -0.3826  0.1453
17195TIP3    H173076   6.746   0.714  12.691 -1.0457  0.7050  1.1961
17195TIP3    H273077   6.763   0.862  12.662  0.4556  0.0477 -1.5744
17196TIP3   OH273078   2.863   1.995   3.227 -0.0141  0.2126  0.2955
17196TIP3    H173079   2.886   2.030   3.142 -1.1231 -0.0865 -0.1458
17196TIP3    H273080   2.947   1.976   3.269  0.5405  0.3488 -0.7281
17197TIP3   OH273081   6.812   0.826  12.956 -0.1222  0.2783  0.1625
17197TIP3    H173082   6.811   0.799  12.865 -0.1634 -0.2422  0.3120
17197TIP3    H273083   6.765   0.757  13.003 -1.1794  1.1379  0.4235
17198TIP3   OH273084   3.490   2.508  11.343 -0.9876  0.0699 -0.1579
17198TIP3    H173085   3.449   2.441  11.289 -0.1091 -0.7883  0.2165
17198TIP3    H273086   3.573   2.470  11.370 -0.7072  1.1052  0.5035
17199TIP3   OH273087   1.184   5.267   4.341  0.2039 -0.3367  0.0111
17199TIP3    H173088   1.219   5.255   4.429  1.0620 -0.7758 -0.3686
17199TIP3    H273089   1.227   5.346   4.309 -0.8975  0.4106  0.3531
17200TIP3   OH273090   3.792   1.647   1.433 -0.1273 -0.0517 -0.0358
17200TIP3    H173091   3.845   1.574   1.400 -3.4081 -2.0948 -1.2846
17200TIP3    H273092   3.747   1.680   1.356 -0.9084  1.3831  0.9977
17201TIP3   OH273093   6.212   3.522  11.580 -0.5290  0.0992  0.2304
17201TIP3    H173094   6.213   3.493  11.671 -0.1850  1.5918  0.7451
17201TIP3    H273095   6.289   3.481  11.540  0.1855  0.6117  1.0359
17202TIP3   OH273096   2.377   5.143  13.418 -0.4160 -0.7139  0.6171
17202TIP3    H173097   2.424   5.166  13.338  0.3588 -1.4057  0.8544
17202TIP3    H273098   2.409   5.055  13.440 -1.0562 -0.7711  1.3617
17203TIP3   OH273099   0.045   6.308  16.256 -0.1396 -0.2512  0.1507
17203TIP3    H173100   0.051   6.227  16.206  1.1857  0.6527 -1.2151
17203TIP3    H273101  -0.043   6.341  16.239  0.4738  0.3552 -2.1818
17204TIP3   OH273102   5.541   0.125   3.426 -0.3149 -0.5468  0.0526
17204TIP3    H173103   5.598   0.121   3.350 -1.9656 -0.7081 -1.2501
17204TIP3    H273104   5.558   0.045   3.474 -0.6451 -1.4187 -1.2383
17205TIP3   OH273105   4.275   0.694   4.291 -0.0277  0.2548  0.0332
17205TIP3    H173106   4.234   0.754   4.353  2.1988  0.7162  1.1771
17205TIP3    H273107   4.286   0.612   4.340  0.7269  0.2681 -0.0940
17206TIP3   OH273108   0.533   4.751  12.688  0.2603 -0.2280 -0.3246
17206TIP3    H173109   0.449   4.750  12.643 -1.0339 -0.5804  1.9162
17206TIP3    H273110   0.535   4.834  12.736  0.9152 -0.4725  0.1032
17207TIP3   OH273111   2.508   0.818  14.180  0.5839  0.0525  0.3101
17207TIP3    H173112   2.417   0.820  14.150  0.0091  0.6524  2.0195
17207TIP3    H273113   2.550   0.755  14.121 -0.9836 -0.4702 -0.3262
17208TIP3   OH273114   1.596   3.163  15.653 -0.2208 -0.3489  0.3547
17208TIP3    H173115   1.640   3.184  15.735 -2.4489  1.2768  1.2159
17208TIP3    H273116   1.587   3.247  15.608 -0.1586 -1.0324 -0.9977
17209TIP3   OH273117   6.312   3.300  15.854 -0.6314  0.3993  0.9267
17209TIP3    H173118   6.300   3.209  15.825  1.1655  0.4720 -0.2587
17209TIP3    H273119   6.311   3.351  15.774 -2.0721  1.5307  1.6259
17210TIP3   OH273120   6.680   6.511  11.093 -0.4581 -0.6836 -0.2719
17210TIP3    H173121   6.617   6.541  11.027 -0.3293 -0.8498 -0.4707
17210TIP3    H273122   6.740   6.586  11.104 -0.9633 -0.3525  0.2636
17211TIP3   OH273123   3.026   4.599   4.775  0.0893 -0.5091 -0.8827
17211TIP3    H173124   2.956   4.623   4.714 -1.1069  0.3952  0.7618
17211TIP3    H273125   3.083   4.541   4.724  0.8446  2.4500 -3.8078
17212TIP3   OH273126   6.513   3.232   5.294 -0.2574 -0.3254  0.6817
17212TIP3    H173127   6.576   3.208   5.363  1.4508  0.6173 -0.4618
17212TIP3    H273128   6.489   3.149   5.254 -0.2393 -0.7662  1.5708
17213TIP3   OH273129   1.737   2.875  17.149  0.1113  0.3640 -0.0697
17213TIP3    H173130   1.761   2.798  17.200 -1.4325  0.3742  0.7406
17213TIP3    H273131   1.780   2.863  17.064  0.2605 -1.1586  0.1973
17214TIP3   OH273132   5.821   1.193   1.798 -0.3982 -0.9310  0.3379
17214TIP3    H173133   5.910   1.208   1.766 -0.5741 -0.7027 -0.0503
17214TIP3    H273134   5.800   1.272   1.847 -1.0319 -0.1987 -1.0471
17215TIP3   OH273135   6.025   2.507   2.548 -0.2456  0.3766 -0.0609
17215TIP3    H173136   6.113   2.499   2.584 -0.7533 -2.0438  0.8205
17215TIP3    H273137   6.039   2.528   2.456  1.2272  0.9164  0.2623
17216TIP3   OH273138   0.007   3.087   4.276  0.4831  0.1298  0.6284
17216TIP3    H173139  -0.048   3.012   4.252  2.9411 -0.9560 -2.4492
17216TIP3    H273140   0.046   3.063   4.360  0.6057 -1.7783  0.0788
17217TIP3   OH273141   6.421   1.291  11.200  0.5209 -0.1186 -0.1514
17217TIP3    H173142   6.368   1.254  11.270  0.8430  1.2659  0.8620
17217TIP3    H273143   6.511   1.273  11.226  0.8129  2.9892  1.4252
17218TIP3   OH273144   0.088   0.009  15.392  0.2312 -0.0550 -0.1975
17218TIP3    H173145   0.172  -0.011  15.350  0.2685 -0.0968 -0.1045
17218TIP3    H273146   0.109   0.077  15.456  0.4610 -1.0113  0.7866
17219TIP3   OH273147   5.245   5.831   2.844  0.2138  0.2957  0.4310
17219TIP3    H173148   5.197   5.830   2.761 -0.9191  1.2988  1.0306
17219TIP3    H273149   5.201   5.899   2.896  1.9755  0.8920  1.2199
17220TIP3   OH273150   5.487   6.767  13.557 -0.2447  0.2315  0.0341
17220TIP3    H173151   5.448   6.854  13.556  1.5205  1.1784  2.8671
17220TIP3    H273152   5.581   6.783  13.560  0.0883 -1.6476  2.4525
17221TIP3   OH273153   4.147   5.416  15.355  0.3973 -0.1451 -0.1427
17221TIP3    H173154   4.145   5.320  15.360 -3.3375 -0.1292  2.4321
17221TIP3    H273155   4.117   5.446  15.440  0.2704  3.3439 -1.2438
17222TIP3   OH273156   1.097   6.686   4.028 -0.4182  0.1442 -0.4636
17222TIP3    H173157   1.065   6.631   4.099  0.6634  0.1093  0.0276
17222TIP3    H273158   1.019   6.713   3.980 -1.1601  0.1107  0.6990
17223TIP3   OH273159   6.497   3.811  16.738 -0.2414 -0.4233  0.3454
17223TIP3    H173160   6.495   3.746  16.808  0.3430 -0.3679  0.4262
17223TIP3    H273161   6.544   3.768  16.666 -0.2055 -0.2323  0.2521
17224TIP3   OH273162   0.017   1.250  16.147 -0.9461  0.3400 -0.2144
17224TIP3    H173163   0.091   1.263  16.088 -2.7226  0.1840 -2.6350
17224TIP3    H273164   0.033   1.164  16.186  1.3091  1.3299  1.2319
17225TIP3   OH273165   4.014   0.205   2.345  0.2617  0.0168  0.5593
17225TIP3    H173166   4.064   0.194   2.425  0.7432  0.0049  0.2603
17225TIP3    H273167   4.062   0.156   2.279 -1.0190 -1.3608  0.6045
17226TIP3   OH273168   0.467   4.087  16.495 -1.1483  0.0916 -0.1957
17226TIP3    H173169   0.525   4.120  16.563  1.2054 -1.4305 -1.3506
17226TIP3    H273170   0.398   4.041  16.543 -1.0036  1.2360  1.1806
17227TIP3   OH273171   4.081   1.690  13.497  0.0791  0.1986  0.0624
17227TIP3    H173172   4.066   1.712  13.589 -0.6499 -0.3093  0.0721
17227TIP3    H273173   4.047   1.601  13.488  2.6574 -0.8588 -0.0550
17228TIP3   OH273174   4.583   6.422   2.609  0.6903 -0.3726 -0.3422
17228TIP3    H173175   4.627   6.505   2.624 -1.2383  0.7667 -0.6447
17228TIP3    H273176   4.652   6.364   2.577  2.2223  0.8849  0.5387
17229TIP3   OH273177   6.059   2.123   3.365  0.0640  0.2070 -0.5569
17229TIP3    H173178   6.154   2.127   3.349  0.0301 -0.6542 -1.0180
17229TIP3    H273179   6.034   2.035   3.338 -0.5068 -0.3517  1.6236
17230TIP3   OH273180   3.961   4.802   4.406 -0.6048 -0.4113 -0.0819
17230TIP3    H173181   4.014   4.723   4.419  0.3746  0.4692  1.6059
17230TIP3    H273182   4.021   4.875   4.420 -1.6904  0.6396 -0.6783
17231TIP3   OH273183   0.982   0.274  15.365 -0.2305 -0.3958 -0.4458
17231TIP3    H173184   1.022   0.189  15.382 -1.9960 -0.9608  1.2464
17231TIP3    H273185   1.036   0.313  15.295  1.2184 -2.4408 -0.5448
17232TIP3   OH273186   5.620   0.316  12.902 -0.1498  0.6566  0.3429
17232TIP3    H173187   5.656   0.347  12.986  1.6723  0.8464 -0.4583
17232TIP3    H273188   5.672   0.238  12.882 -1.5239 -0.2025  0.0436
17233TIP3   OH273189   1.519   3.923  13.088  0.0419 -0.0262  0.2300
17233TIP3    H173190   1.475   4.003  13.116 -0.0803  0.4553 -1.2513
17233TIP3    H273191   1.612   3.944  13.091  0.0288  0.0325  0.2074
17234TIP3   OH273192   4.223   2.558  15.678 -0.1718 -0.3178  0.1450
17234TIP3    H173193   4.237   2.469  15.711 -0.2863 -0.2434  0.3936
17234TIP3    H273194   4.311   2.591  15.660 -0.1114 -0.3826  0.3152
17235TIP3   OH273195   1.915   3.069  12.949  0.0443 -0.5474 -0.1841
17235TIP3    H173196   1.858   2.992  12.944 -0.8869  0.0546  0.7771
17235TIP3    H273197   1.995   3.037  12.988 -1.4914 -0.4976  3.3569
17236TIP3   OH273198   4.719   4.108  11.545  0.3820 -0.7694 -0.0608
17236TIP3    H173199   4.814   4.114  11.556  0.2623 -0.4081  0.8931
17236TIP3    H273200   4.693   4.034  11.600 -0.3271  1.5389  2.9550
17237TIP3   OH273201   3.364   3.789  14.320 -0.2731  0.3990  0.2059
17237TIP3    H173202   3.288   3.771  14.375 -1.3168  1.9126 -0.6793
17237TIP3    H273203   3.379   3.707  14.273 -0.5657 -0.3054  1.2911
17238TIP3   OH273204   0.840   4.344  11.288  0.0227  0.1934 -0.4736
17238TIP3    H173205   0.888   4.278  11.238  1.8438  2.2562 -1.5943
17238TIP3    H273206   0.792   4.394  11.223 -0.9425  0.3443  0.3160
17239TIP3   OH273207   6.209   0.263  17.011  0.2442  0.2143  0.2708
17239TIP3    H173208   6.146   0.323  16.971  0.4368  0.6477  0.6054
17239TIP3    H273209   6.156   0.197  17.055  0.0296  0.2539  0.0761
17240TIP3   OH273210   3.251   5.188  10.870 -0.0610  0.9754 -0.3140
17240TIP3    H173211   3.327   5.222  10.919 -0.0481  1.9319 -0.9576
17240TIP3    H273212   3.202   5.267  10.845 -1.3175  0.3669  0.1535
17241TIP3   OH273213   0.349   0.443   6.001  0.3321 -0.2235 -0.2029
17241TIP3    H173214   0.314   0.528   6.031  1.5720 -0.0621  0.8625
17241TIP3    H273215   0.391   0.463   5.918 -0.5958 -0.0862 -0.6562
17242TIP3   OH273216   3.973   5.254   2.698  0.3482  0.6244 -0.3838
17242TIP3    H173217   3.907   5.307   2.653  2.1787  2.8353 -0.6510
17242TIP3    H273218   4.036   5.318   2.732  0.6441 -1.1477  2.7627
17243TIP3   OH273219   6.482   4.841   3.966  0.0959  0.1197 -0.4763
17243TIP3    H173220   6.441   4.757   3.987  0.9503 -0.2656 -0.3041
17243TIP3    H273221   6.410   4.895   3.934 -0.5191 -0.5839 -0.3201
17244TIP3   OH273222   4.147   0.023   4.657 -0.0333 -0.3557  0.2040
17244TIP3    H173223   4.178   0.053   4.742  1.2825  0.3210 -0.4705
17244TIP3    H273224   4.086   0.092   4.628 -1.1572 -1.0125  0.9444
17245TIP3   OH273225   4.006   5.137  11.030  0.5925  0.3071 -0.7341
17245TIP3    H173226   3.912   5.129  11.012 -0.0123  2.2755  1.0196
17245TIP3    H273227   4.032   5.216  10.983  1.2390  0.0918 -0.7402
17246TIP3   OH273228   4.501   4.993   4.349 -0.5205  0.2467  0.6481
17246TIP3    H173229   4.562   4.933   4.392  0.6842  1.8723  1.3213
17246TIP3    H273230   4.541   5.010   4.263 -0.4603  0.6350  0.7503
17247TIP3   OH273231   6.100   5.363  14.715 -0.4652  0.3141  0.4550
17247TIP3    H173232   6.032   5.382  14.779  0.5075  0.6289  1.4287
17247TIP3    H273233   6.159   5.302  14.761 -0.6989 -0.8911 -0.7706
17248TIP3   OH273234   0.549   5.143   1.629  0.0721 -0.1768 -0.3065
17248TIP3    H173235   0.617   5.183   1.683 -0.6887  2.3949 -1.1439
17248TIP3    H273236   0.472   5.141   1.685  0.0029 -0.1083 -0.3997
17249TIP3   OH273237   5.676   1.313   3.409 -0.0503 -1.0087 -0.4003
17249TIP3    H173238   5.664   1.405   3.387 -1.2326 -1.0073  0.1884
17249TIP3    H273239   5.770   1.304   3.423  0.2011 -0.1057 -1.3813
17250TIP3   OH273240   0.421   6.122   0.034  0.1190 -0.5161  0.3128
17250TIP3    H173241   0.378   6.067  -0.031  0.2113  0.3327 -0.4882
17250TIP3    H273242   0.481   6.063   0.080 -1.7674 -1.6847  1.3600
17251TIP3   OH273243   6.522   2.390  12.222  0.2896  0.4253 -0.0235
17251TIP3    H173244   6.530   2.432  12.136  0.1552 -0.7847 -0.6457
17251TIP3    H273245   6.459   2.319  12.208  0.6941 -0.1375  0.9386
17252TIP3   OH273246   2.426   2.096  16.546 -0.7774  0.2303  0.5886
17252TIP3    H173247   2.365   2.035  16.505 -1.1093  0.1350  1.2110
17252TIP3    H273248   2.509   2.080  16.502 -1.1272  0.1455 -0.0557
17253TIP3   OH273249   0.112   6.488  16.509  0.5956  0.5431  0.2199
17253TIP3    H173250   0.161   6.436  16.446 -0.4605 -0.2907  0.0484
17253TIP3    H273251   0.053   6.425  16.551  0.9614  1.1685  1.7333
17254TIP3   OH273252   2.562   2.297   3.058 -0.1536 -0.2010  0.6853
17254TIP3    H173253   2.628   2.236   3.093 -0.4064 -0.2362  1.0991
17254TIP3    H273254   2.585   2.381   3.097  0.6883  0.1561 -0.5125
17255TIP3   OH273255   6.752   3.937  16.621 -0.5758 -0.5483 -0.0724
17255TIP3    H173256   6.731   3.861  16.675  1.4983 -0.9553  0.2661
17255TIP3    H273257   6.785   4.002  16.682  0.4628 -0.4966 -0.6560
17256TIP3   OH273258   3.830   4.463  13.632 -0.8035  0.6097  0.5734
17256TIP3    H173259   3.750   4.474  13.581 -1.4270 -2.5822  0.6219
17256TIP3    H273260   3.809   4.499  13.718 -1.8121  0.7915  0.2619
17257TIP3   OH273261   4.783   4.279  11.918  0.1720  0.0896  0.3291
17257TIP3    H173262   4.769   4.190  11.885 -0.3387  0.0805  0.5647
17257TIP3    H273263   4.752   4.277  12.008 -0.7687  0.7574  0.0349
17258TIP3   OH273264   3.961   1.116  13.252 -0.0478  0.3028  0.2151
17258TIP3    H173265   3.966   1.190  13.191  2.0193 -0.1199 -0.2375
17258TIP3    H273266   3.870   1.112  13.279 -1.1979  0.2827 -3.1767
17259TIP3   OH273267   1.473   2.338  12.116  0.1365 -0.0527 -0.4707
17259TIP3    H173268   1.549   2.289  12.082 -1.1432 -2.5500  0.0784
17259TIP3    H273269   1.425   2.364  12.037  0.2222 -0.7666 -0.7743
17260TIP3   OH273270   6.386   0.717  12.744 -0.2249 -0.1897 -0.6785
17260TIP3    H173271   6.440   0.795  12.736  1.3626 -0.9523  1.5061
17260TIP3    H273272   6.308   0.747  12.792  0.0001  0.2114 -0.5560
17261TIP3   OH273273   6.021   1.914   6.318 -0.2082  0.0001  0.1822
17261TIP3    H173274   6.116   1.917   6.307 -0.2822 -1.6137 -1.2773
17261TIP3    H273275   5.998   2.002   6.347  1.5605  0.8554 -0.8222
17262TIP3   OH273276   0.824   6.458  16.815  0.0743 -0.1260 -0.4757
17262TIP3    H173277   0.802   6.551  16.815 -1.4690 -0.4577 -0.1873
17262TIP3    H273278   0.911   6.453  16.854 -0.5328  1.0405  1.0934
17263TIP3   OH273279   2.403   2.354  13.378  0.2481 -0.1781  0.0225
17263TIP3    H173280   2.467   2.282  13.376  0.7616  0.2016  1.7342
17263TIP3    H273281   2.343   2.333  13.306  1.2561 -1.4979 -0.4947
17264TIP3   OH273282   0.610   5.591  16.926  0.1001  0.2068 -0.0778
17264TIP3    H173283   0.657   5.553  17.001 -1.3187 -0.2301  0.6168
17264TIP3    H273284   0.640   5.682  16.923  1.7364 -0.2956 -0.2835
17265TIP3   OH273285   4.699   4.061  15.357  0.4955 -0.1026 -0.2877
17265TIP3    H173286   4.678   4.078  15.265  2.2305  2.0645 -0.3540
17265TIP3    H273287   4.734   3.972  15.357  0.9346  0.0389 -1.8216
17266TIP3   OH273288   3.230   3.582  13.974  0.1029 -0.3535  0.3336
17266TIP3    H173289   3.316   3.603  13.938  0.1404  2.7078  1.8912
17266TIP3    H273290   3.248   3.550  14.062 -0.3157  1.1966  1.0201
17267TIP3   OH273291   0.372   3.736   5.527 -0.4109 -0.0953 -0.1370
17267TIP3    H173292   0.417   3.652   5.525 -1.3203 -0.5839 -0.7284
17267TIP3    H273293   0.441   3.800   5.508  0.4213 -0.6234  0.9647
17268TIP3   OH273294   2.626   4.238   4.630 -0.2366  0.4782 -0.4743
17268TIP3    H173295   2.577   4.222   4.549 -1.2177 -0.8000  0.3385
17268TIP3    H273296   2.640   4.150   4.667  2.7501  0.7692 -0.6916
17269TIP3   OH273297   5.278   4.343  13.487 -0.5943 -0.0803  1.3094
17269TIP3    H173298   5.239   4.374  13.406  2.2236  0.2108 -0.0428
17269TIP3    H273299   5.306   4.423  13.532  0.8422 -0.3452  0.9295
17270TIP3   OH273300   5.813   5.701  11.599  0.1523  0.1193 -0.2972
17270TIP3    H173301   5.745   5.768  11.608  0.7089  0.7017 -0.3893
17270TIP3    H273302   5.836   5.702  11.506  1.9954  1.6586  0.1061
17271TIP3   OH273303   2.059   1.897   0.917  0.5763 -0.7083  0.5587
17271TIP3    H173304   2.072   1.928   1.007 -1.3946 -1.2202  1.0778
17271TIP3    H273305   1.994   1.957   0.880  2.1043  0.1252 -0.9204
17272TIP3   OH273306   6.471   4.127   4.281 -0.0318 -0.3352 -0.3135
17272TIP3    H173307   6.540   4.193   4.290 -0.9776  0.6352  0.0018
17272TIP3    H273308   6.426   4.150   4.200 -0.6688 -0.2922  0.0491
17273TIP3   OH273309   0.437   2.902   6.030 -0.6002 -0.3363 -0.2371
17273TIP3    H173310   0.431   2.996   6.011 -0.1242 -0.3732 -0.5791
17273TIP3    H273311   0.431   2.896   6.125 -3.1299 -0.1453 -0.2958
17274TIP3   OH273312   1.100   1.465   5.480 -0.4751  0.4315 -0.6278
17274TIP3    H173313   1.061   1.551   5.464  0.0874  0.3967 -2.4204
17274TIP3    H273314   1.083   1.415   5.399  1.5146 -0.2372 -0.6894
17275TIP3   OH273315   3.682   2.684   4.319 -0.5300 -0.4133 -0.0193
17275TIP3    H173316   3.711   2.748   4.384 -0.7694 -0.2997 -0.0232
17275TIP3    H273317   3.760   2.632   4.300  0.7070  2.0866 -2.5896
17276TIP3   OH273318   4.981   1.382   1.901  0.0412  0.7634  0.1001
17276TIP3    H173319   5.076   1.391   1.913 -0.4576  2.8552  3.8626
17276TIP3    H273320   4.952   1.469   1.875 -1.0342  0.7010  1.0103
17277TIP3   OH273321   6.736   4.581   4.450 -0.0110  0.2706  0.0831
17277TIP3    H173322   6.827   4.595   4.425 -0.2318  0.5297 -0.5822
17277TIP3    H273323   6.734   4.598   4.545  0.8823 -0.9673  0.3493
17278TIP3   OH273324   4.775   3.081   3.255  0.0608  0.1357  0.2664
17278TIP3    H173325   4.801   2.993   3.285  2.9092  1.0061  0.7071
17278TIP3    H273326   4.701   3.104   3.311 -1.0465 -2.1274 -0.1656
17279TIP3   OH273327   1.714   0.874   0.663  0.3923 -0.2195 -0.1962
17279TIP3    H173328   1.799   0.846   0.697  0.5779 -1.0461 -1.2553
17279TIP3    H273329   1.732   0.896   0.571 -0.6718 -1.2238 -0.6787
17280TIP3   OH273330   0.803   3.247   3.363 -0.3647  0.1267 -0.3012
17280TIP3    H173331   0.728   3.305   3.376  0.8375  1.3494  1.5766
17280TIP3    H273332   0.765   3.159   3.365 -1.6452  0.6417  1.9452
17281TIP3   OH273333   0.275   0.590   3.903 -0.0269  0.6068 -0.6051
17281TIP3    H173334   0.259   0.501   3.873  0.8944  0.1293  0.2523
17281TIP3    H273335   0.370   0.594   3.916 -0.2347  1.2056  0.8748
17282TIP3   OH273336   1.610   3.744   5.180  0.2793  0.1280 -0.4586
17282TIP3    H173337   1.517   3.728   5.198  0.6090 -0.9510  0.3914
17282TIP3    H273338   1.617   3.743   5.085 -0.6939  0.9657 -0.5620
17283TIP3   OH273339   6.277   2.264  11.110  0.4892 -0.3760 -0.1446
17283TIP3    H173340   6.255   2.302  11.025  2.3459 -1.9894 -1.4367
17283TIP3    H273341   6.199   2.213  11.133 -1.4868  2.8511  0.9806
17284TIP3   OH273342   0.646   6.439  11.662  0.4896  0.0827  0.0605
17284TIP3    H173343   0.662   6.494  11.586  1.7472  0.0375  0.2646
17284TIP3    H273344   0.672   6.494  11.737  2.7369 -1.0537  0.2125
17285TIP3   OH273345   1.455   4.679  15.174  0.5522  0.9305  0.5428
17285TIP3    H173346   1.429   4.588  15.155 -0.5275  1.3190  0.1026
17285TIP3    H273347   1.412   4.699  15.257  1.5521  0.7402  1.1155
17286TIP3   OH273348   0.390   1.000  13.343 -0.6185  0.9145  0.2457
17286TIP3    H173349   0.296   1.018  13.356 -0.5374 -0.1295  3.0242
17286TIP3    H273350   0.432   1.039  13.419  0.7167 -1.8898  1.0507
17287TIP3   OH273351   6.335   4.263   0.435  0.2307 -0.2565  0.1087
17287TIP3    H173352   6.350   4.268   0.340  0.6509 -0.4242  0.1649
17287TIP3    H273353   6.323   4.170   0.452  2.4003 -0.5224  0.5435
17288TIP3   OH273354   3.872   3.054   4.842 -0.1762 -0.1692 -0.2377
17288TIP3    H173355   3.866   3.063   4.937  1.0449  2.2256 -0.3250
17288TIP3    H273356   3.837   2.966   4.824  1.3104 -1.4774  2.5872
17289TIP3   OH273357   0.313   3.330   4.310  0.0225 -0.0248  0.4137
17289TIP3    H173358   0.235   3.275   4.306  0.9358 -1.3148 -0.7887
17289TIP3    H273359   0.376   3.286   4.254  1.3669  1.4047  0.7246
17290TIP3   OH273360   2.506   4.803  14.190 -0.6593  0.6163  0.4589
17290TIP3    H173361   2.474   4.869  14.251 -1.3893  0.1471  0.5917
17290TIP3    H273362   2.476   4.833  14.104 -0.5730  0.7049  0.4591
17291TIP3   OH273363   3.771   6.690   2.988  0.1445  0.2911 -0.1989
17291TIP3    H173364   3.831   6.617   2.999 -0.3954 -0.0702  0.4619
17291TIP3    H273365   3.685   6.653   3.009 -0.5889  0.3447 -2.7677
17292TIP3   OH273366   6.798   2.353  15.601 -0.1002  0.1389  0.2016
17292TIP3    H173367   6.875   2.390  15.644 -0.7258 -0.0723  1.5318
17292TIP3    H273368   6.779   2.415  15.530  2.0137 -0.4449 -0.9745
17293TIP3   OH273369   1.573   2.008   1.532 -0.2857 -0.1432  0.1323
17293TIP3    H173370   1.567   1.913   1.541  0.5771 -0.3121 -0.8702
17293TIP3    H273371   1.482   2.037   1.525 -0.6847 -0.6421  2.5191
17294TIP3   OH273372   3.134   4.255   3.711 -0.5938  0.1401  0.8595
17294TIP3    H173373   3.186   4.238   3.790 -1.0870 -0.6290  1.0315
17294TIP3    H273374   3.053   4.294   3.743 -1.1798 -1.0133  0.8331
17295TIP3   OH273375   5.266   1.204   2.209 -0.8278  0.0258  0.5342
17295TIP3    H173376   5.177   1.189   2.242 -0.6764 -0.0196  0.9236
17295TIP3    H273377   5.262   1.175   2.118 -1.2522  0.1642  0.5056
17296TIP3   OH273378   5.439   6.491  13.545 -0.3512 -0.1035  0.2602
17296TIP3    H173379   5.346   6.471  13.549 -0.5992  1.0290  0.4711
17296TIP3    H273380   5.445   6.585  13.565  1.0467 -0.6600  3.0391
17297TIP3   OH273381   1.297   3.986  14.279  0.3902  0.2559  0.1784
17297TIP3    H173382   1.210   3.994  14.240 -0.7747 -2.5724  1.8833
17297TIP3    H273383   1.305   3.893  14.301  3.9592  0.3708 -0.0666
17298TIP3   OH273384   5.373   0.341   0.759  0.2307  0.2416  0.4236
17298TIP3    H173385   5.440   0.275   0.775  0.0559 -0.1609 -0.4556
17298TIP3    H273386   5.336   0.359   0.846 -0.7871 -1.9385  0.5072
17299TIP3   OH273387   1.931   0.693   6.114 -0.5916  0.8090 -0.1570
17299TIP3    H173388   1.949   0.745   6.036  0.5811  0.5455 -0.0769
17299TIP3    H273389   2.016   0.685   6.158 -0.8225 -0.8030  0.0575
17300TIP3   OH273390   5.447   5.454   1.927  0.3117 -0.1871 -0.0924
17300TIP3    H173391   5.475   5.395   1.857 -0.6571  1.2792 -1.7949
17300TIP3    H273392   5.483   5.540   1.902 -1.4256  0.7022  0.2814
17301TIP3   OH273393   0.948   3.269  14.792 -0.1412 -0.5419  0.7816
17301TIP3    H173394   1.010   3.298  14.859  0.7780  0.1350 -0.3313
17301TIP3    H273395   0.867   3.255  14.840  0.8758 -1.5758  2.3085
17302TIP3   OH273396   4.051   6.161  14.403  0.1060 -0.0869 -0.2754
17302TIP3    H173397   4.128   6.192  14.451 -0.2292 -1.8343  1.5458
17302TIP3    H273398   4.086   6.100  14.338  0.2830 -1.2969  0.9075
17303TIP3   OH273399   6.328   4.094   5.992  0.0137 -0.0809  0.1151
17303TIP3    H173400   6.340   4.188   5.981  0.5515 -0.2125 -0.5317
17303TIP3    H273401   6.331   4.080   6.087 -2.4677  0.8274  0.3774
17304TIP3   OH273402   0.018   5.295  15.273 -0.0075  0.2804 -0.0283
17304TIP3    H173403   0.021   5.291  15.177  1.0579  1.8817 -0.1011
17304TIP3    H273404   0.036   5.205  15.301 -3.8371 -1.0947 -1.2914
17305TIP3   OH273405   1.775   1.125   5.891  0.3400  0.2482  0.4147
17305TIP3    H173406   1.709   1.080   5.945 -0.0819 -0.4066 -0.6115
17305TIP3    H273407   1.725   1.163   5.819  0.9427  0.7402  0.2492
17306TIP3   OH273408   3.999   6.595  13.309 -0.3525  0.1273 -0.6378
17306TIP3    H173409   3.944   6.554  13.242 -0.6227 -0.1600 -0.2388
17306TIP3    H273410   4.018   6.525  13.371  1.5751 -0.1584 -1.4448
17307TIP3   OH273411   4.578   3.605   4.888 -0.5726  0.5257 -0.5454
17307TIP3    H173412   4.613   3.680   4.936 -0.6104  0.8576 -1.0337
17307TIP3    H273413   4.520   3.643   4.822  0.5547  0.1626 -1.7731
17308TIP3   OH273414   3.627   0.184  16.325  0.6101  0.7951 -0.4488
17308TIP3    H173415   3.700   0.129  16.295  2.4879  2.5170  0.7598
17308TIP3    H273416   3.643   0.195  16.419 -0.4886  2.2823 -0.4211
17309TIP3   OH273417   3.621   5.394  15.808 -0.0091 -0.2995 -0.2388
17309TIP3    H173418   3.630   5.482  15.772  0.6567 -0.4228 -0.3745
17309TIP3    H273419   3.546   5.400  15.867  0.2885  0.4575  0.0650
17310TIP3   OH273420   1.628   2.689  10.516 -0.0103  0.0712 -0.4059
17310TIP3    H173421   1.548   2.636  10.512 -0.7843  0.8582  2.3725
17310TIP3    H273422   1.697   2.626  10.537 -0.1458 -0.3927 -1.2911
17311TIP3   OH273423   4.176   4.645  11.570  0.8673  0.2598 -0.2635
17311TIP3    H173424   4.143   4.710  11.632  0.3481 -2.7086  2.9381
17311TIP3    H273425   4.099   4.618  11.521  0.6255  0.5046 -0.0247
17312TIP3   OH273426   3.542   0.038   6.688  0.5055  0.1599  0.1304
17312TIP3    H173427   3.619  -0.011   6.658 -0.7711 -2.0546  0.2667
17312TIP3    H273428   3.532   0.108   6.624  2.0641 -0.0651 -0.4183
17313TIP3   OH273429   6.689   2.636   1.126 -0.0411  0.0724 -0.0717
17313TIP3    H173430   6.695   2.546   1.157  0.6065  0.9040  2.4712
17313TIP3    H273431   6.761   2.645   1.063 -0.9522 -1.4911 -1.4317
17314TIP3   OH273432   0.850   3.657  15.160  0.3891 -0.2168  0.7851
17314TIP3    H173433   0.936   3.685  15.128  0.4091 -1.7360 -0.6298
17314TIP3    H273434   0.804   3.739  15.179  1.2919  0.7186 -0.8006
17315TIP3   OH273435   3.755   3.241   5.487 -0.2907  0.0232 -0.0236
17315TIP3    H173436   3.785   3.150   5.475 -1.4163 -0.6273  1.6425
17315TIP3    H273437   3.833   3.288   5.515 -0.2000 -1.0541  1.6850
17316TIP3   OH273438   1.317   0.092   0.137  0.0164  0.2317 -0.2311
17316TIP3    H173439   1.334   0.032   0.210 -1.0044 -1.0847 -1.0063
17316TIP3    H273440   1.333   0.038   0.059 -1.2892  0.8426 -0.9514
17317TIP3   OH273441   0.892   0.357   0.151 -0.3416  0.1178  0.0450
17317TIP3    H173442   0.975   0.354   0.104 -0.1821  2.7723  0.0186
17317TIP3    H273443   0.865   0.265   0.159  0.9750 -0.6112 -2.7930
17318TIP3   OH273444   4.729   3.766   5.076  0.3361 -0.1184 -0.2275
17318TIP3    H173445   4.696   3.856   5.076  0.4447 -0.0780 -0.0010
17318TIP3    H273446   4.802   3.767   5.139  0.8430 -0.1812 -0.8105
17319TIP3   OH273447   5.573   4.614   3.207 -0.6626 -0.3543  0.2380
17319TIP3    H173448   5.537   4.540   3.159  0.5263 -0.4962 -0.4706
17319TIP3    H273449   5.590   4.681   3.141 -0.4061  0.0110  0.6629
17320TIP3   OH273450   5.694   3.479   4.985 -0.0390 -0.3446 -0.5162
17320TIP3    H173451   5.639   3.479   4.907 -1.1418  1.2432  0.1895
17320TIP3    H273452   5.638   3.515   5.054  2.2188  2.5590 -0.0111
17321TIP3   OH273453   3.032   6.257   2.047  0.1220 -0.5160  0.6158
17321TIP3    H173454   3.125   6.278   2.053  0.0588  0.3959 -1.1288
17321TIP3    H273455   3.022   6.177   2.099  1.8356 -0.5329  0.9606
17322TIP3   OH273456   0.414   5.617   5.328  0.3426  0.2469  0.7478
17322TIP3    H173457   0.411   5.601   5.422  0.8257  0.4491  0.8005
17322TIP3    H273458   0.409   5.530   5.288  2.6677 -0.0694  1.0214
17323TIP3   OH273459   2.570   1.354   3.273 -0.1537 -0.1935 -0.3774
17323TIP3    H173460   2.527   1.295   3.335 -1.4794 -0.7723 -1.7634
17323TIP3    H273461   2.613   1.295   3.210  1.0483  0.3728 -0.1165
17324TIP3   OH273462   2.462   4.620  12.857  0.5964 -0.4970  0.5414
17324TIP3    H173463   2.491   4.674  12.783  0.8373 -0.8623  0.3646
17324TIP3    H273464   2.379   4.659  12.884  1.1587  0.4562  0.9371
17325TIP3   OH273465   4.740   2.507  15.163  0.1599 -0.1625 -0.5135
17325TIP3    H173466   4.835   2.499  15.166  0.3483  1.9666  0.6284
17325TIP3    H273467   4.717   2.554  15.243 -1.6145  1.3401 -1.8287
17326TIP3   OH273468   4.684   0.172   4.151 -0.1579 -0.2474 -0.2131
17326TIP3    H173469   4.629   0.112   4.101  0.6239 -1.1102 -0.0679
17326TIP3    H273470   4.623   0.237   4.186 -0.9475 -0.6411 -0.8302
17327TIP3   OH273471   5.927   5.700  10.248 -0.2955 -0.3283  0.7444
17327TIP3    H173472   5.988   5.683  10.177 -1.3012 -0.0599 -0.1973
17327TIP3    H273473   5.981   5.741  10.316  1.2781 -3.1663  1.3483
17328TIP3   OH273474   1.648   6.686  12.556 -0.1062  0.0771 -0.6670
17328TIP3    H173475   1.601   6.769  12.559 -0.0471  0.1085 -0.6008
17328TIP3    H273476   1.734   6.706  12.594  0.4870  0.3732 -2.0974
17329TIP3   OH273477   4.847   1.742  10.547 -0.2262  0.3652 -0.1787
17329TIP3    H173478   4.772   1.709  10.596 -0.8537  0.2052 -1.2226
17329TIP3    H273479   4.870   1.824  10.591 -1.2096  0.5781 -0.0393
17330TIP3   OH273480   1.988   1.498   0.105 -0.6557 -0.1579  0.1904
17330TIP3    H173481   1.999   1.593   0.105  1.0229 -0.3005 -1.4630
17330TIP3    H273482   1.927   1.480   0.034  2.2077 -0.4810 -2.4264
17331TIP3   OH273483   2.020   2.208   3.076 -0.1057 -0.0375 -0.4317
17331TIP3    H173484   2.000   2.301   3.075  0.4408  0.0844 -1.6422
17331TIP3    H273485   2.090   2.197   3.012  0.5027 -1.1441  0.3702
17332TIP3   OH273486   0.351   0.033   0.622 -0.5933 -0.5670 -0.5515
17332TIP3    H173487   0.442   0.039   0.654 -0.1818 -0.8496 -1.6208
17332TIP3    H273488   0.302  -0.003   0.696  0.5663 -2.4967 -0.6476
17333TIP3   OH273489   4.642   2.283   5.171  0.2401  0.0387  0.3958
17333TIP3    H173490   4.687   2.202   5.147  1.1229  0.1212  1.6650
17333TIP3    H273491   4.631   2.329   5.088  1.0071 -0.7466 -0.1698
17334TIP3   OH273492   1.301   4.009   6.047 -0.3093 -0.1839  0.4921
17334TIP3    H173493   1.283   3.926   6.003  1.5774  0.3013 -1.3310
17334TIP3    H273494   1.394   4.005   6.068 -0.1293  1.5538  0.1659
17335TIP3   OH273495   4.646   0.749   0.701  0.0074 -0.4281 -0.0415
17335TIP3    H173496   4.726   0.706   0.729 -0.0603 -0.3981  0.1995
17335TIP3    H273497   4.674   0.835   0.672  0.0676 -0.4281  0.0162
17336TIP3   OH273498   5.917   4.880  13.978  0.2809 -0.2004 -0.3329
17336TIP3    H173499   6.005   4.845  13.992  0.2056 -0.5387 -0.6746
17336TIP3    H273500   5.900   4.865  13.885 -0.4346 -0.8492 -0.1128
17337TIP3   OH273501   2.373   2.718   6.846  0.3818  0.0130  0.1494
17337TIP3    H173502   2.418   2.653   6.900  0.8749 -0.1860 -0.4895
17337TIP3    H273503   2.436   2.740   6.777  0.0974  0.9265  0.1666
17338TIP3   OH273504   3.634   5.106   0.113 -0.0949  0.1654  0.0604
17338TIP3    H173505   3.571   5.172   0.144 -0.8957  0.8340 -2.7060
17338TIP3    H273506   3.707   5.158   0.078  2.1036 -0.5984  3.1568
17339TIP3   OH273507   6.483   0.664   1.918 -0.1526  0.1938  0.1106
17339TIP3    H173508   6.545   0.731   1.947  1.3651 -0.8321 -0.6331
17339TIP3    H273509   6.406   0.713   1.890 -0.3827  1.4259  2.5567
17340TIP3   OH273510   1.925   2.800   5.516  0.1424 -0.2016  0.4787
17340TIP3    H173511   1.914   2.858   5.590 -0.7980  0.8675 -0.4615
17340TIP3    H273512   1.841   2.755   5.508 -0.1521  0.4890 -0.5665
17341TIP3   OH273513   4.542   5.105  17.251  0.0936  0.1255 -0.2739
17341TIP3    H173514   4.544   5.064  17.338 -1.4214 -1.6475 -1.0159
17341TIP3    H273515   4.613   5.168  17.253  1.5694 -1.4794  1.4845
17342TIP3   OH273516   0.185   3.108   4.815 -0.1809 -0.4555 -0.2353
17342TIP3    H173517   0.185   3.073   4.904  0.7187  0.2001  0.0415
17342TIP3    H273518   0.205   3.033   4.760  1.6522 -0.4512  0.3423
17343TIP3   OH273519   2.902   2.116  16.812  0.0220 -0.1246  0.1086
17343TIP3    H173520   2.994   2.119  16.786 -0.4169 -0.6612 -1.6703
17343TIP3    H273521   2.876   2.024  16.798 -0.2225 -0.5738  2.8570
17344TIP3   OH273522   4.356   3.596  10.994  0.1464 -0.5176  0.2249
17344TIP3    H173523   4.276   3.588  10.942  1.9124 -1.7214 -2.5745
17344TIP3    H273524   4.404   3.668  10.954  1.8031 -1.8079 -0.2229
17345TIP3   OH273525   2.424   0.566  12.010  0.2216 -0.0867  0.6306
17345TIP3    H173526   2.508   0.544  11.969  0.3302  3.5047 -1.5899
17345TIP3    H273527   2.361   0.509  11.967  0.9847  0.4513 -1.3591
17346TIP3   OH273528   4.629   2.291   0.519 -0.6263  0.0395 -0.5078
17346TIP3    H173529   4.709   2.317   0.565  0.9669 -1.7694 -2.0704
17346TIP3    H273530   4.571   2.258   0.587  1.5933 -2.4244  0.3470
17347TIP3   OH273531   5.722   2.195   6.999 -0.4467  0.5381 -0.2285
17347TIP3    H173532   5.722   2.219   6.907  0.1834  0.2865 -0.2967
17347TIP3    H273533   5.659   2.254   7.040 -0.6170  0.7471 -0.7918
17348TIP3   OH273534   5.255   6.288  14.914 -0.4329 -0.5768  0.6727
17348TIP3    H173535   5.258   6.366  14.968  1.4750 -0.6631  0.7627
17348TIP3    H273536   5.267   6.215  14.975 -0.7009 -0.8430  0.4134
17349TIP3   OH273537   2.160   3.359   5.241 -0.0958  0.0946  0.1891
17349TIP3    H173538   2.104   3.281   5.232  0.8467 -0.6541  0.6830
17349TIP3    H273539   2.213   3.360   5.162 -1.4096  1.3396 -0.7366
17350TIP3   OH273540   5.827   6.660   0.272  0.4040 -0.5771 -0.1705
17350TIP3    H173541   5.765   6.646   0.343 -0.2995 -1.4305 -0.9253
17350TIP3    H273542   5.909   6.685   0.316 -0.3969  0.3217  0.8515
17351TIP3   OH273543   1.132   3.675   2.162 -0.2323  0.1398  0.3469
17351TIP3    H173544   1.062   3.740   2.162 -0.6956 -0.3010 -1.1936
17351TIP3    H273545   1.158   3.666   2.254 -1.3125  1.2477  0.7788
17352TIP3   OH273546   4.000   5.701   4.723 -0.0555 -0.2070 -0.0044
17352TIP3    H173547   3.909   5.698   4.752  0.5290 -0.9439  1.9575
17352TIP3    H273548   4.008   5.631   4.659 -1.0440  0.4440 -0.8720
17353TIP3   OH273549   0.603   5.885   1.006  0.2501 -0.2506  0.0265
17353TIP3    H173550   0.562   5.937   0.937 -1.3929 -2.2387 -0.5800
17353TIP3    H273551   0.612   5.797   0.968  2.7212 -0.5561  1.0825
17354TIP3   OH273552   6.243   6.821  15.438 -0.1971  0.3926 -0.9144
17354TIP3    H173553   6.208   6.745  15.484  0.6292  0.3449 -0.3429
17354TIP3    H273554   6.226   6.894  15.497 -0.2660  0.5313 -1.1050
17355TIP3   OH273555   1.639   0.847   4.559  0.0422  0.2506  0.3500
17355TIP3    H173556   1.575   0.786   4.596  0.8513 -1.2832 -0.6538
17355TIP3    H273557   1.716   0.836   4.614 -0.4222  1.9102  1.4016
17356TIP3   OH273558   1.657   5.256  12.219  0.3117 -0.4489 -0.6951
17356TIP3    H173559   1.643   5.232  12.311  0.5124 -0.4845 -0.6723
17356TIP3    H273560   1.659   5.351  12.219 -0.2377 -0.4335 -0.7478
17357TIP3   OH273561   1.125   0.424   6.239  0.2644 -0.5807  0.5805
17357TIP3    H173562   1.084   0.486   6.298 -1.4233 -1.8636  0.8244
17357TIP3    H273563   1.211   0.407   6.278  0.5768  1.1816  0.7535
17358TIP3   OH273564   4.280   1.602   5.792  0.0001  0.1703  0.1264
17358TIP3    H173565   4.212   1.665   5.812 -1.9685 -1.8898  0.3599
17358TIP3    H273566   4.290   1.550   5.872  2.4170  0.8624  0.3427
17359TIP3   OH273567   6.353   4.095   4.540  0.7537  1.3503  0.5208
17359TIP3    H173568   6.389   4.090   4.452 -0.2160  1.8515  0.0818
17359TIP3    H273569   6.382   4.014   4.583 -0.2324  0.2311 -0.8321
17360TIP3   OH273570   5.824   1.463   0.304 -0.0798  0.0417  0.3371
17360TIP3    H173571   5.746   1.408   0.301  0.1630 -0.3186  0.4957
17360TIP3    H273572   5.802   1.540   0.252 -0.7333  0.1925  0.8172
17361TIP3   OH273573   6.415   4.583   0.489 -0.8652 -0.1546 -0.1069
17361TIP3    H173574   6.368   4.500   0.494 -0.2722 -0.4488  1.4439
17361TIP3    H273575   6.382   4.633   0.564  0.5140  0.0151  0.4266
17362TIP3   OH273576   4.980   0.279  15.905  0.1273  0.4464  0.2654
17362TIP3    H173577   5.048   0.343  15.883  0.9983 -0.4035  0.4049
17362TIP3    H273578   4.952   0.244  15.820 -1.3050  1.9298  0.0866
17363TIP3   OH273579   6.187   1.728  12.695  0.0063 -0.5861 -0.7562
17363TIP3    H173580   6.196   1.710  12.789 -0.7846  1.2606 -0.2827
17363TIP3    H273581   6.196   1.642  12.654  2.0009 -1.2351  0.8558
17364TIP3   OH273582   4.213   0.446   3.884  0.5078  0.5325 -0.9450
17364TIP3    H173583   4.128   0.446   3.839  0.6505  3.3676 -1.4562
17364TIP3    H273584   4.275   0.472   3.816  1.2834  1.4119  0.0702
17365TIP3   OH273585   6.620   6.322  14.608  0.1852 -0.0187 -0.1520
17365TIP3    H173586   6.534   6.301  14.642  0.2665  0.3035  0.2582
17365TIP3    H273587   6.680   6.265  14.656  0.0536 -1.5404 -1.6711
17366TIP3   OH273588   5.956   3.435   5.488  0.0866  0.5916 -0.3108
17366TIP3    H173589   5.962   3.520   5.445 -0.1169 -0.0212 -1.6029
17366TIP3    H273590   5.870   3.401   5.463  2.2145 -2.5359 -4.9081
17367TIP3   OH273591   2.336   0.167   0.555 -0.3525  0.2338  0.2132
17367TIP3    H173592   2.306   0.157   0.645  1.2459 -0.1582  0.7472
17367TIP3    H273593   2.357   0.260   0.546  2.2616 -0.1575  1.2584
17368TIP3   OH273594   5.385   1.304  15.790  0.3360  0.5025  0.0352
17368TIP3    H173595   5.319   1.356  15.836 -0.0406  0.9571 -0.9832
17368TIP3    H273596   5.346   1.218  15.781  0.3934  0.4250  0.5216
17369TIP3   OH273597   6.041   2.697  13.476  0.5711 -0.3181  0.1997
17369TIP3    H173598   6.063   2.678  13.567 -1.0303  0.5246  0.8028
17369TIP3    H273599   6.073   2.785  13.460 -0.9521  0.3481  0.6327
17370TIP3   OH273600   3.219   5.503   2.705  0.1580  0.1790 -0.4727
17370TIP3    H173601   3.226   5.563   2.780  2.4378 -0.7119  0.0891
17370TIP3    H273602   3.169   5.429   2.739 -0.5034  0.6202 -0.4463
17371TIP3   OH273603   3.816   4.881  16.630  0.1764 -0.1587 -0.2497
17371TIP3    H173604   3.880   4.940  16.672  0.0886 -0.2068 -0.0434
17371TIP3    H273605   3.764   4.847  16.703  0.2432 -0.5135 -0.3651
17372TIP3   OH273606   3.839   0.327  13.349 -0.1859  0.5265 -0.7426
17372TIP3    H173607   3.825   0.422  13.346 -1.4893  0.4080  0.5562
17372TIP3    H273608   3.752   0.290  13.331  0.3997 -0.4526 -1.7036
17373TIP3   OH273609   2.704   3.629  14.806 -0.3979 -0.3621  0.4106
17373TIP3    H173610   2.763   3.589  14.870 -0.3289  1.2361  1.4102
17373TIP3    H273611   2.758   3.693  14.759 -0.9324 -0.0743  0.1790
17374TIP3   OH273612   4.687   4.904  13.084  0.4244  0.5351 -0.0281
17374TIP3    H173613   4.636   4.922  13.163  0.3894  1.7722 -0.3019
17374TIP3    H273614   4.702   4.810  13.086 -0.6498  0.3578  0.7963
17375TIP3   OH273615   6.367   1.993  15.955 -0.0533  0.0416 -0.6512
17375TIP3    H173616   6.442   2.051  15.966 -0.4487  0.6537 -1.1047
17375TIP3    H273617   6.314   2.035  15.887 -0.2074 -1.0013 -1.1922
17376TIP3   OH273618   2.709   0.268   0.468  0.3550  0.0211  0.2284
17376TIP3    H173619   2.770   0.339   0.487  2.5036 -1.2279 -1.6051
17376TIP3    H273620   2.714   0.211   0.545 -0.8293  1.3796  1.3815
17377TIP3   OH273621   1.591   4.461   4.729  0.0973 -0.2501 -0.3593
17377TIP3    H173622   1.597   4.538   4.673 -1.3457 -0.0715 -0.3167
17377TIP3    H273623   1.573   4.496   4.816 -0.6163 -0.6200 -0.3473
17378TIP3   OH273624   2.400   0.706   2.403 -0.2513  0.3161  0.8596
17378TIP3    H173625   2.494   0.708   2.383 -0.3470  0.1214  0.3702
17378TIP3    H273626   2.383   0.789   2.447 -0.2077  1.2263 -0.7632
17379TIP3   OH273627   2.975   6.250   5.129  0.4161  0.2915  0.4459
17379TIP3    H173628   2.936   6.253   5.042 -1.3020 -1.3090  1.0823
17379TIP3    H273629   3.068   6.232   5.113  0.5102  1.9423 -1.0718
17380TIP3   OH273630   3.358   3.442   1.449  0.0862  0.4608 -0.3217
17380TIP3    H173631   3.317   3.459   1.364  1.9615  1.2011 -1.1109
17380TIP3    H273632   3.289   3.462   1.512 -0.2171  3.7213 -1.5157
17381TIP3   OH273633   2.410   4.274  14.279  0.6651  0.4135  0.1987
17381TIP3    H173634   2.398   4.327  14.200  0.0030  0.2017  0.1534
17381TIP3    H273635   2.403   4.336  14.352  1.1839  0.5942  0.1005
17382TIP3   OH273636   2.045   0.161  12.714 -0.0404  0.3455  0.0678
17382TIP3    H173637   1.961   0.131  12.748  0.3089 -0.2317  0.4411
17382TIP3    H273638   2.023   0.206  12.632 -0.6599 -0.2569 -0.1095
17383TIP3   OH273639   1.224   0.319  13.681 -0.2008 -0.1365 -0.0533
17383TIP3    H173640   1.180   0.353  13.759 -0.5525 -3.3129  1.3054
17383TIP3    H273641   1.314   0.302  13.710  0.4181  1.0611 -1.1668
17384TIP3   OH273642   5.975   3.076   1.365 -0.0211  0.1207  0.0290
17384TIP3    H173643   6.050   3.073   1.425  0.6058  1.3946 -0.6584
17384TIP3    H273644   5.938   2.988   1.369  1.3180 -0.4440  0.6337
17385TIP3   OH273645   6.679   0.639   3.965 -0.3153 -0.1551 -0.4512
17385TIP3    H173646   6.696   0.609   3.876  0.5853 -2.4366  0.4132
17385TIP3    H273647   6.601   0.590   3.992 -1.0527  1.1090 -0.2247
17386TIP3   OH273648   2.604   2.853  14.336  0.0308  0.4137 -0.4047
17386TIP3    H173649   2.556   2.782  14.380 -0.3276  0.8914  0.0028
17386TIP3    H273650   2.693   2.846  14.369 -0.1417  0.5121  0.1085
17387TIP3   OH273651   6.035   1.873   5.045  0.1746 -0.1253  0.7220
17387TIP3    H173652   6.056   1.839   4.958 -1.0997 -0.6040  0.5677
17387TIP3    H273653   5.976   1.807   5.082 -1.2858  1.2369  0.9540
17388TIP3   OH273654   3.107   2.576  14.798  0.0398  0.2355 -0.4203
17388TIP3    H173655   3.049   2.538  14.732 -0.6044  0.8051 -0.1902
17388TIP3    H273656   3.048   2.617  14.861  0.6476 -0.1602  0.4342
17389TIP3   OH273657   0.771   6.595   5.654  0.6003  0.2714 -0.1992
17389TIP3    H173658   0.708   6.651   5.608  2.5165  1.9819 -0.8817
17389TIP3    H273659   0.769   6.626   5.744  2.0809  1.9755 -0.6879
17390TIP3   OH273660   4.253   1.683  12.396 -0.1925 -0.9491 -0.1894
17390TIP3    H173661   4.276   1.737  12.471 -0.4015  0.7506 -1.2930
17390TIP3    H273662   4.298   1.724  12.322 -0.0009 -2.5566 -1.0280
17391TIP3   OH273663   0.811   4.700   5.071 -0.6081  0.3373 -0.0298
17391TIP3    H173664   0.716   4.689   5.072 -0.8184  1.9559 -0.2540
17391TIP3    H273665   0.832   4.721   4.980 -0.1027  0.5074  0.1225
17392TIP3   OH273666   1.716   4.344   0.683  0.7006  0.8553 -0.0754
17392TIP3    H173667   1.670   4.428   0.679  0.3530  0.6354 -0.6632
17392TIP3    H273668   1.704   4.306   0.597 -0.5042 -0.5285  0.6689
17393TIP3   OH273669   5.715   0.065   4.428  0.2351  0.8892 -0.5211
17393TIP3    H173670   5.736   0.159   4.435 -0.3236  1.1582 -2.0876
17393TIP3    H273671   5.651   0.050   4.497  2.0148  1.1153  1.2643
17394TIP3   OH273672   3.747   2.078  11.958 -0.1001  0.3335 -0.2590
17394TIP3    H173673   3.712   2.076  12.047 -0.5748 -0.8491 -0.4466
17394TIP3    H273674   3.816   2.144  11.960  0.8912 -0.6915  1.3620
17395TIP3   OH273675   0.290   1.885  15.124 -0.0927  0.2470  0.4191
17395TIP3    H173676   0.223   1.834  15.079 -0.6963  1.1238  0.2907
17395TIP3    H273677   0.351   1.820  15.159 -1.0361 -0.5711  0.5730
17396TIP3   OH273678   0.321   2.095  15.755  0.1052  0.3396 -0.3371
17396TIP3    H173679   0.232   2.060  15.750  0.4208 -0.5485  0.1010
17396TIP3    H273680   0.365   2.058  15.679  0.2551  0.3288 -0.2449
17397TIP3   OH273681   5.756   2.591   2.215  0.1509 -0.0165  0.0925
17397TIP3    H173682   5.680   2.630   2.174 -0.9440 -1.9379  0.1794
17397TIP3    H273683   5.720   2.527   2.277  1.8008 -1.7185 -0.6026
17398TIP3   OH273684   6.316   4.893  15.840 -0.1725 -0.1175 -0.0547
17398TIP3    H173685   6.374   4.853  15.905 -0.9610  0.2812  0.9113
17398TIP3    H273686   6.228   4.882  15.876 -0.6939 -0.4809 -1.3812
17399TIP3   OH273687   0.406   1.938  15.548 -0.0623  0.0212  0.1399
17399TIP3    H173688   0.343   1.867  15.562  1.7084 -1.5734  0.5250
17399TIP3    H273689   0.418   1.940  15.453  2.0328 -2.3134  0.2505
17400TIP3   OH273690   1.273   6.637  15.453 -0.0780  0.0560 -0.4982
17400TIP3    H173691   1.223   6.559  15.428 -0.9471  0.3946  0.1426
17400TIP3    H273692   1.325   6.610  15.528 -0.1530  0.0103 -0.4633
17401TIP3   OH273693   1.554   0.264   5.637  0.2377  0.0960 -0.1401
17401TIP3    H173694   1.596   0.240   5.554 -1.1963 -2.0713 -0.3369
17401TIP3    H273695   1.495   0.190   5.655  0.5338  0.4957  2.8491
17402TIP3   OH273696   5.170   3.095   1.162  0.1553 -0.2992 -0.0915
17402TIP3    H173697   5.256   3.093   1.202  0.5733 -1.1384 -0.9976
17402TIP3    H273698   5.161   3.184   1.128  1.3097 -0.6318 -1.3303
17403TIP3   OH273699   5.276   4.963  13.781 -0.3543  0.0563  0.6877
17403TIP3    H173700   5.324   4.913  13.847  2.0654  1.8153  0.3907
17403TIP3    H273701   5.184   4.943  13.798  0.3898 -2.7332  1.9167
17404TIP3   OH273702   0.616   5.339   3.930 -0.1224  0.3090 -0.2578
17404TIP3    H173703   0.698   5.368   3.971 -0.6882  0.6916  0.6326
17404TIP3    H273704   0.580   5.275   3.991  0.3269 -1.1241 -1.4583
17405TIP3   OH273705   6.275   1.395   6.015  0.4259  0.1098  0.8977
17405TIP3    H173706   6.246   1.427   6.100  1.7042  0.9869  1.0289
17405TIP3    H273707   6.357   1.350   6.032  0.0740 -0.8059  0.2864
17406TIP3   OH273708   0.510   2.260  12.571  0.3220 -0.1256 -0.3387
17406TIP3    H173709   0.478   2.335  12.520 -0.8158 -0.0716  0.4228
17406TIP3    H273710   0.442   2.194  12.561  1.2106 -0.9854 -0.8054
17407TIP3   OH273711   3.079   2.597  12.466 -0.3668 -0.0727 -0.0928
17407TIP3    H173712   3.018   2.550  12.409 -0.4246 -0.2227  0.0905
17407TIP3    H273713   3.024   2.659  12.513 -0.0519  1.3337 -1.5199
17408TIP3   OH273714   1.330   1.448  14.366 -0.5197 -0.2090  0.2350
17408TIP3    H173715   1.264   1.418  14.429 -1.9666 -1.7415 -1.8676
17408TIP3    H273716   1.295   1.530  14.332 -1.5915 -1.1960 -1.1319
17409TIP3   OH273717   1.544   6.003   6.260  0.6391  0.8033  0.2075
17409TIP3    H173718   1.574   5.923   6.216 -1.9349  0.9974 -2.2471
17409TIP3    H273719   1.454   5.983   6.285  0.3956  2.5116  0.7567
17410TIP3   OH273720   0.008   3.165   3.326  0.1776  0.1263  0.0258
17410TIP3    H173721  -0.024   3.082   3.359  3.0574 -1.6138 -1.1445
17410TIP3    H273722  -0.013   3.228   3.395 -2.6887 -1.3378  0.6634
17411TIP3   OH273723   0.721   2.203  11.846 -0.2610 -0.0481  0.3828
17411TIP3    H173724   0.783   2.220  11.775 -1.6824  0.3776 -0.8206
17411TIP3    H273725   0.644   2.256  11.824 -1.1078 -0.6564  1.7377
17412TIP3   OH273726   2.069   1.694   6.077  0.1006 -0.1781  0.3056
17412TIP3    H173727   2.019   1.671   6.155 -0.6451  1.1984  0.2662
17412TIP3    H273728   2.116   1.774   6.102  1.3160 -0.7533 -0.0676
17413TIP3   OH273729   5.451   0.411   1.381 -0.6986  0.1873 -0.2529
17413TIP3    H173730   5.487   0.460   1.307  1.7819  0.0691  0.8023
17413TIP3    H273731   5.380   0.359   1.343  0.8516 -0.2974 -2.7013
17414TIP3   OH273732   5.552   2.797  14.599 -0.9980  0.2153 -0.0114
17414TIP3    H173733   5.646   2.803  14.581 -0.9652 -1.5105 -0.5731
17414TIP3    H273734   5.546   2.781  14.693 -0.7693  0.8262  0.1137
17415TIP3   OH273735   5.072   1.144  11.018  1.1868  0.1357  0.1191
17415TIP3    H173736   5.017   1.089  10.962  2.3219 -1.0208  0.0638
17415TIP3    H273737   5.049   1.117  11.107  1.9945 -0.7525  0.0862
17416TIP3   OH273738   0.422   3.885   1.203  0.4264  0.1348 -0.3544
17416TIP3    H173739   0.392   3.962   1.155  1.7002  2.1519  1.8852
17416TIP3    H273740   0.450   3.824   1.134  0.5352  2.1558 -2.2191
17417TIP3   OH273741   3.846   3.066  14.559  0.3859 -0.5759 -0.4329
17417TIP3    H173742   3.810   2.977  14.556  0.2009 -0.4871 -2.0071
17417TIP3    H273743   3.841   3.092  14.651 -2.3583 -1.0575 -0.3686
17418TIP3   OH273744   3.207   3.705  15.441  0.3804 -0.4571  0.2741
17418TIP3    H173745   3.301   3.708  15.420  0.3354 -1.0531 -0.0665
17418TIP3    H273746   3.184   3.613  15.428 -0.2567 -0.3060  0.3359
17419TIP3   OH273747   5.446   5.050   1.628  0.3012 -0.3115 -0.4265
17419TIP3    H173748   5.498   4.971   1.617 -0.2491 -0.8107  0.4749
17419TIP3    H273749   5.499   5.106   1.684 -1.1311 -1.8620  2.7016
17420TIP3   OH273750   1.671   1.651   5.257  0.0829 -0.4173 -0.0332
17420TIP3    H173751   1.589   1.680   5.295  0.0300  0.0835 -0.5104
17420TIP3    H273752   1.734   1.720   5.279  0.0708 -0.1630 -0.7662
17421TIP3   OH273753   3.682   2.845   2.595  0.3503  0.3095  0.1090
17421TIP3    H173754   3.690   2.828   2.501 -0.4934  0.2533  0.0329
17421TIP3    H273755   3.616   2.914   2.601 -1.0016 -0.9833  0.7343
17422TIP3   OH273756   4.368   3.218  14.090  0.5207  0.5722 -0.6693
17422TIP3    H173757   4.418   3.286  14.136 -0.1979  1.0199 -0.5500
17422TIP3    H273758   4.313   3.266  14.029 -1.2092  0.2286  0.5631
17423TIP3   OH273759   6.795   4.089   5.258 -0.7944 -0.1837 -0.3833
17423TIP3    H173760   6.705   4.063   5.238 -0.8341 -0.4060  0.0825
17423TIP3    H273761   6.809   4.060   5.348  0.4261 -2.0398 -1.1142
17424TIP3   OH273762   5.705   2.788   5.476  0.0884  0.4834 -0.0958
17424TIP3    H173763   5.673   2.705   5.443  2.0896 -0.3647 -0.0545
17424TIP3    H273764   5.713   2.844   5.398 -0.0440  0.2022 -0.3116
17425TIP3   OH273765   1.930   4.574  14.850  0.3534 -0.2600  0.0148
17425TIP3    H173766   1.981   4.516  14.793  0.7288  0.1154 -0.0356
17425TIP3    H273767   1.843   4.576  14.810  0.6399  0.0782 -0.6091
17426TIP3   OH273768   0.349   4.093  11.034  0.3102  0.4251 -0.2124
17426TIP3    H173769   0.353   4.166  10.971  0.3288  0.6681  0.0666
17426TIP3    H273770   0.302   4.024  10.988  0.2520  0.6316 -0.4651
17427TIP3   OH273771   4.601   5.871   6.155  0.2278 -0.6137 -0.2235
17427TIP3    H173772   4.539   5.809   6.194  0.1530  0.4073  1.3830
17427TIP3    H273773   4.642   5.914   6.230 -0.2532  1.8023 -1.2528
17428TIP3   OH273774   5.334   2.174  12.697 -0.0135  0.2440 -0.1076
17428TIP3    H173775   5.301   2.257  12.662  0.0039 -0.0894 -0.9314
17428TIP3    H273776   5.349   2.120  12.620  0.3331 -0.3974  0.4032
17429TIP3   OH273777   4.173   2.942  16.221  0.9154 -0.2756 -0.3358
17429TIP3    H173778   4.090   2.919  16.180  0.1588 -0.5028  1.2623
17429TIP3    H273779   4.217   2.858  16.235  0.1133 -0.4567  1.4216
17430TIP3   OH273780   2.074   5.458  11.687  0.1714  0.2479  0.1341
17430TIP3    H173781   2.035   5.374  11.709 -0.4272 -0.2530 -2.4476
17430TIP3    H273782   2.153   5.464  11.741  0.0386 -1.8168  0.6159
17431TIP3   OH273783   2.142   0.663   5.133 -0.7507  0.0288  0.5179
17431TIP3    H173784   2.068   0.643   5.076 -0.6234  1.9922 -0.3877
17431TIP3    H273785   2.204   0.591   5.118 -1.2921 -0.1829 -0.8209
17432TIP3   OH273786   6.020   3.294   6.468 -0.1986  0.0275 -0.1802
17432TIP3    H173787   6.026   3.379   6.424 -1.5598  0.6596  0.7815
17432TIP3    H273788   5.949   3.304   6.531  0.3072 -1.5050  0.7041
17433TIP3   OH273789   0.407   1.450   4.746 -0.3545  0.4186 -0.7620
17433TIP3    H173790   0.484   1.475   4.694  0.6464  0.3094  0.5966
17433TIP3    H273791   0.400   1.518   4.813 -0.7292 -0.1963 -0.1637
17434TIP3   OH273792   2.601   2.254   1.025 -0.1167 -0.1269  0.7012
17434TIP3    H173793   2.653   2.282   0.949  0.9433 -2.5406  0.4566
17434TIP3    H273794   2.556   2.175   0.995 -1.5092  0.1638  1.9141
17435TIP3   OH273795   6.649   6.407  13.235 -0.1275 -0.4256 -0.3778
17435TIP3    H173796   6.558   6.429  13.216 -0.5568 -1.6657  0.1360
17435TIP3    H273797   6.690   6.491  13.257 -1.2878  0.0585 -0.0029
17436TIP3   OH273798   0.100   2.464   5.469  0.6431  0.0360  0.5573
17436TIP3    H173799   0.006   2.483   5.466  1.0097  2.4790  1.6245
17436TIP3    H273800   0.130   2.479   5.379  0.2343  0.6693  0.5202
17437TIP3   OH273801   3.040   0.608   3.032 -0.1209 -0.1604  0.3543
17437TIP3    H173802   3.021   0.520   3.000  0.4691 -0.4809  0.8517
17437TIP3    H273803   3.005   0.667   2.965  0.3367 -0.7885 -0.4533
17438TIP3   OH273804   3.097   1.612  15.286 -0.5992 -0.1034  0.2576
17438TIP3    H173805   3.123   1.549  15.353 -0.2138 -1.4401 -1.0868
17438TIP3    H273806   3.001   1.609  15.287 -0.6619  1.0119  1.7195
17439TIP3   OH273807   0.051   2.486   4.334  0.2777 -0.4647  0.0644
17439TIP3    H173808   0.102   2.405   4.331 -0.5212 -1.0181  0.9967
17439TIP3    H273809  -0.039   2.458   4.319 -0.0048  0.2599  0.3846
17440TIP3   OH273810   0.456   5.090   0.350  0.4066 -0.3376 -0.6587
17440TIP3    H173811   0.453   5.139   0.433 -0.3189 -0.4415 -0.6132
17440TIP3    H273812   0.377   5.035   0.352 -0.7889  1.1731 -2.3209
17441TIP3   OH273813   3.767   3.247  11.648  0.3231  0.4270 -0.0807
17441TIP3    H173814   3.733   3.289  11.727 -1.1913  1.4327 -1.1803
17441TIP3    H273815   3.859   3.229  11.667  0.3659  1.9425  1.3902
17442TIP3   OH273816   3.412   5.254   0.138  0.2647 -0.0113 -0.0669
17442TIP3    H173817   3.452   5.313   0.074  1.2151 -0.7818 -0.2192
17442TIP3    H273818   3.399   5.307   0.216  1.1848  0.3919 -0.1751
17443TIP3   OH273819   2.613   2.012  16.372 -0.6448 -0.3428 -0.7317
17443TIP3    H173820   2.590   1.985  16.283 -0.1776 -1.0889 -0.6307
17443TIP3    H273821   2.663   1.939  16.408 -0.4920  0.1119  0.0130
17444TIP3   OH273822   2.214   6.301  15.878  0.1547  0.0039 -0.1410
17444TIP3    H173823   2.172   6.366  15.935  2.5271  1.7680 -0.2947
17444TIP3    H273824   2.269   6.250  15.937  0.1259 -0.3188 -0.3907
17445TIP3   OH273825   4.668   1.748   1.404 -0.2903 -0.1258  0.0854
17445TIP3    H173826   4.611   1.823   1.385  0.6604  1.0182  1.5393
17445TIP3    H273827   4.662   1.737   1.499  1.7034 -0.1199  0.2504
17446TIP3   OH273828   0.778   2.631  15.217  0.4133 -0.4617 -0.5108
17446TIP3    H173829   0.721   2.708  15.227  0.3749 -0.4648 -0.6982
17446TIP3    H273830   0.775   2.612  15.123 -0.2053 -1.1737 -0.3549
17447TIP3   OH273831   3.941   6.257  12.815 -0.3027  0.5441 -0.0449
17447TIP3    H173832   3.973   6.345  12.837 -0.8240  1.0452 -1.1751
17447TIP3    H273833   3.992   6.233  12.737  0.2856 -0.4418  0.6206
17448TIP3   OH273834   4.650   1.612  12.183  0.0728 -0.3289 -0.2465
17448TIP3    H173835   4.741   1.611  12.211  0.5782  1.4537 -1.6456
17448TIP3    H273836   4.647   1.675  12.112 -1.8489 -1.9227 -1.7183
17449TIP3   OH273837   5.155   6.643   6.425 -0.2503 -0.3876 -0.7579
17449TIP3    H173838   5.211   6.634   6.348  1.1300  0.3475  0.1189
17449TIP3    H273839   5.216   6.644   6.499 -1.4742 -0.1580  0.2814
17450TIP3   OH273840   4.000   3.778   3.401 -0.4308 -0.2616  0.3400
17450TIP3    H173841   4.054   3.699   3.396  1.5432  1.0300  0.4380
17450TIP3    H273842   3.942   3.771   3.325  2.1768 -0.1167 -1.8372
17451TIP3   OH273843   2.113   5.976  10.415 -0.4811 -0.2751  0.3684
17451TIP3    H173844   2.061   5.977  10.495  0.3077 -1.0263  0.9081
17451TIP3    H273845   2.165   5.896  10.421 -1.9146 -1.4637 -1.9075
17452TIP3   OH273846   6.673   1.119  11.586  1.0233  0.7675  0.5870
17452TIP3    H173847   6.693   1.025  11.590 -2.6356 -0.1999 -0.3277
17452TIP3    H273848   6.666   1.138  11.493 -1.5801  0.9995  0.7479
17453TIP3   OH273849   5.887   5.136  13.035 -0.6276 -0.4641  0.3914
17453TIP3    H173850   5.962   5.164  12.983 -1.5169 -1.6509 -1.6452
17453TIP3    H273851   5.886   5.196  13.109  1.4485  0.5145 -0.2839
17454TIP3   OH273852   2.677   3.081   4.136  0.2267  0.3215 -0.0277
17454TIP3    H173853   2.731   3.050   4.064  0.7366 -1.8367  1.1913
17454TIP3    H273854   2.717   3.043   4.214 -1.8157  0.3860  1.1229
17455TIP3   OH273855   0.126   1.066   4.018  0.1363 -0.0011 -0.8015
17455TIP3    H173856   0.137   0.981   3.976  0.0620  0.3479 -1.5463
17455TIP3    H273857   0.044   1.059   4.067  0.3388 -0.4857 -0.5265
17456TIP3   OH273858   5.220   3.978  17.268 -0.0759  0.2474  0.0313
17456TIP3    H173859   5.145   4.006  17.214 -0.6911 -1.5394 -0.1097
17456TIP3    H273860   5.292   3.971  17.206  0.4395  2.5417  0.2602
17457TIP3   OH273861   0.548   2.241  14.059  0.1105 -0.4121  0.3511
17457TIP3    H173862   0.521   2.233  14.150  0.2121  1.0113  0.5323
17457TIP3    H273863   0.639   2.272  14.064  0.9420 -2.5578 -0.2524
17458TIP3   OH273864   3.642   1.711  13.037 -0.4731 -0.3788  0.1745
17458TIP3    H173865   3.680   1.623  13.040  2.1475  0.6963  1.5712
17458TIP3    H273866   3.561   1.703  13.086  0.2649 -1.8115  1.2478
17459TIP3   OH273867   4.312   6.622   5.037  0.3908  0.2067 -0.2793
17459TIP3    H173868   4.267   6.540   5.020  0.6014  0.2411 -1.0103
17459TIP3    H273869   4.404   6.598   5.042  0.3406  0.1910  0.8725
17460TIP3   OH273870   2.195   3.941   1.741  0.4620  0.0771  0.4445
17460TIP3    H173871   2.148   3.859   1.724  1.2412 -0.0421 -1.3268
17460TIP3    H273872   2.265   3.917   1.801  0.8991 -0.6526 -0.3335
17461TIP3   OH273873   3.786   3.733  14.944 -0.3368 -0.1489  0.3621
17461TIP3    H173874   3.723   3.800  14.972 -0.4748 -0.9208  1.9564
17461TIP3    H273875   3.853   3.734  15.011  0.1845 -0.9291 -0.1387
17462TIP3   OH273876   6.777   1.606  13.466 -0.7995  0.0740  0.3570
17462TIP3    H173877   6.768   1.683  13.522  4.3144  1.2961 -0.0019
17462TIP3    H273878   6.822   1.542  13.521 -0.9372 -0.9478 -0.6777
17463TIP3   OH273879   1.844   5.138   3.344 -0.0918 -0.1155  0.0677
17463TIP3    H173880   1.789   5.062   3.329 -1.7841  1.6649 -4.2941
17463TIP3    H273881   1.934   5.104   3.340 -0.7022 -2.2837  2.1518
17464TIP3   OH273882   4.168   6.561  14.225  0.0334  0.1094 -0.0820
17464TIP3    H173883   4.161   6.655  14.241  1.3677  0.0162  1.2363
17464TIP3    H273884   4.090   6.524  14.266  0.1783  0.5309  0.6004
17465TIP3   OH273885   2.115   5.299  12.176  0.2634  0.1459 -0.1203
17465TIP3    H173886   2.114   5.216  12.223 -1.9772  1.2248  1.9172
17465TIP3    H273887   2.162   5.359  12.234  1.8451  0.3915 -1.5647
17466TIP3   OH273888   3.675   3.177   1.729 -0.1262 -0.0412  0.2411
17466TIP3    H173889   3.677   3.233   1.652  1.9435 -1.1835 -0.6218
17466TIP3    H273890   3.667   3.237   1.803 -2.9812  1.0422 -0.8099
17467TIP3   OH273891   1.719   2.964  16.328  0.6847 -0.4394  0.1026
17467TIP3    H173892   1.791   2.954  16.390  1.1910  0.7107 -0.2729
17467TIP3    H273893   1.752   2.926  16.247  1.0901  0.5704 -0.2178
17468TIP3   OH273894   6.298   2.873  16.685  0.7266 -0.0496  0.1387
17468TIP3    H173895   6.361   2.809  16.718  0.8363  1.0746  2.3502
17468TIP3    H273896   6.256   2.830  16.611  2.0883 -1.9260  0.3769
17469TIP3   OH273897   2.768   6.624  16.182 -0.1838 -0.2547 -0.1921
17469TIP3    H173898   2.714   6.672  16.246 -1.4896 -0.6906 -0.9321
17469TIP3    H273899   2.820   6.564  16.235  0.3317  0.8635  0.6210
17470TIP3   OH273900   3.203   6.376   5.494 -0.1980 -0.2909 -0.0843
17470TIP3    H173901   3.119   6.342   5.462 -0.9528  0.4658  1.0612
17470TIP3    H273902   3.230   6.312   5.560 -0.4243  0.0355  0.3300
17471TIP3   OH273903   4.053   4.032   5.505  1.2382 -0.5434 -0.3047
17471TIP3    H173904   4.075   4.048   5.413 -1.4165  0.1018 -0.9094
17471TIP3    H273905   4.008   4.112   5.532  1.6735 -0.8675  1.4796
17472TIP3   OH273906   5.054   1.095  14.654  0.2306  0.5860 -0.1557
17472TIP3    H173907   5.044   1.178  14.609 -0.5797  0.4580 -0.2180
17472TIP3    H273908   4.996   1.101  14.730 -1.8541 -0.8729 -1.5365
17473TIP3   OH273909   3.018   6.372  11.309 -0.9070 -0.9898 -0.0068
17473TIP3    H173910   2.950   6.418  11.261 -0.5575  0.3291  0.7082
17473TIP3    H273911   3.003   6.395  11.401  1.3834  0.6476  0.0594
17474TIP3   OH273912   1.289   3.008   2.930  0.0677  0.0863  0.4043
17474TIP3    H173913   1.249   2.965   3.006  0.7372 -0.2048  0.5968
17474TIP3    H273914   1.365   3.054   2.965  0.0711  0.4018 -0.0045
17475TIP3   OH273915   4.919   5.432  13.567  0.1165  0.2572  0.4185
17475TIP3    H173916   5.006   5.423  13.527  0.9309  1.4348  1.8135
17475TIP3    H273917   4.925   5.511  13.620 -0.8746 -1.1521  2.8357
17476TIP3   OH273918   4.609   2.128  11.155 -0.2081  0.1236  0.0125
17476TIP3    H173919   4.553   2.181  11.097 -0.7344 -1.6644 -1.2088
17476TIP3    H273920   4.547   2.074  11.204  0.3662 -0.1184  0.4707
17477TIP3   OH273921   3.562   4.645  14.173 -0.4073 -0.8797 -0.3240
17477TIP3    H173922   3.528   4.562  14.206  1.2008 -1.9103 -1.1214
17477TIP3    H273923   3.589   4.625  14.083  1.7588 -0.0228  0.0804
17478TIP3   OH273924   0.192   5.500   4.406 -0.4290  0.4756  0.5663
17478TIP3    H173925   0.259   5.565   4.428 -1.0280  1.9197 -1.5154
17478TIP3    H273926   0.233   5.446   4.338 -0.4630 -0.4074  1.2247
17479TIP3   OH273927   4.988   4.089  17.147  0.7843 -0.7744 -0.2101
17479TIP3    H173928   4.958   4.101  17.056  0.9668  1.8314 -0.0129
17479TIP3    H273929   4.961   4.170  17.191  0.5353 -2.0563  2.1407
17480TIP3   OH273930   0.824   2.425  15.813 -0.5423  0.3512  0.3212
17480TIP3    H173931   0.845   2.452  15.723 -1.2965  1.5624  0.4746
17480TIP3    H273932   0.729   2.413  15.811 -0.5146  0.0581  0.8723
17481TIP3   OH273933   5.760   5.706  14.271  0.0522  0.2482 -0.0691
17481TIP3    H173934   5.673   5.713  14.232 -0.2410 -1.3963  0.2323
17481TIP3    H273935   5.764   5.617  14.305  1.3511  0.7358  1.1486
17482TIP3   OH273936   1.641   5.492  16.580  0.1352 -0.0639 -0.1922
17482TIP3    H173937   1.693   5.454  16.510  1.4352  1.9042 -0.3682
17482TIP3    H273938   1.551   5.469  16.558  0.7251 -1.7284 -1.0443
17483TIP3   OH273939   4.985   5.036   4.781 -0.1029 -0.0933 -0.0862
17483TIP3    H173940   5.039   5.055   4.857 -0.8628  1.7647  0.0399
17483TIP3    H273941   4.907   5.089   4.793 -2.0079 -2.6740 -0.2768
17484TIP3   OH273942   0.251   3.560  13.093  0.0112 -0.0285 -0.2012
17484TIP3    H173943   0.178   3.532  13.148  0.3540  0.4635  0.5345
17484TIP3    H273944   0.325   3.507  13.122  0.4573  0.9981  0.6054
17485TIP3   OH273945   6.072   0.446  12.256 -0.0605  0.3874  1.1442
17485TIP3    H173946   6.161   0.477  12.276  1.2666 -1.5141 -1.2046
17485TIP3    H273947   6.024   0.525  12.230  0.8680  1.4736  2.5762
17486TIP3   OH273948   5.962   2.659  12.231  0.7429 -0.2416  0.2212
17486TIP3    H173949   5.934   2.707  12.309 -1.6741 -1.5504  0.2762
17486TIP3    H273950   5.995   2.576  12.265 -0.7391 -1.0018 -0.0865
17487TIP3   OH273951   5.819   3.168   2.575  0.7492  0.6839 -0.2769
17487TIP3    H173952   5.800   3.184   2.483 -0.0796  1.4877  0.0159
17487TIP3    H273953   5.905   3.207   2.590  0.7319  0.8552 -0.6297
17488TIP3   OH273954   6.555   2.551   6.442 -0.5071 -0.4372  0.1013
17488TIP3    H173955   6.549   2.471   6.493 -1.1259 -0.9110 -0.7007
17488TIP3    H273956   6.521   2.619   6.500 -0.1811 -0.7797  0.7038
17489TIP3   OH273957   4.153   4.256   1.732 -0.9874 -0.1777 -0.1373
17489TIP3    H173958   4.076   4.274   1.679 -0.7502 -0.1157 -0.4622
17489TIP3    H273959   4.154   4.326   1.798 -2.5452 -1.4992  1.3888
17490TIP3   OH273960   2.494   2.344   6.438  0.6604 -0.7071  0.5315
17490TIP3    H173961   2.422   2.296   6.479  0.1031 -1.5017 -1.2795
17490TIP3    H273962   2.571   2.290   6.453  0.0658 -2.1623 -1.3543
17491TIP3   OH273963   6.432   5.368   2.785 -0.0227  0.2237 -0.5392
17491TIP3    H173964   6.337   5.363   2.775 -0.0581 -0.2549 -0.0242
17491TIP3    H273965   6.463   5.280   2.761  0.2629  0.2931 -0.4281
17492TIP3   OH273966   5.831   4.257   1.089  0.6048 -0.6170 -0.1881
17492TIP3    H173967   5.772   4.295   1.154  1.0324 -0.6265  0.2179
17492TIP3    H273968   5.870   4.333   1.045  1.2749 -0.5779  0.4543
17493TIP3   OH273969   3.910   0.142   3.603  0.2323  0.1549 -0.1299
17493TIP3    H173970   3.860   0.151   3.684  0.6067  0.0854  0.1120
17493TIP3    H273971   3.897   0.225   3.557 -0.6362 -0.1067 -0.3751
17494TIP3   OH273972   5.453   4.980   6.044 -0.5847  0.2136  0.7780
17494TIP3    H173973   5.432   4.906   5.987  1.5135 -1.8258  2.4357
17494TIP3    H273974   5.369   5.005   6.083 -1.5701 -0.3058 -0.9179
17495TIP3   OH273975   1.920   0.925  12.346  0.0572 -0.0052  0.3088
17495TIP3    H173976   1.892   1.013  12.369 -0.9972 -0.1586 -0.3461
17495TIP3    H273977   1.842   0.870  12.358  0.6091 -0.7933  0.3973
17496TIP3   OH273978   0.333   3.800   1.453  0.0380  0.9566 -0.0480
17496TIP3    H173979   0.407   3.748   1.483 -1.3134 -0.1265  1.6540
17496TIP3    H273980   0.351   3.817   1.361  0.8578 -2.0711 -0.5649
17497TIP3   OH273981   3.537   0.205  13.263  0.3620  0.0657  0.5317
17497TIP3    H173982   3.527   0.111  13.280  0.7334  0.4006  2.9636
17497TIP3    H273983   3.564   0.210  13.172 -1.8596 -2.0334 -0.3638
17498TIP3   OH273984   1.599   3.793  14.363 -0.1099  0.1201  0.1011
17498TIP3    H173985   1.551   3.741  14.426  1.9109 -1.4984  0.4324
17498TIP3    H273986   1.650   3.854  14.416  0.1838  0.0202 -0.0612
17499TIP3   OH273987   2.991   6.573   2.205  0.0927  0.2341 -0.2794
17499TIP3    H173988   2.976   6.482   2.230 -0.9804  0.0188 -1.6164
17499TIP3    H273989   2.926   6.591   2.138  1.0002  1.6586 -0.8274
17500TIP3   OH273990   3.114   1.196   1.137  0.0288  0.3829  0.2576
17500TIP3    H173991   3.178   1.235   1.195  1.6361  0.9316 -1.7683
17500TIP3    H273992   3.162   1.128   1.089 -1.3939 -0.4948 -0.0139
17501TIP3   OH273993   6.072   4.867   2.561 -0.8118  0.0336  0.4726
17501TIP3    H173994   6.156   4.881   2.519 -1.3687 -0.2177 -0.7554
17501TIP3    H273995   6.068   4.772   2.577 -1.3382 -0.1235 -0.5319
17502TIP3   OH273996   0.258   1.962  10.605 -0.8951 -0.5009  0.2315
17502TIP3    H173997   0.259   1.901  10.678  0.4028 -0.7827  0.0043
17502TIP3    H273998   0.218   1.912  10.533 -2.8754  0.0189  0.8975
17503TIP3   OH273999   3.057   0.185   0.469 -1.2621  0.5755  0.1418
17503TIP3    H174000   3.015   0.172   0.384 -0.1339  0.2801 -0.3858
17503TIP3    H274001   3.054   0.099   0.511  0.7679 -0.0541 -0.8389
17504TIP3   OH274002   5.719   5.242  11.610  0.4812  0.0229 -0.7297
17504TIP3    H174003   5.775   5.188  11.666 -0.2170 -0.0368 -0.0738
17504TIP3    H274004   5.723   5.329  11.648  0.8429  0.2228 -1.2181
17505TIP3   OH274005   5.726   3.230   1.859  0.1927 -0.1871 -0.5372
17505TIP3    H174006   5.801   3.283   1.887 -0.6919  0.1822  1.3392
17505TIP3    H274007   5.760   3.174   1.790  2.4326 -0.6966  0.8915
17506TIP3   OH274008   1.252   2.748  14.079 -0.3536 -0.2862  0.2402
17506TIP3    H174009   1.333   2.739  14.129 -1.0099 -0.7482  1.2474
17506TIP3    H274010   1.268   2.699  13.998  0.3366 -0.4518  0.4715
17507TIP3   OH274011   2.801   1.399   1.378 -0.0017 -0.1615 -0.0840
17507TIP3    H174012   2.741   1.467   1.345  0.6478  0.7189  0.5056
17507TIP3    H274013   2.825   1.348   1.300  0.7026  1.2428 -0.8238
17508TIP3   OH274014   4.913   6.336  15.875  0.2546 -0.3953 -0.1782
17508TIP3    H174015   4.830   6.297  15.849  0.6874 -0.5748 -1.3230
17508TIP3    H274016   4.972   6.318  15.803  0.7834  1.3779 -0.2494
17509TIP3   OH274017   2.306   1.851   0.825  0.1701  0.2509 -0.5695
17509TIP3    H174018   2.295   1.808   0.740  1.5162 -0.0770 -0.6039
17509TIP3    H274019   2.221   1.889   0.844 -0.1970  0.1995 -1.9999
17510TIP3   OH274020   5.137   3.992  15.724  0.0549 -0.0464 -0.0762
17510TIP3    H174021   5.152   3.917  15.666  0.0061 -0.7523  0.7903
17510TIP3    H274022   5.077   4.048  15.676 -0.3099 -0.8194 -0.5425
17511TIP3   OH274023   4.032   3.412  14.206  0.1327  0.3591 -0.3657
17511TIP3    H174024   3.947   3.388  14.243  0.1949 -1.1602 -1.1244
17511TIP3    H274025   4.020   3.501  14.173 -1.6973 -0.4195 -1.9428
17512TIP3   OH274026   6.696   0.355  12.161 -0.0554 -0.3763 -0.1680
17512TIP3    H174027   6.711   0.261  12.148 -2.1821 -0.8389  0.4071
17512TIP3    H274028   6.606   0.369  12.133  0.6384  1.8131 -1.6404
17513TIP3   OH274029   3.229   1.592   1.863  0.3363 -0.9855  0.0788
17513TIP3    H174030   3.258   1.627   1.947 -0.7152 -0.7219  0.3479
17513TIP3    H274031   3.143   1.554   1.882  0.9784 -2.7879 -0.4269
17514TIP3   OH274032   2.656   3.220  14.507 -0.2205 -0.0975 -0.2899
17514TIP3    H174033   2.714   3.144  14.519 -1.8084 -1.1087  1.5731
17514TIP3    H274034   2.698   3.289  14.559 -0.7682 -0.9269  1.3453
17515TIP3   OH274035   6.513   6.315  10.875 -0.4401 -0.5815 -0.4303
17515TIP3    H174036   6.446   6.267  10.923 -1.8407  2.5846  1.0747
17515TIP3    H274037   6.594   6.268  10.894 -1.6418 -2.1915  1.0605
17516TIP3   OH274038   4.621   3.084   5.566 -0.1842 -0.2968  0.3336
17516TIP3    H174039   4.547   3.128   5.524  0.0567 -0.3993 -0.1992
17516TIP3    H274040   4.676   3.154   5.599 -1.6335 -0.1742  2.7798
17517TIP3   OH274041   0.768   2.453   5.161 -0.2177 -1.1258 -0.3223
17517TIP3    H174042   0.843   2.402   5.190  0.3461 -0.3807 -0.4252
17517TIP3    H274043   0.712   2.461   5.238  0.7372 -0.0795  0.2759
17518TIP3   OH274044   4.205   2.909   1.780 -0.3365 -0.0888 -0.0332
17518TIP3    H174045   4.121   2.949   1.799  0.8585  2.5729  0.1187
17518TIP3    H274046   4.227   2.860   1.860 -2.1424 -1.7469 -0.4733
17519TIP3   OH274047   4.363   1.895   4.492  0.0219  0.1569 -0.6931
17519TIP3    H174048   4.388   1.972   4.442  0.2780  0.7927  0.3769
17519TIP3    H274049   4.280   1.867   4.455 -0.4220  1.3672 -0.6527
17520TIP3   OH274050   4.758   5.277  11.669 -0.5637 -0.8671 -0.5910
17520TIP3    H174051   4.714   5.207  11.620 -0.8700 -0.9815 -0.1550
17520TIP3    H274052   4.789   5.338  11.602 -0.6560 -1.2131 -0.9476
17521TIP3   OH274053   1.335   3.404   2.822 -0.1111 -0.4671  0.1447
17521TIP3    H174054   1.370   3.393   2.910 -0.4054  1.1779  0.5046
17521TIP3    H274055   1.249   3.362   2.825 -0.6982  0.7367  1.0694
17522TIP3   OH274056   2.847   3.814  14.691 -0.0784  0.2783 -0.4825
17522TIP3    H174057   2.823   3.896  14.734 -1.0433  0.4088 -1.2403
17522TIP3    H274058   2.783   3.804  14.621 -0.3372 -1.4047 -0.0522
17523TIP3   OH274059   6.399   6.003  15.920 -0.0491  0.0255 -0.7578
17523TIP3    H174060   6.322   5.990  15.865 -0.8116  0.8189  0.0926
17523TIP3    H274061   6.385   6.088  15.962  2.8840  1.9071 -3.1554
17524TIP3   OH274062   2.910   6.315   2.305 -0.1810 -0.5103  0.1746
17524TIP3    H174063   2.934   6.230   2.268 -0.0892 -0.6301  0.5071
17524TIP3    H274064   2.885   6.296   2.395 -0.5988 -0.2466  0.1141
17525TIP3   OH274065   6.577   3.122   1.565  0.0323 -0.0256 -0.1748
17525TIP3    H174066   6.502   3.137   1.623 -0.4716  0.9651 -1.0399
17525TIP3    H274067   6.593   3.207   1.524  0.5391 -0.6279 -1.2800
17526TIP3   OH274068   3.177   2.979   5.096 -0.4444 -0.2392 -0.5334
17526TIP3    H174069   3.172   2.986   5.000  0.2940  0.5935 -0.5247
17526TIP3    H274070   3.270   2.986   5.115 -0.5900 -0.4137  0.2518
17527TIP3   OH274071   5.572   4.929  14.825 -0.4191  0.2190 -0.2670
17527TIP3    H174072   5.543   5.002  14.770 -0.1457  0.9464  0.5313
17527TIP3    H274073   5.667   4.939  14.830 -0.0718 -1.5427 -2.0153
17528TIP3   OH274074   4.405   4.674   1.697  0.2733 -0.7966 -1.0894
17528TIP3    H174075   4.464   4.742   1.731  2.4053 -2.1789 -1.8297
17528TIP3    H274076   4.358   4.717   1.626  0.4820  0.3073 -0.5806
17529TIP3   OH274077   1.742   4.288   5.499 -0.7724 -0.1775  0.1339
17529TIP3    H174078   1.719   4.217   5.560  2.6418 -1.4340  0.1655
17529TIP3    H274079   1.796   4.347   5.551 -0.9769  0.7788 -0.7279
17530TIP3   OH274080   2.473   2.250  16.163 -0.2850 -0.0072 -0.0864
17530TIP3    H174081   2.482   2.278  16.254  2.3955  0.5461 -0.4506
17530TIP3    H274082   2.463   2.155  16.168 -2.8172  0.2168  0.8281
17531TIP3   OH274083   1.937   5.280   4.668  0.7050 -0.1994  0.1861
17531TIP3    H174084   1.991   5.234   4.733 -0.2796 -1.8680 -0.1105
17531TIP3    H274085   1.887   5.210   4.625 -1.1258  1.2021 -0.0826
17532TIP3   OH274086   3.076   3.934  14.548 -0.0301 -0.1858  0.2158
17532TIP3    H174087   2.999   3.896  14.592  0.1181 -1.9448 -0.9301
17532TIP3    H274088   3.148   3.875  14.570  0.6317  0.4748 -0.1280
17533TIP3   OH274089   3.000   5.730  14.067  0.2821  0.2890 -0.1370
17533TIP3    H174090   3.035   5.792  14.004  1.8775  3.1638  3.2427
17533TIP3    H274091   3.074   5.709  14.124 -1.8530  1.3585  3.3415
17534TIP3   OH274092   6.193   4.906   4.899  0.3093 -0.0513  0.1720
17534TIP3    H174093   6.217   4.971   4.833  1.5631 -0.8852 -0.2156
17534TIP3    H274094   6.144   4.840   4.851  0.7873 -0.4049  0.1637
17535TIP3   OH274095   2.613   2.257   2.772  0.1884 -0.4495  0.1975
17535TIP3    H174096   2.692   2.287   2.727 -0.9828  0.7773 -1.1414
17535TIP3    H274097   2.600   2.321   2.842  0.2820 -0.5639  0.3208
17536TIP3   OH274098   0.343   0.321   0.507 -0.1594 -0.0631  0.0208
17536TIP3    H174099   0.362   0.293   0.597  1.4597  0.7008 -0.0533
17536TIP3    H274100   0.376   0.250   0.452 -0.8018 -0.3532 -0.0048
17537TIP3   OH274101   4.213   0.443  11.629 -0.3669  0.1689  0.1916
17537TIP3    H174102   4.191   0.391  11.707 -1.8851 -0.0411 -0.3391
17537TIP3    H274103   4.289   0.399  11.591  1.0200  0.8405  2.0562
17538TIP3   OH274104   3.484   5.865   0.549 -0.1371 -0.4668  0.1484
17538TIP3    H174105   3.431   5.939   0.581  1.2516  0.0083  1.5418
17538TIP3    H274106   3.509   5.890   0.460 -0.7099  0.1785  0.1599
17539TIP3   OH274107   4.447   0.158   3.168  0.8567  0.1857 -0.3817
17539TIP3    H174108   4.415   0.094   3.104  1.7896  1.8256 -2.6317
17539TIP3    H274109   4.368   0.206   3.195  0.6293  0.4711 -1.5083
17540TIP3   OH274110   4.328   2.974  17.150  0.1593 -0.1260 -0.0744
17540TIP3    H174111   4.390   2.981  17.077  3.0346  1.5248  2.3011
17540TIP3    H274112   4.327   3.061  17.190 -3.5496 -0.1697  0.3008
17541TIP3   OH274113   3.751   1.060  13.439 -0.3180  0.0774  0.2532
17541TIP3    H174114   3.825   1.070  13.499 -1.8662 -0.1141  2.2972
17541TIP3    H274115   3.705   1.143  13.444 -0.0605  0.3506 -1.3427
17542TIP3   OH274116   2.239   2.574  12.081  0.2715  0.0010 -0.2598
17542TIP3    H174117   2.222   2.573  12.175  1.2985 -4.5405  0.1053
17542TIP3    H274118   2.176   2.513  12.044 -0.2991  1.8920 -2.6738
17543TIP3   OH274119   4.377   0.461  12.555  0.6571  0.2523  0.4822
17543TIP3    H174120   4.347   0.510  12.632 -2.2060  1.0893 -0.9989
17543TIP3    H274121   4.359   0.520  12.482  0.8457 -1.4983 -1.0444
17544TIP3   OH274122   6.294   0.725  15.382  0.7451  0.3570  0.4541
17544TIP3    H174123   6.307   0.734  15.288 -1.3447 -1.2934 -0.0840
17544TIP3    H274124   6.202   0.747  15.396  0.7854 -0.2870  1.9641
17545TIP3   OH274125   2.418   1.845  15.790 -0.7346  0.4121 -0.4191
17545TIP3    H174126   2.410   1.751  15.803 -1.2427  0.6150  0.9458
17545TIP3    H274127   2.342   1.882  15.835  0.9577  1.6373  1.6082
17546TIP3   OH274128   4.892   2.834   2.652  0.2070 -0.2839 -0.3270
17546TIP3    H174129   4.981   2.848   2.619  0.2008 -1.1848 -0.7452
17546TIP3    H274130   4.875   2.911   2.707  0.7668  0.5328 -1.2552
17547TIP3   OH274131   1.666   1.158  14.952 -0.4176  0.2839  0.4194
17547TIP3    H174132   1.692   1.231  14.896 -0.0909  0.5740  0.9394
17547TIP3    H274133   1.629   1.200  15.030  1.5692 -0.0262  1.6136
17548TIP3   OH274134   1.059   0.634  10.689  0.2336 -0.6610 -0.1594
17548TIP3    H174135   1.141   0.585  10.677  1.0872  0.7262 -0.2494
17548TIP3    H274136   0.999   0.597  10.625  0.9567 -1.3640 -0.4528
17549TIP3   OH274137   5.537   0.724   2.652 -0.0402 -0.4879  0.5360
17549TIP3    H174138   5.479   0.665   2.700  1.4439 -1.4551  1.2065
17549TIP3    H274139   5.575   0.780   2.719 -1.2957  1.1801 -0.0713
17550TIP3   OH274140   5.969   6.623   4.539 -0.2025  0.8749 -0.4016
17550TIP3    H174141   5.978   6.672   4.457  1.3427  1.9302  0.3651
17550TIP3    H274142   6.017   6.542   4.524 -1.8420 -0.0032 -1.2841
17551TIP3   OH274143   5.866   4.388   0.505 -0.0480 -0.5314  0.7196
17551TIP3    H174144   5.956   4.374   0.534 -0.4543 -2.6658  1.1026
17551TIP3    H274145   5.874   4.421   0.415  1.0967 -0.1332  0.9484
17552TIP3   OH274146   1.458   5.435   4.976  0.4330  0.6695  0.8517
17552TIP3    H174147   1.527   5.464   4.917 -1.2377  1.8560 -0.6764
17552TIP3    H274148   1.411   5.368   4.927  0.2586  0.1621  1.6984
17553TIP3   OH274149   6.332   0.696   0.815 -0.1195 -0.0408  0.2114
17553TIP3    H174150   6.322   0.603   0.833 -3.4804  0.4674  1.7053
17553TIP3    H274151   6.274   0.712   0.741 -3.1189  1.4704  2.6774
17554TIP3   OH274152   2.211   4.076   2.952 -0.3443  0.1149  0.0104
17554TIP3    H174153   2.142   4.126   2.995 -1.7795 -1.5934 -0.1904
17554TIP3    H274154   2.170   4.044   2.872  0.6268 -1.0899 -0.0255
17555TIP3   OH274155   4.194   0.237   2.584 -0.4876 -0.5960  0.2546
17555TIP3    H174156   4.225   0.323   2.611  0.9350 -0.7500 -0.8024
17555TIP3    H274157   4.118   0.221   2.639 -1.3382  1.7223 -0.1310
17556TIP3   OH274158   2.440   3.542  16.151  0.6079  0.3425  0.4954
17556TIP3    H174159   2.377   3.607  16.121  0.4252 -1.3809 -3.4501
17556TIP3    H274160   2.504   3.592  16.202 -0.9902  3.0621  0.0278
17557TIP3   OH274161   5.493   1.776   1.740  0.0926 -0.2861  0.3367
17557TIP3    H174162   5.460   1.825   1.665 -0.3439 -0.4306  0.4339
17557TIP3    H274163   5.550   1.710   1.702  0.0985 -0.1773  0.1522
17558TIP3   OH274164   5.916   2.180  12.115  0.1066  0.4416 -0.1740
17558TIP3    H174165   5.885   2.143  12.033  0.3888 -1.8627  0.6789
17558TIP3    H274166   5.996   2.132  12.135 -0.1248  0.7065  1.6016
17559TIP3   OH274167   6.553   2.874   4.106  0.1944 -0.3338 -0.1313
17559TIP3    H174168   6.509   2.816   4.043  1.5190 -0.3766 -1.0549
17559TIP3    H274169   6.503   2.863   4.186 -2.9997  1.4584 -1.6862
17560TIP3   OH274170   1.703   2.804   4.782  0.1668  0.0503 -0.7303
17560TIP3    H174171   1.772   2.823   4.846 -0.6897 -0.7745  0.4766
17560TIP3    H274172   1.623   2.803   4.833 -1.0861  2.8927 -2.4026
17561TIP3   OH274173   6.284   1.936  13.218 -0.1162  0.3794  0.4700
17561TIP3    H174174   6.237   1.916  13.300 -0.3263  0.2302  0.3142
17561TIP3    H274175   6.267   2.029  13.203  0.6997  0.6409  1.0913
17562TIP3   OH274176   5.672   2.871   4.248  0.0651 -0.3591 -0.0877
17562TIP3    H174177   5.674   2.858   4.342  1.3430  0.3460 -0.0004
17562TIP3    H274178   5.740   2.813   4.214 -0.0855 -0.2756 -0.5361
17563TIP3   OH274179   4.029   6.491   6.102  0.6569  0.5381  0.0232
17563TIP3    H174180   3.956   6.496   6.164  2.0771  1.4716  1.7139
17563TIP3    H274181   4.025   6.573   6.053 -0.1700  0.0192 -0.8020
17564TIP3   OH274182   2.264   2.203  16.952  0.0232 -0.1133 -0.0898
17564TIP3    H174183   2.240   2.144  17.024  0.0695 -1.5908 -1.2441
17564TIP3    H274184   2.198   2.272  16.954 -2.1938 -2.1081 -0.8967
17565TIP3   OH274185   3.860   4.461  15.658  0.2504  0.1695 -0.2445
17565TIP3    H174186   3.899   4.403  15.592 -0.9072 -0.4043 -0.4593
17565TIP3    H274187   3.781   4.495  15.615  0.2343  0.8959  0.3504
17566TIP3   OH274188   0.852   4.891  13.674 -0.1921  0.0287  0.1611
17566TIP3    H174189   0.909   4.957  13.634 -0.1365  0.4241  0.8807
17566TIP3    H274190   0.912   4.831  13.717 -0.3168  0.8354  1.5236
17567TIP3   OH274191   4.701   4.896  13.427 -0.0735  0.5026 -0.3533
17567TIP3    H174192   4.761   4.966  13.401  0.9360 -0.3389 -0.3459
17567TIP3    H274193   4.662   4.927  13.509 -1.7721  2.2864 -1.7191
17568TIP3   OH274194   5.735   4.195  16.030  0.6883  0.4318  0.0802
17568TIP3    H174195   5.664   4.172  15.970 -0.3400  2.3727  0.4683
17568TIP3    H274196   5.806   4.224  15.973  0.7864 -0.4498 -0.2676
17569TIP3   OH274197   6.222   6.015  14.357 -0.1249  0.0219 -0.3596
17569TIP3    H174198   6.311   5.988  14.378  0.9510  2.1346 -1.8111
17569TIP3    H274199   6.167   5.943  14.388  1.9281 -0.7101  1.8721
17570TIP3   OH274200   4.717   5.511   5.511 -0.1579  0.0061  0.8176
17570TIP3    H174201   4.628   5.529   5.482  0.0914 -0.1747 -0.0873
17570TIP3    H274202   4.721   5.547   5.600 -0.9931  0.4042  0.7048
17571TIP3   OH274203   4.285   1.422  15.240 -0.1830  0.9765 -0.2446
17571TIP3    H174204   4.353   1.379  15.292  2.0733  2.4128 -1.8191
17571TIP3    H274205   4.269   1.504  15.285 -0.9444  0.6138  0.1554
17572TIP3   OH274206   1.778   0.754   1.215  0.0445 -0.2304  0.4409
17572TIP3    H174207   1.700   0.809   1.215  0.1318 -0.0994  0.8664
17572TIP3    H274208   1.750   0.673   1.258 -0.0389 -0.4547 -0.0313
17573TIP3   OH274209   1.854   1.721   2.399  0.2330  0.2226  0.2761
17573TIP3    H174210   1.934   1.770   2.379 -0.5965  1.6677  0.3688
17573TIP3    H274211   1.883   1.651   2.457  1.3349  1.1473  0.8866
17574TIP3   OH274212   1.329   6.491  17.101  0.0996 -0.4691  0.0781
17574TIP3    H174213   1.368   6.405  17.113 -2.2022 -1.9261 -1.9077
17574TIP3    H274214   1.382   6.532  17.032  0.2588 -0.9592 -0.0913
17575TIP3   OH274215   5.573   5.982   4.982 -0.1277 -0.3444  0.6922
17575TIP3    H174216   5.543   6.062   4.939 -0.2866 -1.4928 -1.4237
17575TIP3    H274217   5.576   6.005   5.075 -1.0763  1.8183  0.2449
17576TIP3   OH274218   3.431   2.839   5.830 -0.4135  0.0489 -0.3353
17576TIP3    H174219   3.473   2.925   5.839 -0.8893  0.2677 -0.1621
17576TIP3    H274220   3.360   2.854   5.768 -0.8729 -0.0733  0.1474
17577TIP3   OH274221   0.509   1.475   5.876 -0.3001  0.1906  0.0886
17577TIP3    H174222   0.551   1.559   5.892  0.2012 -0.0660  0.1457
17577TIP3    H274223   0.482   1.478   5.785 -1.1818  0.7996  0.3591
17578TIP3   OH274224   5.637   4.615  16.157  0.8945  0.3645  0.5560
17578TIP3    H174225   5.695   4.544  16.185 -1.2719 -1.7878  0.0139
17578TIP3    H274226   5.663   4.632  16.066  1.2340  0.0248  0.5862
17579TIP3   OH274227   3.479   2.987   1.762  0.9249  0.2208  0.0156
17579TIP3    H174228   3.532   3.060   1.732 -0.3661  1.6853  1.0917
17579TIP3    H274229   3.482   2.993   1.858 -0.7124  0.0718  0.1197
17580TIP3   OH274230   5.601   5.720   5.063 -0.1923 -0.0296 -0.3069
17580TIP3    H174231   5.513   5.737   5.097 -0.2700  0.1662 -0.5985
17580TIP3    H274232   5.626   5.801   5.019  0.4443  0.1745  0.4182
17581TIP3   OH274233   2.282   1.038   0.343 -0.1677  0.4567  0.4514
17581TIP3    H174234   2.337   1.066   0.270 -0.1838 -0.3021  0.1345
17581TIP3    H274235   2.303   1.099   0.414 -0.2154  1.2548 -0.2068
17582TIP3   OH274236   6.016   2.034   6.765 -0.6265 -0.4417  0.2068
17582TIP3    H174237   5.980   2.059   6.679  1.2566  1.0290 -0.2313
17582TIP3    H274238   6.014   2.115   6.816  0.9473 -0.5621  0.5183
17583TIP3   OH274239   5.477   1.766   3.834 -0.0157 -0.0636  0.2661
17583TIP3    H174240   5.427   1.836   3.876 -0.1162 -0.2767  0.4973
17583TIP3    H274241   5.419   1.733   3.765  0.1449  0.2769 -0.0356
17584TIP3   OH274242   0.835   6.771   4.544 -0.7809 -0.5460  0.1345
17584TIP3    H174243   0.924   6.749   4.572 -0.5833 -0.9169 -0.7441
17584TIP3    H274244   0.791   6.799   4.624  0.2574  0.0757  0.5133
17585TIP3   OH274245   2.201   0.297   5.438  0.0293 -0.2118  0.5558
17585TIP3    H174246   2.243   0.330   5.359 -2.0763 -0.5233 -0.7577
17585TIP3    H274247   2.223   0.361   5.505  0.4492  0.9685 -0.6709
17586TIP3   OH274248   3.232   3.612  15.737 -0.2645 -0.1883 -0.3169
17586TIP3    H174249   3.295   3.666  15.689 -1.0843  0.8164 -0.3224
17586TIP3    H274250   3.241   3.525  15.699  2.1960 -0.4844  0.7564
17587TIP3   OH274251   6.275   2.239  16.210  0.3162 -0.3913  0.0871
17587TIP3    H174252   6.212   2.297  16.253 -0.8312 -1.4236 -0.1632
17587TIP3    H274253   6.357   2.255  16.256 -0.6863 -0.8802  2.1517
17588TIP3   OH274254   6.580   4.935  16.229 -0.8149  0.6711 -0.4785
17588TIP3    H174255   6.661   4.902  16.193 -1.4606 -1.0088 -0.4733
17588TIP3    H274256   6.605   4.974  16.313  0.2449  1.9795 -1.3670
17589TIP3   OH274257   4.240   2.589  15.123 -0.0665  0.1059 -0.2534
17589TIP3    H174258   4.231   2.552  15.035 -1.3774 -1.2767  0.4196
17589TIP3    H274259   4.150   2.602  15.153  0.3654  1.1970  0.6460
17590TIP3   OH274260   4.281   3.130  13.755  0.0558  0.3778 -0.1346
17590TIP3    H174261   4.217   3.200  13.763 -0.5760 -0.1824 -0.1588
17590TIP3    H274262   4.354   3.168  13.706 -0.0710  1.1488  0.2691
17591TIP3   OH274263   6.749   6.306   2.236 -0.2054 -0.0690  0.3104
17591TIP3    H174264   6.744   6.211   2.239  0.0578 -0.0659  0.9931
17591TIP3    H274265   6.836   6.325   2.201  0.4964 -0.0896  1.9468
17592TIP3   OH274266   4.406   0.101  16.913  0.1561 -0.2656 -0.0541
17592TIP3    H174267   4.476   0.107  16.848  0.1612  0.8534  0.0358
17592TIP3    H274268   4.449   0.120  16.996  0.2549 -2.2072  0.3728
17593TIP3   OH274269   6.794   1.971   2.367 -0.0309  0.6603 -0.2827
17593TIP3    H174270   6.724   1.913   2.338  1.5266 -3.0165  2.3602
17593TIP3    H274271   6.857   1.971   2.295 -1.1700  1.1108 -1.2939
17594TIP3   OH274272   1.785   3.103   5.256 -0.4961  0.1903  0.0428
17594TIP3    H174273   1.863   3.082   5.307  0.2749  0.5833 -0.9429
17594TIP3    H274274   1.813   3.174   5.198 -2.4679  2.7087  1.9160
17595TIP3   OH274275   1.270   6.107   6.030 -0.5849 -0.2525 -0.0579
17595TIP3    H174276   1.242   6.110   5.938  1.1948  1.5137 -0.6004
17595TIP3    H274277   1.237   6.188   6.068 -0.3396 -0.4397  0.5663
17596TIP3   OH274278   1.399   2.647  12.267  0.5156  0.1323 -0.2642
17596TIP3    H174279   1.349   2.569  12.291  2.0597 -1.1783 -1.1580
17596TIP3    H274280   1.362   2.674  12.183 -0.2674  0.6168  0.2201
17597TIP3   OH274281   1.225   3.569  11.691  0.5882 -0.2335  0.2332
17597TIP3    H174282   1.307   3.559  11.739 -0.9138 -3.5896  2.4966
17597TIP3    H274283   1.158   3.575  11.759 -1.2127  1.2093 -1.5382
17598TIP3   OH274284   2.688   2.486  13.797  0.8315  0.4213 -0.4701
17598TIP3    H174285   2.643   2.566  13.824  1.9256  0.5053  1.2579
17598TIP3    H274286   2.674   2.425  13.869  1.3078 -0.4202 -1.0727
17599TIP3   OH274287   3.134   1.913   0.790 -0.0428 -0.0451  0.8372
17599TIP3    H174288   3.190   1.928   0.714 -2.1881 -2.0371 -1.3030
17599TIP3    H274289   3.105   2.001   0.816  0.1709  0.6582 -1.1198
17600TIP3   OH274290   5.199   3.717  13.081  0.1062 -0.3565  0.1096
17600TIP3    H174291   5.135   3.779  13.117  0.3885  0.0497 -0.0827
17600TIP3    H274292   5.148   3.662  13.022  0.1862  0.9741 -1.2866
17601TIP3   OH274293   0.886   2.959   2.125  0.7119  0.0047 -0.1497
17601TIP3    H174294   0.804   3.009   2.120  0.1694 -0.7336  0.9515
17601TIP3    H274295   0.867   2.878   2.077  1.5448  0.7449 -1.8103
17602TIP3   OH274296   1.727   0.757   2.837  0.3818 -0.6529  0.4860
17602TIP3    H174297   1.771   0.673   2.851  3.1708  0.1090 -2.3694
17602TIP3    H274298   1.785   0.822   2.876 -0.3478  0.1326  0.3033
17603TIP3   OH274299   1.911   2.739  15.590 -0.5437  0.0403  0.2852
17603TIP3    H174300   1.845   2.782  15.644 -0.8506  1.4863 -1.1498
17603TIP3    H274301   1.922   2.797  15.515  1.1320 -1.0209 -0.3539
17604TIP3   OH274302   5.950   4.276  11.100  0.3330 -0.1645  0.0204
17604TIP3    H174303   5.946   4.304  11.191  1.1257 -0.0237  0.0167
17604TIP3    H274304   6.012   4.202  11.100 -2.2815 -2.5402  0.1793
17605TIP3   OH274305   0.711   5.635   4.928 -0.1727  0.5407  0.3053
17605TIP3    H174306   0.796   5.668   4.899 -0.3949  2.6290  1.7682
17605TIP3    H274307   0.680   5.580   4.857  1.9319  0.5915 -0.7033
17606TIP3   OH274308   5.490   6.769   1.379  0.3211  0.3090  0.1315
17606TIP3    H174309   5.478   6.816   1.297  2.8853 -1.5712 -1.4626
17606TIP3    H274310   5.548   6.825   1.431 -1.0655  1.3584  0.6221
17607TIP3   OH274311   6.738   1.210  13.209 -0.3477 -0.0359 -0.1551
17607TIP3    H174312   6.820   1.184  13.252 -0.2281  0.6999  0.0858
17607TIP3    H274313   6.701   1.276  13.267 -2.1894 -1.8188  0.8112
17608TIP3   OH274314   3.722   2.635  15.096  0.5855 -0.1967  0.5224
17608TIP3    H174315   3.662   2.572  15.135  1.3980 -0.0558  2.0714
17608TIP3    H274316   3.708   2.626  15.001 -1.5869 -0.4084  0.8122
17609TIP3   OH274317   2.102   6.694   4.653 -0.8000 -0.1910 -0.4432
17609TIP3    H174318   2.108   6.751   4.576 -0.3756 -0.6251 -0.7368
17609TIP3    H274319   2.114   6.606   4.618  0.6940 -0.3035  0.2809
17610TIP3   OH274320   4.784   1.550  15.527 -0.2033  0.3836 -0.6925
17610TIP3    H174321   4.836   1.476  15.498  1.3170  0.8736  0.6547
17610TIP3    H274322   4.721   1.513  15.589  0.6998  0.2317  0.1492
17611TIP3   OH274323   1.859   5.060  15.008 -0.2623  0.1814 -0.0978
17611TIP3    H174324   1.792   5.019  15.063  0.2176  0.4170  0.6782
17611TIP3    H274325   1.833   5.152  15.004 -0.4404  0.1173 -0.4922
17612TIP3   OH274326   3.647   5.891  16.508 -0.0372 -0.5968  0.3122
17612TIP3    H174327   3.635   5.814  16.564  0.8892  0.0015  1.3910
17612TIP3    H274328   3.563   5.936  16.510 -0.6820 -1.7113 -0.5708
17613TIP3   OH274329   0.259   6.520   6.104  0.2164  0.0249  0.3484
17613TIP3    H174330   0.325   6.567   6.053  1.3982 -0.1688  1.6312
17613TIP3    H274331   0.277   6.545   6.195 -2.0924  0.7055  0.6763
17614TIP3   OH274332   4.057   1.979   5.563 -0.1351  0.0566 -0.5532
17614TIP3    H174333   3.966   1.986   5.590 -0.3285 -1.2292 -0.7708
17614TIP3    H274334   4.055   1.988   5.468 -0.1639 -0.8502 -0.6478
17615TIP3   OH274335   1.366   1.678   2.755  1.2905  0.3873  0.0337
17615TIP3    H174336   1.429   1.639   2.814  1.6414 -1.6754 -1.5892
17615TIP3    H274337   1.386   1.640   2.669  0.1343  2.4193 -1.2371
17616TIP3   OH274338   3.602   3.674   3.739 -0.0775  0.5935 -0.1834
17616TIP3    H174339   3.552   3.598   3.708  0.6823 -0.0409  0.1025
17616TIP3    H274340   3.537   3.729   3.784 -0.7053  0.2958 -0.7145
17617TIP3   OH274341   5.202   0.562  17.225  0.1933 -0.0862 -0.0962
17617TIP3    H174342   5.266   0.519  17.282  2.1907  2.2223 -0.4009
17617TIP3    H274343   5.251   0.581  17.145 -0.1849  3.4275  0.3413
17618TIP3   OH274344   1.606   5.469   0.575 -0.4470  0.2348  0.7754
17618TIP3    H174345   1.556   5.528   0.519 -0.3777 -0.8819 -0.5283
17618TIP3    H274346   1.620   5.518   0.656  0.1093  2.2160 -0.4515
17619TIP3   OH274347   5.002   4.765  16.186  0.3121 -0.5683  0.8861
17619TIP3    H174348   5.083   4.784  16.138 -1.0948  0.4963 -1.2308
17619TIP3    H274349   5.026   4.775  16.278  2.5579 -0.2117  0.3208
17620TIP3   OH274350   2.604   3.075  12.091  0.7674 -0.2771  0.2543
17620TIP3    H174351   2.508   3.074  12.099  0.8549 -0.5341  1.4520
17620TIP3    H274352   2.621   3.121  12.010 -0.3716  0.0827  0.2070
17621TIP3   OH274353   1.499   0.746  14.729  0.0807 -0.0197  0.0701
17621TIP3    H174354   1.454   0.787  14.803 -0.0159 -0.6165  0.3458
17621TIP3    H274355   1.551   0.676  14.768 -0.7417 -0.9910 -0.5161
17622TIP3   OH274356   5.121   3.828   4.707  0.0218 -0.2433  0.1696
17622TIP3    H174357   5.139   3.827   4.613 -0.9677 -2.2184 -0.0411
17622TIP3    H274358   5.138   3.738   4.736  0.7882  0.4364  1.9982
17623TIP3   OH274359   3.022   6.707  12.640  0.0745  0.0161 -0.4817
17623TIP3    H174360   2.998   6.799  12.627  1.7285  0.4194 -0.8973
17623TIP3    H274361   2.965   6.677  12.710  0.1740  1.6528  0.3519
17624TIP3   OH274362   3.290   6.666   3.060 -0.4328  0.3896 -0.2016
17624TIP3    H174363   3.267   6.684   2.969  0.2473  0.5473 -0.3440
17624TIP3    H274364   3.261   6.744   3.107 -1.3490  0.0507 -0.1791
17625TIP3   OH274365   1.073   2.408   0.660 -0.3275 -0.3919 -0.0573
17625TIP3    H174366   1.117   2.491   0.642  1.4562 -1.2281  0.2119
17625TIP3    H274367   1.043   2.377   0.574 -2.6263  1.3467  0.0571
17626TIP3   OH274368   4.902   5.257  16.833 -0.2334  0.6114  0.4774
17626TIP3    H174369   4.958   5.311  16.889 -0.8837  0.5207  1.2160
17626TIP3    H274370   4.879   5.182  16.887  1.2974 -0.8500 -0.7852
17627TIP3   OH274371   6.548   1.358   5.986 -0.2785  0.0438 -0.4985
17627TIP3    H174372   6.547   1.315   5.901 -0.9966 -0.5819 -0.1842
17627TIP3    H274373   6.576   1.291   6.047 -1.9295 -0.1585  0.0764
17628TIP3   OH274374   4.570   3.726   3.345  0.1414  0.1596  0.0862
17628TIP3    H174375   4.572   3.731   3.250 -1.6647  0.8303  0.0343
17628TIP3    H274376   4.579   3.817   3.374 -0.9020  0.1532  0.4692
17629TIP3   OH274377   2.995   4.358  16.269 -0.1029 -0.6195 -0.8629
17629TIP3    H174378   3.082   4.334  16.302 -0.0483 -1.2841 -1.4645
17629TIP3    H274379   3.012   4.432  16.210 -0.3506  1.4274  1.4990
17630TIP3   OH274380   2.120   6.228   1.261 -0.0862 -0.1233  0.5869
17630TIP3    H174381   2.139   6.144   1.303  1.6775 -0.4081 -0.6553
17630TIP3    H274382   2.176   6.291   1.306  0.1834 -0.0291  0.1329
17631TIP3   OH274383   1.702   4.163  10.981  0.1481  0.1149  0.6341
17631TIP3    H174384   1.780   4.184  11.033  0.3196  2.2339 -0.3664
17631TIP3    H274385   1.632   4.212  11.024  0.0948  1.0576 -0.4836
17632TIP3   OH274386   4.281   0.993  15.987  0.5758  0.0323  0.1480
17632TIP3    H174387   4.230   1.067  16.019 -0.5300 -1.1260  1.1609
17632TIP3    H274388   4.224   0.951  15.922  0.3694 -1.0457  1.0004
17633TIP3   OH274389   5.905   5.888  16.954 -0.1322 -0.1342 -0.1474
17633TIP3    H174390   5.956   5.963  16.986  0.3027 -0.6739  0.4632
17633TIP3    H274391   5.825   5.927  16.920 -0.1167  0.5783  0.5854
17634TIP3   OH274392   1.213   0.043   2.695  0.2274 -0.3183  0.2798
17634TIP3    H174393   1.290   0.100   2.704 -0.1754  0.8223 -2.5511
17634TIP3    H274394   1.227  -0.004   2.613 -1.4364 -1.1638  0.4465
17635TIP3   OH274395   5.966   2.842  12.460 -0.0549 -0.1184 -0.2080
17635TIP3    H174396   5.904   2.825  12.532 -0.6131 -0.3032 -0.7254
17635TIP3    H274397   6.052   2.821  12.497 -0.5910 -3.6125 -0.5800
17636TIP3   OH274398   3.083   2.417  11.553  0.2345  0.1816 -0.1468
17636TIP3    H174399   3.139   2.477  11.504 -0.2520  1.6618  1.0123
17636TIP3    H274400   3.064   2.463  11.635 -0.5517 -1.3794  0.6034
17637TIP3   OH274401   1.518   1.593   3.928  0.1993 -0.2502 -0.0477
17637TIP3    H174402   1.518   1.674   3.876 -0.3068  0.0897  0.4589
17637TIP3    H274403   1.445   1.542   3.892  0.9219 -0.7743 -0.7935
17638TIP3   OH274404   6.376   4.454   3.606 -0.6432 -0.1855 -0.2235
17638TIP3    H174405   6.289   4.482   3.634 -0.4238 -0.5958  0.9226
17638TIP3    H274406   6.369   4.444   3.511 -1.5357  0.8428 -0.2827
17639TIP3   OH274407   2.192   4.553   4.473  0.2224  0.0177  0.7540
17639TIP3    H174408   2.273   4.558   4.524  2.0571  2.6340 -2.0306
17639TIP3    H274409   2.213   4.494   4.401 -0.3685  0.5812  0.1007
17640TIP3   OH274410   5.273   1.674  14.753  0.2032 -0.1350  0.3631
17640TIP3    H174411   5.339   1.738  14.728  0.0680  0.0367  0.4445
17640TIP3    H274412   5.201   1.688  14.691  0.7658 -1.2078 -0.5888
17641TIP3   OH274413   6.711   0.752  15.911  0.4423  0.2963 -0.7777
17641TIP3    H174414   6.778   0.739  15.843  2.7601  1.0054  1.2440
17641TIP3    H274415   6.744   0.705  15.987 -1.9054 -0.1728  0.0390
17642TIP3   OH274416   3.569   6.682  11.737 -0.1390 -0.1665  0.4201
17642TIP3    H174417   3.629   6.687  11.663 -1.2832 -1.6086 -0.6508
17642TIP3    H274418   3.591   6.599  11.780 -1.7108 -1.0255 -0.3462
17643TIP3   OH274419   0.305   2.011   3.551 -0.4646 -0.1654 -0.0582
17643TIP3    H174420   0.343   1.923   3.558  2.4514  0.9116 -0.9803
17643TIP3    H274421   0.288   2.022   3.458 -0.1633  0.4677 -0.0414
17644TIP3   OH274422   4.147   5.767   0.353 -0.0393 -0.1287 -0.6868
17644TIP3    H174423   4.194   5.733   0.277 -2.8649  1.1877 -3.2270
17644TIP3    H274424   4.196   5.844   0.380  1.2406 -0.8611 -0.8323
17645TIP3   OH274425   1.846   0.487   2.906  0.3204 -0.1021 -0.0002
17645TIP3    H174426   1.807   0.491   2.819 -1.3074  0.4885  0.7252
17645TIP3    H274427   1.885   0.399   2.911  3.2784  0.9043 -2.4363
17646TIP3   OH274428   3.927   5.346  16.098 -0.1571 -1.1190  0.0524
17646TIP3    H174429   3.961   5.320  16.184 -0.5600 -0.2105  0.4904
17646TIP3    H274430   4.005   5.354  16.043  0.6572  2.6418  1.4833
17647TIP3   OH274431   0.823   2.645   4.241  0.4718 -0.4649 -0.4909
17647TIP3    H174432   0.902   2.594   4.261  0.0769 -1.3277 -1.0685
17647TIP3    H274433   0.808   2.697   4.320  1.3256 -0.6694 -0.1776
17648TIP3   OH274434   5.580   5.888   0.711  0.3463 -0.1094  0.2748
17648TIP3    H174435   5.632   5.903   0.632 -0.2405 -1.8485 -0.4927
17648TIP3    H274436   5.578   5.973   0.755 -0.3972  1.2708 -2.2270
17649TIP3   OH274437   1.006   3.701  15.560 -0.1709  0.3328  0.0899
17649TIP3    H174438   0.930   3.705  15.618 -0.3598  1.5573 -0.2320
17649TIP3    H274439   1.070   3.647  15.608 -0.2866  1.3840  1.4802
17650TIP3   OH274440   2.676   5.488   2.359 -0.3609  0.3357 -0.3519
17650TIP3    H174441   2.606   5.423   2.360  0.6979 -0.8371 -0.1610
17650TIP3    H274442   2.737   5.457   2.292  0.6596  0.5619  0.4431
17651TIP3   OH274443   3.315   5.437   0.868  0.2183 -0.6397  0.8830
17651TIP3    H174444   3.399   5.447   0.913 -0.4509 -0.7220  2.2109
17651TIP3    H274445   3.327   5.480   0.783  1.2029  0.4889  1.5627
17652TIP3   OH274446   1.302   2.092   6.376  0.3896 -0.0005  0.4181
17652TIP3    H174447   1.243   2.111   6.303  1.6552  2.4627 -0.0765
17652TIP3    H274448   1.357   2.019   6.344 -0.7217 -0.6467 -0.0604
17653TIP3   OH274449   0.307   1.429   1.757  0.4919 -0.1734 -0.5131
17653TIP3    H174450   0.336   1.478   1.680 -1.9218  1.3200 -0.6107
17653TIP3    H274451   0.245   1.488   1.800  1.3424 -1.1754  2.3090
17654TIP3   OH274452   1.953   2.614  12.598  0.3263  0.1555 -0.1542
17654TIP3    H174453   1.949   2.708  12.614 -2.4090  0.0784  0.1465
17654TIP3    H274454   1.953   2.606  12.503 -1.4534  0.4954 -0.2157
17655TIP3   OH274455   1.435   1.663  14.113  0.3483 -0.3891  0.0669
17655TIP3    H174456   1.381   1.695  14.186  0.3614  0.0768 -0.1253
17655TIP3    H274457   1.395   1.702  14.035  0.2679 -0.9758 -0.1874
17656TIP3   OH274458   4.573   5.774  15.296  0.1134 -0.3591 -0.0410
17656TIP3    H174459   4.572   5.682  15.324  0.8840 -0.0682  1.0200
17656TIP3    H274460   4.655   5.782  15.246  0.5849 -0.0145  0.7684
17657TIP3   OH274461   2.306   3.306  15.893  0.2474 -0.1467  0.0433
17657TIP3    H174462   2.295   3.389  15.940  1.2557  0.5075 -0.8229
17657TIP3    H274463   2.219   3.285  15.860  0.2613  1.5003 -1.2000
17658TIP3   OH274464   4.568   1.137   3.374 -0.0374  0.3434  0.1603
17658TIP3    H174465   4.521   1.092   3.304  2.1053 -2.0056  0.1086
17658TIP3    H274466   4.639   1.182   3.329 -1.1457  2.4826  0.4253
17659TIP3   OH274467   4.569   3.450  15.303 -0.3090 -0.6599  0.0009
17659TIP3    H174468   4.553   3.486  15.391  0.8492 -1.9748  0.7972
17659TIP3    H274469   4.484   3.454  15.260 -0.8216  0.3863  1.0375
17660TIP3   OH274470   5.053   6.696  10.590  0.4991  0.3845 -0.7914
17660TIP3    H174471   5.011   6.627  10.538 -0.0556 -0.3353  0.5438
17660TIP3    H274472   5.128   6.653  10.631 -1.3415 -0.3137  2.2038
17661TIP3   OH274473   2.030   2.606  12.315  0.2750 -0.0621 -0.3472
17661TIP3    H174474   2.054   2.687  12.360 -1.3787 -1.3732  3.2853
17661TIP3    H274475   1.950   2.629  12.266 -0.8304  0.3410  1.5523
17662TIP3   OH274476   5.642   3.419   4.713  0.1386  0.4127 -1.1197
17662TIP3    H174477   5.561   3.367   4.716  1.2048 -1.3815  2.0021
17662TIP3    H274478   5.706   3.361   4.672  0.9723 -0.2812  1.0185
17663TIP3   OH274479   3.522   4.730   1.052  0.2437 -0.1759  0.2397
17663TIP3    H174480   3.462   4.777   1.109 -0.1488  1.1993 -1.2311
17663TIP3    H274481   3.609   4.748   1.088  0.0110  0.7216  0.3669
17664TIP3   OH274482   4.176   1.826  15.365 -0.1775  0.0098  0.1253
17664TIP3    H174483   4.141   1.795  15.281 -0.4739  0.0505  0.2309
17664TIP3    H274484   4.250   1.881  15.341 -0.6109  0.4838 -0.1429
17665TIP3   OH274485   0.805   5.041   2.343 -0.1893  0.4607  0.0597
17665TIP3    H174486   0.725   5.069   2.299 -0.1765  0.6231  0.1412
17665TIP3    H274487   0.876   5.084   2.295 -0.1579  0.4121  0.0620
17666TIP3   OH274488   6.243   1.758  13.819 -0.1411 -0.5757 -0.5141
17666TIP3    H174489   6.225   1.664  13.816 -1.9182 -0.2483 -1.7376
17666TIP3    H274490   6.166   1.798  13.780  1.0857  1.3387 -1.1078
17667TIP3   OH274491   4.070   3.619   0.596 -0.3409  0.3271  0.3143
17667TIP3    H174492   3.979   3.628   0.569 -0.4559  1.4086  0.9993
17667TIP3    H274493   4.078   3.677   0.672  0.4271 -1.2105  1.4668
17668TIP3   OH274494   3.905   4.950  12.122  0.6126 -0.1717 -0.0756
17668TIP3    H174495   3.825   4.979  12.078  0.6157  0.8843  0.5972
17668TIP3    H274496   3.975   4.973  12.062  0.5894  0.9728  0.3149
17669TIP3   OH274497   4.320   0.615  12.785  0.1685 -0.2689 -0.0643
17669TIP3    H174498   4.318   0.565  12.867  1.7826  1.1338  0.8883
17669TIP3    H274499   4.271   0.694  12.804  1.0113  0.3134 -0.2438
17670TIP3   OH274500   1.764   6.074  14.238  0.4823  0.6918 -0.2129
17670TIP3    H174501   1.788   6.052  14.328  0.4812  0.4858 -0.2630
17670TIP3    H274502   1.823   6.021  14.184 -1.4186 -1.4089 -0.3688
17671TIP3   OH274503   2.417   0.927   5.193 -0.0951 -0.5861 -0.2605
17671TIP3    H174504   2.414   0.965   5.105 -0.3699 -1.4126 -0.6116
17671TIP3    H274505   2.326   0.912   5.216  0.0372 -1.9879 -0.5575
17672TIP3   OH274506   3.810   4.568  16.195  0.1240 -0.0994  0.5151
17672TIP3    H174507   3.866   4.577  16.118 -1.7286  2.1743 -0.6977
17672TIP3    H274508   3.864   4.522  16.259  2.0086 -1.4264 -1.8566
17673TIP3   OH274509   6.479   3.843   0.182 -0.4849  0.0977  0.0573
17673TIP3    H174510   6.499   3.931   0.214 -0.0074  0.1341 -0.3326
17673TIP3    H274511   6.449   3.856   0.092  0.8658 -0.2454 -0.4688
17674TIP3   OH274512   5.412   1.490  12.175 -0.0149  0.0487 -0.2920
17674TIP3    H174513   5.393   1.561  12.236  0.2107  0.0946 -0.2743
17674TIP3    H274514   5.329   1.474  12.130 -0.8848 -1.6186  1.7310
17675TIP3   OH274515   6.507   5.173  15.094 -0.3803  0.6558  0.5239
17675TIP3    H174516   6.553   5.252  15.122  1.6510 -1.1436  2.7729
17675TIP3    H274517   6.524   5.167  15.000  0.9680  1.9599  0.6540
17676TIP3   OH274518   3.205   5.311  12.649 -0.0119  0.0685  0.2990
17676TIP3    H174519   3.285   5.362  12.660 -0.5471  0.7086  1.4739
17676TIP3    H274520   3.165   5.312  12.736  0.4490 -3.2267  0.7071
17677TIP3   OH274521   6.217   2.858   2.761 -0.2745 -0.4031  0.2300
17677TIP3    H174522   6.282   2.862   2.691 -0.2943 -1.1615  0.1651
17677TIP3    H274523   6.135   2.884   2.718 -0.0212  0.5975  0.3226
17678TIP3   OH274524   1.233   0.650  13.499 -0.8967 -0.9310 -0.4401
17678TIP3    H174525   1.141   0.649  13.525 -1.1978  1.9271 -1.0091
17678TIP3    H274526   1.281   0.641  13.582 -1.7232 -0.8455  0.0630
17679TIP3   OH274527   6.593   0.527   0.433 -0.0765  0.6949 -0.2000
17679TIP3    H174528   6.629   0.468   0.499 -0.4351  0.3735 -0.2864
17679TIP3    H274529   6.537   0.471   0.379  0.8409  0.7830 -1.2776
17680TIP3   OH274530   3.505   6.267  12.272  0.8974 -0.1521  0.2291
17680TIP3    H174531   3.480   6.213  12.197  0.3661  2.4698 -1.6324
17680TIP3    H274532   3.601   6.265  12.272  0.8803 -1.6120  0.6410
17681TIP3   OH274533   0.475   3.822  10.660 -0.3570  0.0019 -0.5070
17681TIP3    H174534   0.556   3.777  10.684 -0.0250  1.7342  1.9617
17681TIP3    H274535   0.503   3.909  10.633 -1.4293  1.0488  1.5632
17682TIP3   OH274536   1.702   3.167  12.807 -0.3746  0.0062 -0.0872
17682TIP3    H174537   1.755   3.132  12.879 -0.2885 -2.4187 -1.2398
17682TIP3    H274538   1.763   3.173  12.733 -1.2446 -1.0326 -0.9221
17683TIP3   OH274539   2.872   2.391   5.670 -0.2984  0.2022 -0.3916
17683TIP3    H174540   2.882   2.467   5.613  1.2461  0.4370  0.1524
17683TIP3    H274541   2.954   2.343   5.662 -0.7188 -0.6866  0.3199
17684TIP3   OH274542   0.758   3.290   2.089 -0.2826 -0.2373 -0.3228
17684TIP3    H174543   0.753   3.332   2.003  0.6150 -0.4443 -0.4912
17684TIP3    H274544   0.681   3.321   2.136 -1.0350 -0.4678 -1.3587
17685TIP3   OH274545   2.496   5.082   1.035 -0.3683  0.3623  0.0676
17685TIP3    H174546   2.493   5.171   1.000 -0.5509  0.4836  0.3821
17685TIP3    H274547   2.409   5.067   1.071 -0.3148  0.0856  0.0885
17686TIP3   OH274548   2.690   3.376   2.858  0.2061  0.0295 -0.0447
17686TIP3    H174549   2.781   3.377   2.888  0.0382 -0.7352  0.5291
17686TIP3    H274550   2.695   3.354   2.765  0.6047  0.0119 -0.0214
17687TIP3   OH274551   1.643   5.696   2.580  0.1549  0.3415  0.4331
17687TIP3    H174552   1.719   5.754   2.587 -0.0073  0.4554  1.3474
17687TIP3    H274553   1.633   5.659   2.667 -1.8529  1.6144  0.8006
17688TIP3   OH274554   5.444   5.002  13.104  0.2055 -0.1607  0.3455
17688TIP3    H174555   5.515   4.939  13.112 -0.4580 -1.0397 -0.4574
17688TIP3    H274556   5.368   4.950  13.079 -0.6275  0.8175  0.7583
17689TIP3   OH274557   2.364   0.015  16.258  0.4477  0.8577  0.5866
17689TIP3    H174558   2.377  -0.033  16.177 -2.2697 -1.2076  1.2626
17689TIP3    H274559   2.348   0.105  16.230  0.7685  0.4280 -1.0676
17690TIP3   OH274560   3.903   2.527   1.541  0.5187  0.7559 -0.3391
17690TIP3    H174561   3.922   2.620   1.553 -0.5848  0.9840 -0.2249
17690TIP3    H274562   3.832   2.525   1.477  0.5470 -0.0114 -0.3576
17691TIP3   OH274563   3.851   0.620  15.809 -0.4284  0.2138  0.5766
17691TIP3    H174564   3.785   0.586  15.747 -0.0649 -0.3918  0.5164
17691TIP3    H274565   3.882   0.542  15.855  2.4668 -0.0250 -1.4968
17692TIP3   OH274566   1.448   5.324   3.110 -0.5220  0.3359 -0.2832
17692TIP3    H174567   1.406   5.410   3.101 -0.8659  0.0449 -1.7022
17692TIP3    H274568   1.509   5.319   3.036 -0.7423 -0.7643 -0.4130
17693TIP3   OH274569   0.849   4.583   4.130  0.0332 -0.1393 -0.8607
17693TIP3    H174570   0.817   4.659   4.179 -2.0463 -1.6623  0.3224
17693TIP3    H274571   0.944   4.593   4.129 -0.0902  1.7625  0.4613
17694TIP3   OH274572   6.746   4.700   3.839 -0.1045 -0.0931 -0.3642
17694TIP3    H174573   6.763   4.783   3.883  2.2279  0.3876 -1.9442
17694TIP3    H274574   6.672   4.662   3.886 -1.4789  2.9931  0.2081
17695TIP3   OH274575   4.537   0.626   3.973  0.2175  0.7625 -0.8034
17695TIP3    H174576   4.465   0.679   4.009  0.6234 -0.1322  1.4844
17695TIP3    H274577   4.495   0.573   3.905 -1.3674  0.1661  0.5602
17696TIP3   OH274578   3.931   3.134  11.912  0.4644 -0.0437 -0.5827
17696TIP3    H174579   3.956   3.204  11.973  0.3723 -0.0913 -0.4907
17696TIP3    H274580   3.985   3.150  11.834 -1.2616  1.5571 -1.5287
17697TIP3   OH274581   1.168   4.083   2.885 -1.0085  0.6419  0.3431
17697TIP3    H174582   1.138   4.109   2.972 -0.6908  0.5840  0.4707
17697TIP3    H274583   1.262   4.103   2.884 -0.2694 -2.2976  1.1692
17698TIP3   OH274584   0.811   4.819  13.153 -0.1989 -0.2024 -0.3197
17698TIP3    H174585   0.848   4.857  13.073 -1.2875  2.9869  0.5193
17698TIP3    H274586   0.883   4.823  13.216 -0.3650  0.8470 -0.1698
17699TIP3   OH274587   0.406   2.594  15.699  0.1715 -0.1569  0.1243
17699TIP3    H174588   0.347   2.523  15.728 -0.3995 -0.3524 -1.4151
17699TIP3    H274589   0.349   2.654  15.652  1.1039 -0.0509 -0.9017
17700TIP3   OH274590   5.738   0.384   6.229  0.6233  0.3555 -0.1171
17700TIP3    H174591   5.826   0.347   6.220  1.0835  1.3949  0.0240
17700TIP3    H274592   5.687   0.341   6.160  0.3776 -2.6973  1.7970
17701TIP3   OH274593   4.846   3.966  16.698  0.0780 -0.3860  0.2308
17701TIP3    H174594   4.870   4.057  16.681 -1.2854  0.1327  0.9567
17701TIP3    H274595   4.920   3.931  16.748  0.0400  0.7142  1.0975
17702TIP3   OH274596   0.308   0.815  15.926 -0.2769  0.0136  0.4040
17702TIP3    H174597   0.341   0.845  15.841 -1.3783  0.6985  0.2004
17702TIP3    H274598   0.285   0.895  15.973  0.6891 -0.3423  1.5250
17703TIP3   OH274599   6.655   0.924  14.255 -0.0103 -0.2038 -0.0385
17703TIP3    H174600   6.696   0.920  14.169 -0.3855  0.9381 -0.2887
17703TIP3    H274601   6.562   0.906  14.239 -0.6525  2.8773 -0.3646
17704TIP3   OH274602   5.649   3.034  14.402 -0.0613  0.4945  0.6421
17704TIP3    H174603   5.691   2.970  14.459  0.0210  0.9180  1.0659
17704TIP3    H274604   5.681   3.118  14.433 -0.3150  0.7540  0.2112
17705TIP3   OH274605   0.610   0.546  12.588  0.1568 -0.1488 -0.0630
17705TIP3    H174606   0.516   0.537  12.597 -0.1621  3.1285  1.1510
17705TIP3    H274607   0.623   0.601  12.512  1.0630 -0.0435  0.1472
17706TIP3   OH274608   0.663   2.979   4.152  0.1793  0.1147 -0.0447
17706TIP3    H174609   0.718   3.029   4.211  1.7413  0.7810 -1.9412
17706TIP3    H274610   0.664   2.890   4.187  2.3072  0.1679  0.1338
17707TIP3   OH274611   5.200   0.777   3.678 -0.0507  0.3131 -0.4457
17707TIP3    H174612   5.152   0.844   3.727  1.2877 -1.1851  3.2979
17707TIP3    H274613   5.143   0.700   3.682  1.4267 -0.7924  1.9872
17708TIP3   OH274614   2.821   3.210   4.860  0.1258  0.2151 -0.9226
17708TIP3    H174615   2.849   3.167   4.779  1.5426  0.7552 -0.7556
17708TIP3    H274616   2.898   3.258   4.889 -0.2191 -0.3091  0.9878
17709TIP3   OH274617   4.399   4.346   4.526 -0.5221  0.0764 -0.1135
17709TIP3    H174618   4.401   4.441   4.532  0.2831  0.1557 -1.2980
17709TIP3    H274619   4.380   4.316   4.615 -1.9456  1.3683  0.0584
17710TIP3   OH274620   6.491   4.888   5.662 -0.3065 -0.1659 -0.9197
17710TIP3    H174621   6.407   4.932   5.646 -1.2597 -0.7677  1.9105
17710TIP3    H274622   6.543   4.952   5.709 -1.1963 -1.4392  2.0017
17711TIP3   OH274623   1.291   2.205  13.956  0.0833 -0.3074 -0.2503
17711TIP3    H174624   1.376   2.245  13.939  0.1902 -0.3141  0.2606
17711TIP3    H274625   1.259   2.250  14.034 -0.5471 -0.0455 -0.6558
17712TIP3   OH274626   0.410   6.249  13.630  0.3406  0.0457  0.3184
17712TIP3    H174627   0.360   6.325  13.661 -0.8146 -0.8178  0.6712
17712TIP3    H274628   0.501   6.274  13.642 -0.0212  1.2095  0.8419
17713TIP3   OH274629   6.743   6.341  13.927  0.0366  0.1431  0.4033
17713TIP3    H174630   6.790   6.286  13.989 -0.5783  0.7141  1.3948
17713TIP3    H274631   6.650   6.320  13.941 -0.0533 -1.1994 -1.7406
17714TIP3   OH274632   4.524   4.140   0.493 -0.1039 -0.3753 -0.3552
17714TIP3    H174633   4.607   4.093   0.491  1.2532  1.5724  2.6469
17714TIP3    H274634   4.479   4.106   0.570 -0.2754  1.2900  0.3261
17715TIP3   OH274635   5.647   0.974   6.629 -0.1211  0.7187 -0.0921
17715TIP3    H174636   5.620   0.968   6.721 -0.0044  0.5038 -0.0715
17715TIP3    H274637   5.730   1.023   6.631  0.6410 -0.5389  0.0660
17716TIP3   OH274638   6.497   1.782  11.065 -0.2816 -0.0172  0.3324
17716TIP3    H174639   6.511   1.759  10.973 -0.6164  0.4587  0.1636
17716TIP3    H274640   6.490   1.697  11.110  0.4026 -0.2561  0.0038
17717TIP3   OH274641   0.673   0.950  14.853 -0.1823  0.2731  0.3153
17717TIP3    H174642   0.600   0.990  14.806  0.8309  1.6129 -0.1688
17717TIP3    H274643   0.729   0.914  14.784  0.4263  0.6892  0.5871
17718TIP3   OH274644   4.424   4.149  13.529 -0.3488  0.0534  0.4703
17718TIP3    H174645   4.512   4.123  13.503 -0.1347 -0.8982  2.0467
17718TIP3    H274646   4.372   4.138  13.449  1.1903  2.1550 -0.9512
17719TIP3   OH274647   0.718   2.274   0.270  0.0887  0.3045 -0.0689
17719TIP3    H174648   0.628   2.305   0.257 -0.6738 -1.0979  1.6162
17719TIP3    H274649   0.757   2.280   0.183 -1.9626 -0.0774 -1.0891
17720TIP3   OH274650   3.118   1.278  16.354  0.0027 -0.3036  0.3503
17720TIP3    H174651   3.064   1.201  16.372 -0.1796 -1.1449 -3.1093
17720TIP3    H274652   3.058   1.352  16.367 -1.6589 -1.1339 -1.9107
17721TIP3   OH274653   6.229   4.350   5.506 -0.2649  0.2574 -0.0029
17721TIP3    H174654   6.285   4.327   5.433 -0.4676 -0.6321  0.1080
17721TIP3    H274655   6.289   4.378   5.575  0.0337 -0.5231  0.0588
17722TIP3   OH274656   4.178   0.407  13.827  0.2238  0.4992 -0.9926
17722TIP3    H174657   4.205   0.441  13.912  0.3740 -0.6249 -0.5743
17722TIP3    H274658   4.083   0.396  13.834  0.4171 -1.0172 -0.4172
17723TIP3   OH274659   5.304   0.715  15.583  0.2867 -0.1786  0.1917
17723TIP3    H174660   5.277   0.800  15.548 -1.5401 -1.0072 -0.5448
17723TIP3    H274661   5.244   0.699  15.656  0.0914 -1.1756 -0.1703
17724TIP3   OH274662   0.950   1.938  16.015 -0.1585 -0.5994  0.0461
17724TIP3    H174663   0.927   2.018  15.967 -0.7815 -1.3164 -0.8846
17724TIP3    H274664   0.970   1.969  16.104 -0.4100  0.5852 -0.2826
17725TIP3   OH274665   6.377   1.018  16.575  0.1457  0.0176 -0.2588
17725TIP3    H174666   6.470   1.029  16.557  0.4734  0.0971  1.3647
17725TIP3    H274667   6.337   1.099  16.542  1.1222  1.5109  1.9412
17726TIP3   OH274668   6.474   2.258  14.028 -0.6970 -0.0601  0.1462
17726TIP3    H174669   6.383   2.247  14.001 -0.7859 -1.1059  0.8202
17726TIP3    H274670   6.469   2.319  14.102 -0.6933  0.9317 -0.6479
17727TIP3   OH274671   4.908   4.166  15.668 -0.3839 -0.0005  0.4406
17727TIP3    H174672   4.857   4.122  15.736  0.1569  0.4672  1.1712
17727TIP3    H274673   4.845   4.222  15.623 -0.4618  0.8669  1.5912
17728TIP3   OH274674   6.458   2.328   2.151 -0.0977 -0.6239  0.2938
17728TIP3    H174675   6.549   2.352   2.132 -0.3450 -0.6074 -0.9907
17728TIP3    H274676   6.457   2.232   2.145 -0.4471 -0.5500 -1.1866
17729TIP3   OH274677   3.381   2.551  14.714  0.9826  0.2341 -0.3509
17729TIP3    H174678   3.347   2.533  14.626 -1.2764 -2.9003  1.0164
17729TIP3    H274679   3.308   2.591  14.761  2.1472  1.8234  0.2249
17730TIP3   OH274680   0.369   2.660  13.227 -0.1718 -0.5129  0.5734
17730TIP3    H174681   0.327   2.622  13.149  1.8023 -2.4561  0.3452
17730TIP3    H274682   0.422   2.731  13.193 -0.0403 -0.7545  0.2636
17731TIP3   OH274683   6.248   5.835  14.795  0.1454  0.0422  0.0849
17731TIP3    H174684   6.279   5.774  14.863  1.2564  1.1298  0.5920
17731TIP3    H274685   6.153   5.821  14.791  0.2223 -0.8647  1.0368
17732TIP3   OH274686   5.506   1.973   1.956 -0.1789  0.9474  0.0937
17732TIP3    H174687   5.525   1.907   1.889  0.8630  0.7098  0.5983
17732TIP3    H274688   5.425   2.014   1.927 -1.5499 -1.3772  0.3917
17733TIP3   OH274689   6.128   0.896  16.136  0.1627  0.3396  0.1762
17733TIP3    H174690   6.157   0.967  16.193  0.1784 -1.0227  1.9632
17733TIP3    H274691   6.177   0.909  16.055 -0.6453  2.9631  0.0074
17734TIP3   OH274692   1.547   0.764  11.330  0.6339  0.6608  0.5567
17734TIP3    H174693   1.617   0.751  11.394  0.6786 -0.8430  0.2452
17734TIP3    H274694   1.592   0.788  11.249  0.7153  0.6737  0.6063
17735TIP3   OH274695   4.344   6.206   2.747  0.5959  0.0649 -0.4017
17735TIP3    H174696   4.421   6.262   2.751  0.5755  0.0337  0.7077
17735TIP3    H274697   4.325   6.199   2.653 -0.1257  2.8824 -0.5650
17736TIP3   OH274698   3.515   6.682   0.578 -0.3292 -0.1787  0.0092
17736TIP3    H174699   3.595   6.705   0.530 -0.3985 -1.3569 -0.7139
17736TIP3    H274700   3.475   6.614   0.525 -0.6772 -1.1705  1.4950
17737TIP3   OH274701   4.248   3.143  12.052 -0.0392 -0.0762 -0.0914
17737TIP3    H174702   4.241   3.215  12.115  0.5785 -0.4238  0.3903
17737TIP3    H274703   4.249   3.064  12.105 -1.2210 -0.4827 -0.6489
17738TIP3   OH274704   3.771   1.685  16.416  0.1792  0.2498  0.0590
17738TIP3    H174705   3.827   1.693  16.339 -1.0535 -0.6569 -0.9822
17738TIP3    H274706   3.682   1.698  16.382 -0.4411 -0.8594  1.1909
17739TIP3   OH274707   6.458   5.266   5.546 -0.1270  0.1861 -0.8392
17739TIP3    H174708   6.539   5.279   5.594 -0.9700  0.7174  0.5166
17739TIP3    H274709   6.449   5.171   5.539 -0.8287 -0.0047  1.6695
17740TIP3   OH274710   0.287   4.475  14.245 -0.6456 -0.4374 -0.0674
17740TIP3    H174711   0.264   4.566  14.229 -0.5648 -0.0344  1.9632
17740TIP3    H274712   0.241   4.451  14.325  0.3352 -1.7945  0.1411
17741TIP3   OH274713   0.854   3.965  13.551  0.6309 -0.5779  0.4172
17741TIP3    H174714   0.936   3.928  13.585  1.9646  2.5683  0.9774
17741TIP3    H274715   0.816   4.010  13.626  0.3907  1.2293 -0.7534
17742TIP3   OH274716   1.635   6.492   5.220  0.2470  0.4055 -0.2286
17742TIP3    H174717   1.572   6.448   5.164  0.0398  2.4276 -1.6980
17742TIP3    H274718   1.668   6.423   5.277  0.6444 -1.8497 -2.9557
17743TIP3   OH274719   3.742   5.996   3.728 -0.0385 -0.3534 -0.1019
17743TIP3    H174720   3.772   5.924   3.784 -1.1756  0.6721  1.9583
17743TIP3    H274721   3.648   6.002   3.746 -0.2807  0.5870 -1.5150
17744TIP3   OH274722   2.412   4.595   3.732 -0.0469  0.0444  0.1198
17744TIP3    H174723   2.421   4.689   3.722 -2.4136  0.4243  1.1300
17744TIP3    H274724   2.431   4.578   3.824  2.3454 -0.8034 -0.4487
17745TIP3   OH274725   6.183   2.881  15.637 -0.0193  0.0256 -0.0065
17745TIP3    H174726   6.222   2.880  15.550 -0.8470 -0.2437 -0.3811
17745TIP3    H274727   6.211   2.965  15.675 -1.3088  1.0865 -1.2989
17746TIP3   OH274728   0.073   6.668   4.084  0.4472 -0.1706 -0.0148
17746TIP3    H174729   0.020   6.625   4.152  0.8596  1.6218  1.5138
17746TIP3    H274730   0.010   6.720   4.035  0.2994 -0.6859 -0.3789
17747TIP3   OH274731   4.155   3.084  16.766  0.6483  0.1535 -0.2237
17747TIP3    H174732   4.110   3.121  16.690 -0.2899 -1.4981 -0.5152
17747TIP3    H274733   4.242   3.060  16.734  1.8082  3.2051  0.2994
17748TIP3   OH274734   4.957   1.918  13.586 -0.2623 -0.2312 -0.5495
17748TIP3    H174735   4.989   2.005  13.611 -2.2120  0.3790  0.0762
17748TIP3    H274736   5.030   1.859  13.602  0.1200  0.8395  2.0665
17749TIP3   OH274737   0.357   3.792  12.580  0.3998  0.4057  0.2307
17749TIP3    H174738   0.406   3.729  12.527  1.5353  2.1199 -0.8316
17749TIP3    H274739   0.333   3.743  12.659  0.0097 -1.7708 -1.1352
17750TIP3   OH274740   4.342   5.849  14.116  0.4964  0.0165 -0.5383
17750TIP3    H174741   4.301   5.766  14.140  0.6288  0.1335  0.1191
17750TIP3    H274742   4.272   5.914  14.123  0.7188  0.1790  0.3543
17751TIP3   OH274743   6.700   0.883  12.119  0.2323 -0.0030 -0.1300
17751TIP3    H174744   6.692   0.797  12.077 -2.5160  0.4546 -0.7231
17751TIP3    H274745   6.665   0.944  12.054  0.2056  1.3054  1.0754
17752TIP3   OH274746   2.544   0.834   1.605  0.3367  0.5572  0.2614
17752TIP3    H174747   2.500   0.856   1.688 -0.4522 -1.9307  0.5685
17752TIP3    H274748   2.635   0.821   1.630 -0.0735 -1.2047  1.0105
17753TIP3   OH274749   4.151   5.721   4.151 -0.0608 -0.1265  0.4557
17753TIP3    H174750   4.185   5.789   4.209 -0.2007  1.4091 -1.1766
17753TIP3    H274751   4.098   5.769   4.087  1.3028 -1.5063 -1.8595
17754TIP3   OH274752   4.918   1.721   0.297  0.3447  0.5644 -0.0336
17754TIP3    H174753   4.944   1.645   0.245  1.1996  0.8429 -0.0342
17754TIP3    H274754   4.839   1.754   0.254  0.4640  0.1896 -0.5478
17755TIP3   OH274755   0.354   3.569   2.963  0.0039  0.1076 -0.1259
17755TIP3    H174756   0.363   3.520   3.044  1.8534 -0.8656 -0.8512
17755TIP3    H274757   0.363   3.661   2.988 -1.5273 -0.0115  0.9954
17756TIP3   OH274758   2.945   2.636   2.508  0.1370  0.1977 -0.2944
17756TIP3    H174759   2.969   2.566   2.447 -2.9160 -1.8681  0.6433
17756TIP3    H274760   2.899   2.700   2.454 -2.5058 -1.5955 -0.3921
17757TIP3   OH274761   0.760   6.289  11.052  0.5978 -0.2416 -0.6443
17757TIP3    H174762   0.744   6.319  10.963 -1.0613  0.4572 -0.1439
17757TIP3    H274763   0.844   6.328  11.075 -0.5415  2.4798 -0.7391
17758TIP3   OH274764   5.040   3.948  13.169  0.5408 -0.4018 -0.3135
17758TIP3    H174765   5.084   4.031  13.151  1.7056 -0.6348  1.1935
17758TIP3    H274766   5.007   3.957  13.258  0.4794 -1.4604 -0.2139
17759TIP3   OH274767   4.350   3.703  14.237  0.4901 -0.2084  0.6195
17759TIP3    H174768   4.429   3.733  14.283  0.9712  1.4136 -1.1332
17759TIP3    H274769   4.279   3.725  14.297  1.2153  0.2370  1.3507
17760TIP3   OH274770   2.346   6.096  16.577 -0.3553 -0.1809  0.3045
17760TIP3    H174771   2.302   6.141  16.650  0.7575  1.5633 -0.0382
17760TIP3    H274772   2.374   6.013  16.615 -0.9150  0.1383  1.4938
17761TIP3   OH274773   0.709   4.694  13.780  0.3310 -0.0172  0.2385
17761TIP3    H174774   0.615   4.680  13.769  0.4803 -0.1564 -0.9926
17761TIP3    H274775   0.722   4.786  13.756  0.5812 -0.1319 -0.0615
17762TIP3   OH274776   3.513   6.419   1.109 -0.2993 -0.6600 -0.1654
17762TIP3    H174777   3.508   6.501   1.060  0.2399 -0.4424  0.1341
17762TIP3    H274778   3.422   6.394   1.124 -0.4818 -0.8894 -1.5347
17763TIP3   OH274779   5.308   1.163  11.840  0.1795  0.0682 -0.1789
17763TIP3    H174780   5.277   1.216  11.766  1.5744 -0.1952 -0.9847
17763TIP3    H274781   5.330   1.078  11.800  1.5550  0.1267  0.4035
17764TIP3   OH274782   0.206   6.209   0.674 -0.0951  0.4948 -0.3217
17764TIP3    H174783   0.177   6.172   0.591 -0.2440  0.2204 -0.1464
17764TIP3    H274784   0.292   6.247   0.655 -0.1883  0.5518 -0.6327
17765TIP3   OH274785   2.646   5.350   0.375  0.0280 -0.3569  0.2470
17765TIP3    H174786   2.708   5.344   0.448 -2.0445 -1.2550  2.0631
17765TIP3    H274787   2.674   5.282   0.314  0.5716 -1.0511  1.2422
17766TIP3   OH274788   4.827   4.675  14.798 -0.6176  0.8608  0.0646
17766TIP3    H174789   4.846   4.687  14.705 -2.1229 -0.9188 -0.5287
17766TIP3    H274790   4.759   4.740  14.817  0.7676  2.2740  0.3531
17767TIP3   OH274791   2.185   0.451  14.890 -0.1543  0.0987 -0.0843
17767TIP3    H174792   2.151   0.472  14.977  0.4300 -0.8150  0.3782
17767TIP3    H274793   2.223   0.363  14.899  0.9740  0.4652 -0.9534
17768TIP3   OH274794   4.835   6.332   3.211  0.6080 -0.1089 -0.3600
17768TIP3    H174795   4.844   6.347   3.305  1.6185 -2.2617 -0.0598
17768TIP3    H274796   4.747   6.363   3.190 -0.6755 -1.9784  1.8428
17769TIP3   OH274797   5.666   2.808   3.543  0.3037  0.0336  0.1933
17769TIP3    H174798   5.703   2.751   3.475  0.5771 -1.1709  1.3125
17769TIP3    H274799   5.653   2.892   3.499 -1.4063 -1.2299 -1.9114
17770TIP3   OH274800   0.073   5.913   3.468  0.1620  1.1720  0.6209
17770TIP3    H174801   0.119   5.843   3.421 -0.9139  0.2906  0.8185
17770TIP3    H274802   0.098   5.900   3.560  0.7987  1.7248  0.5306
17771TIP3   OH274803   0.661   2.034   5.524 -0.6878  0.0062 -0.6959
17771TIP3    H174804   0.613   2.111   5.495  0.2165  0.9377  0.2050
17771TIP3    H274805   0.594   1.977   5.562 -1.3147  0.4942 -1.0530
17772TIP3   OH274806   5.442   0.073  14.238 -0.2846 -0.4196  0.0254
17772TIP3    H174807   5.456   0.124  14.158 -0.7425 -1.1553 -0.5314
17772TIP3    H274808   5.513   0.009  14.239  0.6611  0.5908  1.0469
17773TIP3   OH274809   2.480   1.810   3.565 -0.5076  0.5686  0.3765
17773TIP3    H174810   2.467   1.892   3.517 -0.2944  1.9023  2.4802
17773TIP3    H274811   2.446   1.743   3.506  1.1285  1.8916 -2.2775
17774TIP3   OH274812   0.270   5.016   0.866 -0.9871  0.0927  0.0747
17774TIP3    H174813   0.356   5.056   0.856 -0.1544 -1.5280  0.5520
17774TIP3    H274814   0.256   5.010   0.960 -0.4457 -2.0098  0.0632
17775TIP3   OH274815   2.523   4.065   0.840  0.3780  0.5717 -0.1530
17775TIP3    H174816   2.438   4.107   0.826 -0.5306 -1.0096  0.3081
17775TIP3    H274817   2.503   3.971   0.844  2.2441  0.1103 -0.6664
17776TIP3   OH274818   5.872   5.263   2.854 -0.2837  0.3378  0.3163
17776TIP3    H174819   5.780   5.273   2.878 -0.4053  2.4168 -0.8010
17776TIP3    H274820   5.918   5.320   2.915  0.3067 -0.8356  0.9881
17777TIP3   OH274821   5.696   1.383   0.721  0.9458 -0.7253 -0.7286
17777TIP3    H174822   5.665   1.378   0.811  0.7736  0.4638 -0.6988
17777TIP3    H274823   5.785   1.419   0.728  1.0180 -0.8485 -1.0145
17778TIP3   OH274824   4.358   3.975  14.497 -0.2795  0.0798  0.3865
17778TIP3    H174825   4.285   3.968  14.436  0.6182  3.6065 -1.3331
17778TIP3    H274826   4.350   4.062  14.535  2.7368  0.4537  0.4362
17779TIP3   OH274827   1.225   4.409  14.372  0.2133 -0.0336  0.0444
17779TIP3    H174828   1.305   4.356  14.373  0.8357  0.8801 -0.2282
17779TIP3    H274829   1.238   4.473  14.443  0.7974  1.6347 -1.4959
17780TIP3   OH274830   5.918   0.527  16.035  0.2913  0.5177 -0.0959
17780TIP3    H174831   5.949   0.524  15.944  2.1842  0.3022  0.5203
17780TIP3    H274832   5.980   0.473  16.083 -1.5856 -0.6906  1.1077
17781TIP3   OH274833   0.855   5.353   6.346  0.3679 -0.6903 -0.0724
17781TIP3    H174834   0.805   5.290   6.398  0.5876 -0.6401  0.2020
17781TIP3    H274835   0.941   5.313   6.335  1.2690  0.5394  2.0468
17782TIP3   OH274836   1.654   3.282   1.411 -0.0730  0.0996  0.3132
17782TIP3    H174837   1.661   3.317   1.322 -1.3503  0.0504  0.1772
17782TIP3    H274838   1.594   3.341   1.456  0.3648 -0.0185  1.0837
17783TIP3   OH274839   1.883   1.314  13.972  0.7968 -0.2899 -0.5268
17783TIP3    H174840   1.903   1.375  13.902 -2.1941  0.7408 -0.5945
17783TIP3    H274841   1.828   1.247  13.931 -0.1883 -0.1996  0.5994
17784TIP3   OH274842   6.111   6.116   0.624  0.4939  0.3657 -0.3096
17784TIP3    H174843   6.043   6.118   0.692  0.9676 -1.1578  0.2590
17784TIP3    H274844   6.062   6.115   0.541 -0.2667 -1.4696  0.1025
17785TIP3   OH274845   6.521   0.633   3.377  0.2658  0.3149  0.1216
17785TIP3    H174846   6.573   0.554   3.368  0.8313  0.7668 -0.8669
17785TIP3    H274847   6.529   0.676   3.291 -0.4943  1.1465  0.4521
17786TIP3   OH274848   0.486   5.298   5.587  0.5635 -0.1703  0.1905
17786TIP3    H174849   0.541   5.375   5.604  0.5331  0.0231 -0.5618
17786TIP3    H274850   0.504   5.275   5.496 -1.6071  0.7582 -0.5521
17787TIP3   OH274851   1.667   2.597   0.466  0.2065  0.3558  0.2098
17787TIP3    H174852   1.751   2.592   0.512  0.4566  1.3236 -0.1122
17787TIP3    H274853   1.689   2.589   0.373  0.0900  1.7560  0.0414
17788TIP3   OH274854   1.639   2.029   5.158 -0.2451 -0.3029  0.3911
17788TIP3    H174855   1.732   2.022   5.180  0.3295  0.3735 -1.5562
17788TIP3    H274856   1.637   2.097   5.090 -2.0888 -0.7614 -0.0455
17789TIP3   OH274857   5.923   2.517  11.202  0.1483 -0.2730 -0.2473
17789TIP3    H174858   5.868   2.596  11.201  0.9873  0.3213 -0.8901
17789TIP3    H274859   5.935   2.496  11.109  1.6178  0.0546 -0.1494
17790TIP3   OH274860   3.173   0.101   0.814 -0.0897  0.4061 -0.0682
17790TIP3    H174861   3.263   0.073   0.802 -0.8053 -2.5138  0.5445
17790TIP3    H274862   3.127   0.070   0.736 -0.5563  2.0605 -0.4805
17791TIP3   OH274863   4.481   6.717  14.727 -0.4590 -0.4952  0.4604
17791TIP3    H174864   4.565   6.673  14.736  0.0247  0.4143  0.5517
17791TIP3    H274865   4.433   6.665  14.663  0.8938 -0.0058 -1.0204
17792TIP3   OH274866   5.693   1.330  13.261 -0.3163  0.3530 -0.0654
17792TIP3    H174867   5.619   1.273  13.241 -1.3269  1.6179 -0.0671
17792TIP3    H274868   5.742   1.337  13.179 -1.5063  1.3246 -0.7294
17793TIP3   OH274869   1.007   6.790  14.520  0.1114 -0.8182 -0.1237
17793TIP3    H174870   0.922   6.752  14.542 -1.0109  0.3142 -2.1341
17793TIP3    H274871   1.049   6.724  14.465 -1.3954  0.2547 -2.7495
17794TIP3   OH274872   0.377   1.525  12.139  0.2430 -0.1671  0.1139
17794TIP3    H174873   0.451   1.513  12.199  2.2061  1.7095 -1.7525
17794TIP3    H274874   0.400   1.473  12.062 -0.3899  0.4475 -0.4967
17795TIP3   OH274875   3.985   1.052  13.599 -0.1498  0.7942  0.0474
17795TIP3    H174876   4.055   1.100  13.555  2.6237 -0.8731  2.2576
17795TIP3    H274877   4.002   0.960  13.577 -0.8839  0.2394  1.6172
17796TIP3   OH274878   0.152   3.381   4.789 -0.1057  0.4453  0.1380
17796TIP3    H174879   0.149   3.425   4.874 -1.6153  1.1252 -0.2438
17796TIP3    H274880   0.168   3.289   4.811  0.4755  0.7636  1.0926
17797TIP3   OH274881   4.378   1.946   6.478 -0.1134  0.7149 -0.3559
17797TIP3    H174882   4.364   1.851   6.484 -1.4205  0.8821 -0.4658
17797TIP3    H274883   4.349   1.980   6.562  1.9907  0.8728  0.3539
17798TIP3   OH274884   1.965   4.383   3.798  0.2930  0.2758 -0.1365
17798TIP3    H174885   2.021   4.452   3.762  0.1790  1.3340  1.5958
17798TIP3    H274886   2.026   4.312   3.819  0.7470  0.7156  0.0701
17799TIP3   OH274887   0.817   4.229   5.615  0.4949 -0.5885 -0.0053
17799TIP3    H174888   0.838   4.315   5.650  0.9826 -0.5367 -0.4242
17799TIP3    H274889   0.756   4.246   5.543 -1.5582 -0.7721  1.5819
17800TIP3   OH274890   5.559   5.654  10.606  0.1974  0.5105 -0.1147
17800TIP3    H174891   5.597   5.570  10.630 -0.6772 -0.2717 -1.3438
17800TIP3    H274892   5.602   5.678  10.524  0.3450  1.2019  0.1555
17801TIP3   OH274893   4.549   5.452  13.553 -0.0298 -0.1338 -0.5544
17801TIP3    H174894   4.612   5.515  13.587 -1.4633  1.6080 -0.9920
17801TIP3    H274895   4.477   5.453  13.616 -1.1083  0.4500 -1.7427
17802TIP3   OH274896   1.002   4.502  11.675  0.3427 -0.6296  0.1383
17802TIP3    H174897   0.949   4.541  11.605 -1.0780 -0.7454  1.1062
17802TIP3    H274898   0.979   4.409  11.673 -0.4703 -0.4740  1.3793
17803TIP3   OH274899   4.318   4.617   2.846 -0.2326  0.2241  0.2324
17803TIP3    H174900   4.282   4.623   2.934 -1.3270  2.7464 -0.3035
17803TIP3    H274901   4.265   4.678   2.794  1.7375  0.4052 -1.6966
17804TIP3   OH274902   6.191   2.782   1.283 -0.2663 -0.1840  0.9311
17804TIP3    H174903   6.219   2.873   1.273 -1.3637 -0.0022 -0.9738
17804TIP3    H274904   6.171   2.753   1.194 -3.9914 -0.9237  1.8423
17805TIP3   OH274905   4.966   6.488  16.670 -0.1173 -0.2174  0.5791
17805TIP3    H174906   5.050   6.500  16.627 -0.6850 -0.2040 -0.5599
17805TIP3    H274907   4.954   6.567  16.722  0.3413 -0.0006  0.3573
17806TIP3   OH274908   6.026   4.452  11.679  0.4324 -0.0493 -0.3949
17806TIP3    H174909   6.015   4.438  11.773 -1.6250 -1.4293 -0.7754
17806TIP3    H274910   6.096   4.518  11.672 -0.7235  1.5712  2.1331
17807TIP3   OH274911   2.040   5.535   3.792  0.4707  0.2884 -0.1107
17807TIP3    H174912   2.125   5.491   3.798  1.1498  0.9262 -3.0831
17807TIP3    H274913   1.977   5.470   3.822  1.7412 -1.4573 -1.0049
17808TIP3   OH274914   0.618   1.383   5.575  0.6376  0.5833 -0.1518
17808TIP3    H174915   0.542   1.439   5.590 -0.7052 -0.8321 -1.2571
17808TIP3    H274916   0.686   1.442   5.542  0.2000  1.9560  1.2837
17809TIP3   OH274917   0.706   4.714   2.774 -0.5380  0.3238  0.6451
17809TIP3    H174918   0.793   4.728   2.738 -0.6374  0.0644  0.3010
17809TIP3    H274919   0.721   4.690   2.865 -0.3331  2.1740  1.1481
17810TIP3   OH274920   1.991   0.090  15.924 -0.0226 -0.2342 -0.2932
17810TIP3    H174921   2.083   0.092  15.949 -0.2046  0.1420  0.3731
17810TIP3    H274922   1.992   0.073  15.830  0.7288 -0.1745 -0.3000
17811TIP3   OH274923   1.946   2.333  12.920  0.2344 -0.0220  0.6878
17811TIP3    H174924   1.916   2.302  13.005 -0.1808  0.0107  0.5555
17811TIP3    H274925   1.967   2.426  12.934  0.5737 -0.1225  0.8549
17812TIP3   OH274926   2.102   4.754   1.077 -0.4377  0.2594 -0.4593
17812TIP3    H174927   2.171   4.696   1.044  0.0293  1.0892 -0.9827
17812TIP3    H274928   2.032   4.694   1.105  1.0378 -0.6854  1.4344
17813TIP3   OH274929   2.505   2.541   2.413 -0.3730 -0.1876  0.1145
17813TIP3    H174930   2.558   2.465   2.388 -1.8067 -0.9222 -0.8100
17813TIP3    H274931   2.474   2.578   2.330  1.2769  2.2030  0.4493
17814TIP3   OH274932   4.594   1.470   2.456 -0.2052  0.3355  0.6139
17814TIP3    H174933   4.569   1.422   2.378  1.5000 -0.5214  0.5487
17814TIP3    H274934   4.572   1.561   2.437  0.1185  0.1325 -0.8525
17815TIP3   OH274935   6.094   6.586   1.124 -0.1413 -0.3974  0.3035
17815TIP3    H174936   6.142   6.669   1.126  1.0823 -1.0941  0.9073
17815TIP3    H274937   6.140   6.533   1.059  0.6047 -1.4673  1.6545
17816TIP3   OH274938   1.863   4.945   5.893 -0.3098  0.5295  0.0472
17816TIP3    H174939   1.878   5.036   5.869  0.1779  1.2053  2.5912
17816TIP3    H274940   1.945   4.917   5.934 -0.8556 -0.6592  0.3837
17817TIP3   OH274941   2.429   1.871  13.028 -0.1892  0.1947  0.5643
17817TIP3    H174942   2.380   1.924  13.091 -0.5462  0.5375 -0.0005
17817TIP3    H274943   2.466   1.934  12.967  0.1316 -0.1428  0.4043
17818TIP3   OH274944   6.608   4.578   4.842 -0.8582  0.0873 -0.1190
17818TIP3    H174945   6.677   4.627   4.797 -1.2202  2.6406  1.8351
17818TIP3    H274946   6.541   4.564   4.775  0.8500 -1.1069 -1.6614
17819TIP3   OH274947   2.236   6.240  12.498 -0.8054 -0.0594 -0.2357
17819TIP3    H174948   2.281   6.157  12.516 -1.0246  0.2642  2.0291
17819TIP3    H274949   2.227   6.242  12.403 -0.6482 -2.5600 -0.3660
17820TIP3   OH274950   5.872   4.242  16.458  1.0391  0.4866 -0.2300
17820TIP3    H174951   5.926   4.274  16.385  0.3648  1.0221 -0.5001
17820TIP3    H274952   5.786   4.280  16.443  1.0424  1.0725  1.1677
17821TIP3   OH274953   5.942   5.808  14.776  0.2889  0.1946 -0.1197
17821TIP3    H174954   5.922   5.888  14.824 -0.7130 -0.1373  0.0530
17821TIP3    H274955   5.921   5.737  14.838  2.8357 -0.2097  0.3706
17822TIP3   OH274956   5.239   4.576   4.893 -0.0058  0.3164 -0.2771
17822TIP3    H174957   5.313   4.523   4.922  0.6264  1.0955 -0.4208
17822TIP3    H274958   5.278   4.642   4.835 -0.9549  0.1100 -1.1763
17823TIP3   OH274959   4.028   3.320   6.306 -0.2561  0.6621 -0.4332
17823TIP3    H174960   4.059   3.268   6.379 -0.8688 -0.3860 -0.8984
17823TIP3    H274961   4.078   3.401   6.311  0.5568  0.1219  0.4315
17824TIP3   OH274962   1.942   1.293  12.659  0.4836 -0.2570  0.3578
17824TIP3    H174963   1.920   1.206  12.693  0.7585 -0.6413 -0.4093
17824TIP3    H274964   1.935   1.283  12.564  1.0349  0.4185  0.2401
17825TIP3   OH274965   6.209   6.767  16.140  0.2678 -1.2981 -0.6630
17825TIP3    H174966   6.255   6.785  16.222 -0.2445 -1.7234 -0.2708
17825TIP3    H274967   6.133   6.824  16.142  0.4927 -0.9818 -1.0560
17826TIP3   OH274968   1.503   3.806  15.033 -0.8887  0.4549  0.2804
17826TIP3    H174969   1.437   3.862  14.992  0.5284  1.0835 -1.2799
17826TIP3    H274970   1.585   3.853  15.019  0.0684 -0.9563  0.9361
17827TIP3   OH274971   0.978   2.271  11.921  0.6270 -0.3289 -0.5463
17827TIP3    H174972   1.027   2.189  11.925  0.7721 -0.2794 -1.1836
17827TIP3    H274973   0.911   2.263  11.988  0.3276 -1.1806 -0.9366
17828TIP3   OH274974   2.751   4.114   3.582 -0.4327  0.1389  0.1639
17828TIP3    H174975   2.710   4.037   3.622  1.3016 -1.6909 -1.3676
17828TIP3    H274976   2.811   4.078   3.517  0.9435  2.8060 -0.1689
17829TIP3   OH274977   0.101   2.076   3.798 -0.4550 -0.0689 -0.1353
17829TIP3    H174978   0.176   2.094   3.854 -0.6212 -0.0550  0.0822
17829TIP3    H274979   0.132   2.009   3.737 -0.3137 -0.1704  0.0480
17830TIP3   OH274980   3.378   6.331  13.589 -0.0071 -0.4735 -0.6509
17830TIP3    H174981   3.366   6.377  13.506  1.3297 -1.2295 -1.3007
17830TIP3    H274982   3.328   6.250  13.579 -0.7004 -0.0916 -0.3028
17831TIP3   OH274983   4.750   6.722  11.107 -0.5271 -0.3710 -0.0061
17831TIP3    H174984   4.754   6.728  11.012 -0.7507  2.2280  0.0742
17831TIP3    H274985   4.659   6.744  11.129 -1.2106 -3.5053  0.7539
17832TIP3   OH274986   0.876   6.709   3.874  0.6916  0.4003  0.1658
17832TIP3    H174987   0.809   6.773   3.896  0.8877  0.6086  0.1614
17832TIP3    H274988   0.835   6.624   3.893  0.6733  0.5531  0.8320
17833TIP3   OH274989   6.814   0.289   3.569  0.1700 -0.4202  0.4578
17833TIP3    H174990   6.750   0.218   3.572  1.0563 -1.3213 -1.0998
17833TIP3    H274991   6.867   0.271   3.492  0.0980  2.2399 -0.3254
17834TIP3   OH274992   5.207   4.011  10.997  0.3159 -0.0683  0.3804
17834TIP3    H174993   5.218   4.039  11.088  1.9142 -0.0673  0.2284
17834TIP3    H274994   5.233   3.919  10.997  1.3528  0.2026 -0.2265
17835TIP3   OH274995   5.691   5.716   2.752  0.3761  0.4223  0.5131
17835TIP3    H174996   5.617   5.722   2.691  2.7071  1.7336 -2.4696
17835TIP3    H274997   5.656   5.748   2.835 -2.8459 -0.8211 -0.1955
17836TIP3   OH274998   4.483   5.626   1.029  0.3234  0.3865  0.0768
17836TIP3    H174999   4.540   5.599   0.957 -0.2939 -2.6819  0.6325
17836TIP3    H275000   4.394   5.615   0.995 -0.0294  2.7141  0.0696
17837TIP3   OH275001   0.392   5.728  14.078  0.5569  0.3265 -0.1333
17837TIP3    H175002   0.351   5.643  14.090 -1.3520  1.0952 -0.8447
17837TIP3    H275003   0.320   5.787  14.055  1.6549  2.3470  1.2170
17838TIP3   OH275004   3.539   1.600  16.860  0.3904  0.4719 -0.7875
17838TIP3    H175005   3.581   1.544  16.926  3.4414  1.6916 -1.5141
17838TIP3    H275006   3.580   1.573  16.777  0.2612  2.2032 -1.4584
17839TIP3   OH275007   5.795   3.492  14.298  0.0498  0.0768  0.1571
17839TIP3    H175008   5.713   3.541  14.302  0.6245  1.0996 -0.1175
17839TIP3    H275009   5.848   3.530  14.368  1.0593  0.9075 -1.0206
17840TIP3   OH275010   2.359   1.129   0.085  0.0115 -0.0101  0.1718
17840TIP3    H175011   2.295   1.150   0.017 -0.0457 -0.3194  0.1316
17840TIP3    H275012   2.442   1.125   0.039  0.2045  1.2805  0.3651
17841TIP3   OH275013   3.599   3.834   1.528  0.1818  0.2035  0.1179
17841TIP3    H175014   3.673   3.794   1.484  0.3160  0.8664 -0.2774
17841TIP3    H275015   3.614   3.928   1.520 -0.9505  0.3599 -0.4104
17842TIP3   OH275016   2.180   3.379   2.309 -0.8215 -0.2831 -0.2029
17842TIP3    H175017   2.086   3.378   2.290 -1.0752 -0.0783  0.9489
17842TIP3    H275018   2.222   3.398   2.225 -1.9348  1.7169 -0.3776
17843TIP3   OH275019   4.268   3.036  14.981 -0.0122  0.5224 -0.0336
17843TIP3    H175020   4.217   3.101  14.932 -1.2125  0.7724  1.4979
17843TIP3    H275021   4.318   3.088  15.044 -0.6097  0.0132  0.8718
17844TIP3   OH275022   1.643   3.604   6.059 -0.2481  0.5514  0.2067
17844TIP3    H175023   1.579   3.662   6.100 -0.0412  1.2027 -0.3630
17844TIP3    H275024   1.728   3.640   6.087 -0.1176  0.6089 -0.2648
17845TIP3   OH275025   1.287   3.856   5.242  0.2923  0.0803  0.0608
17845TIP3    H175026   1.201   3.817   5.225  0.9194 -1.5925  0.5886
17845TIP3    H275027   1.321   3.808   5.317  1.7704  0.6250 -0.2303
17846TIP3   OH275028   5.387   2.773   1.836  0.3003  0.2095 -0.1122
17846TIP3    H175029   5.427   2.857   1.860 -1.5945  0.6594  1.7639
17846TIP3    H275030   5.323   2.794   1.768  1.3315 -0.1054 -1.2193
17847TIP3   OH275031   2.971   5.435   1.723  0.2546 -0.1540  0.1172
17847TIP3    H175032   2.901   5.483   1.767 -0.7852 -0.6486 -0.9319
17847TIP3    H275033   3.007   5.498   1.661 -1.2566 -0.6915 -1.4163
17848TIP3   OH275034   5.741   0.587   6.437  0.4976 -0.0300 -0.1966
17848TIP3    H175035   5.733   0.536   6.357 -0.0980  0.5206 -0.4952
17848TIP3    H275036   5.662   0.565   6.487  0.6046  0.0341  0.0017
17849TIP3   OH275037   2.942   6.016  15.105  0.5125 -0.5773 -0.0707
17849TIP3    H175038   2.868   6.012  15.165 -0.4604 -0.6278 -1.2355
17849TIP3    H275039   2.906   6.054  15.025  2.4285  2.3761  0.3277
17850TIP3   OH275040   2.924   6.294  13.216 -0.5148 -0.0876 -0.4469
17850TIP3    H175041   2.971   6.249  13.287  0.1705 -1.0487 -1.4628
17850TIP3    H275042   2.964   6.380  13.212 -0.6911  0.0489  0.4504
17851TIP3   OH275043   1.403   2.600   5.028  0.0228 -0.1278 -0.2205
17851TIP3    H175044   1.310   2.618   5.039  0.3586  0.6523  1.6458
17851TIP3    H275045   1.440   2.681   4.993 -0.0530 -0.5834 -1.3857
17852TIP3   OH275046   0.083   3.213  11.916  0.0410  0.2475  0.0556
17852TIP3    H175047   0.058   3.122  11.898  0.9800 -0.0227  0.0544
17852TIP3    H275048   0.001   3.262  11.912 -0.3313 -0.4385 -0.9750
17853TIP3   OH275049   2.882   1.926   3.934  0.5745  0.5016 -0.4007
17853TIP3    H175050   2.816   1.894   3.872 -0.2251  0.9848  0.1874
17853TIP3    H275051   2.966   1.908   3.891  0.0518  0.1948 -1.3139
17854TIP3   OH275052   5.796   4.282   1.382  0.0359  0.1691 -0.3526
17854TIP3    H175053   5.891   4.290   1.392 -0.1796  0.4207  2.2322
17854TIP3    H275054   5.774   4.198   1.423 -0.9448  0.5987  0.0423
17855TIP3   OH275055   3.830   1.538  15.174 -0.2452  0.2046 -0.1039
17855TIP3    H175056   3.824   1.564  15.082  0.4121  1.1744  0.1069
17855TIP3    H275057   3.745   1.562  15.211 -0.4664 -0.0719 -0.4335
17856TIP3   OH275058   5.855   4.669   2.762  0.2106 -0.5684  0.0089
17856TIP3    H175059   5.838   4.677   2.855  0.8910  0.4201  0.0610
17856TIP3    H275060   5.947   4.640   2.757  0.0601 -1.0015 -0.3504
17857TIP3   OH275061   5.364   0.112   4.224  0.3526 -0.5519  0.1353
17857TIP3    H175062   5.407   0.082   4.144  0.3631  0.8341 -0.4092
17857TIP3    H275063   5.329   0.198   4.202 -2.0815 -1.2850  0.7799
17858TIP3   OH275064   6.622   2.999   3.140 -0.0903  0.3864 -0.0151
17858TIP3    H175065   6.639   3.092   3.124  0.9083  0.7015  2.4526
17858TIP3    H275066   6.552   2.998   3.206  0.2356 -0.5840  0.3372
17859TIP3   OH275067   3.443   1.991  12.922  0.5091  0.3762  0.2318
17859TIP3    H175068   3.427   1.907  12.879  0.3367  0.1438  0.7429
17859TIP3    H275069   3.397   1.985  13.006  0.4333  1.0093  0.2427
17860TIP3   OH275070   1.631   5.964  16.860 -0.0363 -0.3755 -0.4141
17860TIP3    H175071   1.553   5.985  16.912  1.3035  1.6025  0.9658
17860TIP3    H275072   1.653   5.874  16.885 -0.0775  0.1367  1.7105
17861TIP3   OH275073   3.644   1.342  12.387 -0.7898 -0.2185 -0.0909
17861TIP3    H175074   3.645   1.257  12.430 -0.1796 -0.2017 -0.0630
17861TIP3    H275075   3.706   1.395  12.437  0.4164 -0.3841 -1.3729
17862TIP3   OH275076   5.028   4.774   4.695  0.0877 -0.0219  0.1051
17862TIP3    H175077   5.031   4.857   4.741 -0.0696 -0.1711  0.3905
17862TIP3    H275078   4.971   4.719   4.749 -2.2917  0.6036 -1.5739
17863TIP3   OH275079   2.531   4.493  11.172  0.7367  0.6278 -0.1812
17863TIP3    H175080   2.577   4.441  11.106  0.9152  2.1681 -1.3432
17863TIP3    H275081   2.588   4.569  11.185 -0.0556  1.0940  0.6096
17864TIP3   OH275082   4.017   3.161  17.012  0.1965 -0.0385 -0.1823
17864TIP3    H175083   3.927   3.129  17.016 -0.1915  0.8197 -1.4585
17864TIP3    H275084   4.051   3.128  16.929  0.9984 -0.1642  0.1778
17865TIP3   OH275085   1.529   4.085   1.608 -0.1585 -0.1519 -0.1719
17865TIP3    H175086   1.505   4.000   1.570 -0.3139  0.0730 -0.5874
17865TIP3    H275087   1.557   4.137   1.533 -0.6368  0.3605 -0.0020
17866TIP3   OH275088   1.749   0.519   0.520  0.1204  0.2108  0.1506
17866TIP3    H175089   1.706   0.551   0.441 -1.6449  0.7384  1.2660
17866TIP3    H275090   1.817   0.584   0.539  0.3095  0.2723 -0.7130
17867TIP3   OH275091   0.423   4.548   2.878 -0.1615  0.0363 -0.3509
17867TIP3    H175092   0.459   4.554   2.967  0.5729 -1.3485 -0.5374
17867TIP3    H275093   0.329   4.562   2.890 -0.0577 -0.0112  0.6235
17868TIP3   OH275094   1.146   3.897  13.901  0.1293 -0.2597 -0.1113
17868TIP3    H175095   1.056   3.927  13.890  0.2066 -0.6642 -2.3751
17868TIP3    H275096   1.146   3.808  13.866  1.5537 -0.0035 -0.8534
17869TIP3   OH275097   0.162   4.062  13.346  0.0246  0.2299 -0.1486
17869TIP3    H175098   0.170   4.157  13.353 -1.6873  0.3286  0.9822
17869TIP3    H275099   0.184   4.029  13.433 -0.0732 -0.3572 -0.3386
17870TIP3   OH275100   3.559   4.812  16.349  0.5500  0.1859 -0.2025
17870TIP3    H175101   3.553   4.732  16.400 -0.8338  0.4248  0.0406
17870TIP3    H275102   3.644   4.850  16.373 -0.2726  0.5844  2.3760
17871TIP3   OH275103   1.106   0.623  16.591 -0.2409 -0.4744 -0.2582
17871TIP3    H175104   1.088   0.715  16.573  3.4222  0.3198 -0.5276
17871TIP3    H275105   1.102   0.616  16.686  0.5507  0.2545 -0.1648
17872TIP3   OH275106   4.875   3.212  11.419  0.1705 -0.1253  0.2038
17872TIP3    H175107   4.967   3.239  11.426 -0.1503  1.2131 -0.4552
17872TIP3    H275108   4.825   3.286  11.454 -0.8113  0.9962 -3.2019
17873TIP3   OH275109   0.946   4.946  10.511  0.0169 -0.2518 -0.3744
17873TIP3    H175110   0.990   5.026  10.539 -0.2293 -0.7691  1.6766
17873TIP3    H275111   0.853   4.965  10.521 -0.0311 -0.9168  0.6027
17874TIP3   OH275112   2.160   1.858  15.198 -0.1860 -0.3117  0.2671
17874TIP3    H175113   2.187   1.920  15.266 -1.1235 -0.2113  0.5586
17874TIP3    H275114   2.183   1.902  15.115  0.3851 -0.1640  0.4993
17875TIP3   OH275115   5.474   3.367  12.101 -0.3263  0.5142  0.3986
17875TIP3    H175116   5.490   3.458  12.076 -1.9890  0.7686  0.0947
17875TIP3    H275117   5.560   3.332  12.125  0.3984  2.0351  0.1079
17876TIP3   OH275118   3.914   3.259  12.564  0.0296  0.5100 -0.7329
17876TIP3    H175119   3.975   3.281  12.635  0.1150  1.4148 -1.0766
17876TIP3    H275120   3.907   3.164  12.568  0.5523  0.4914  0.0643
17877TIP3   OH275121   5.409   1.652   5.103  0.1429 -0.0585  0.0048
17877TIP3    H175122   5.447   1.579   5.152 -1.8198 -1.4107 -0.3429
17877TIP3    H275123   5.363   1.609   5.030 -1.3456  1.5092 -0.0200
17878TIP3   OH275124   4.511   5.205   5.501  0.0745 -0.1596 -0.2658
17878TIP3    H175125   4.461   5.255   5.436  0.3259 -0.7774 -0.9465
17878TIP3    H275126   4.513   5.262   5.578 -0.7632  0.3251 -0.5859
17879TIP3   OH275127   3.984   4.044   4.236  0.2532  0.5998  0.5441
17879TIP3    H175128   3.927   4.112   4.200 -0.6603  0.7844  2.2304
17879TIP3    H275129   4.044   4.091   4.294  1.6450  0.3058 -0.5992
17880TIP3   OH275130   0.429   2.331   4.205  0.2517 -0.3587 -0.3897
17880TIP3    H175131   0.363   2.301   4.267 -0.8710 -0.4448 -1.5690
17880TIP3    H275132   0.503   2.356   4.259 -0.4976 -0.8912  0.9400
17881TIP3   OH275133   5.221   5.627  10.933 -0.1735 -0.7041  0.8254
17881TIP3    H175134   5.144   5.648  10.985 -0.8138  1.6506 -0.8917
17881TIP3    H275135   5.213   5.682  10.855  3.4578 -0.0119  0.7665
17882TIP3   OH275136   2.362   5.483  13.658 -0.0422 -0.6587 -0.1767
17882TIP3    H175137   2.398   5.481  13.569 -0.3419 -1.2602 -0.2852
17882TIP3    H275138   2.277   5.440  13.651 -0.0087 -0.8325  0.4277
17883TIP3   OH275139   2.033   1.699   5.819  0.3248 -0.0584 -0.3429
17883TIP3    H175140   2.070   1.682   5.906 -1.3661  0.4652  0.5241
17883TIP3    H275141   2.007   1.613   5.786 -1.6633 -0.0040  0.9467
17884TIP3   OH275142   1.559   6.395   3.340 -0.0811  0.3866 -0.0359
17884TIP3    H175143   1.577   6.307   3.307  0.0575  1.0362 -1.8099
17884TIP3    H275144   1.644   6.439   3.336 -0.1564  0.6181  0.8237
17885TIP3   OH275145   4.624   4.014   3.351 -0.5760 -0.4694 -0.2550
17885TIP3    H175146   4.642   4.099   3.310 -0.2366  0.8126  2.3661
17885TIP3    H275147   4.548   4.030   3.407 -1.0160 -2.1421 -0.3441
17886TIP3   OH275148   2.741   6.120   3.355  0.2631  0.2710  0.1385
17886TIP3    H175149   2.783   6.132   3.440  1.1215 -0.9009 -0.0965
17886TIP3    H275150   2.683   6.045   3.368 -0.2248  0.6078 -0.0896
17887TIP3   OH275151   5.720   3.820   4.945 -0.4130 -0.1477  0.6901
17887TIP3    H175152   5.783   3.807   5.015  0.6421  0.4600 -0.1269
17887TIP3    H275153   5.773   3.834   4.866 -1.5642 -0.2916 -0.1377
17888TIP3   OH275154   4.996   6.395  15.398 -0.1534 -0.1502  0.6837
17888TIP3    H175155   5.036   6.479  15.376 -0.7537 -0.3064 -1.2318
17888TIP3    H275156   5.021   6.337  15.326 -1.8190 -0.8896  0.6381
17889TIP3   OH275157   3.538   3.923   4.168 -0.2826  0.4589 -0.2974
17889TIP3    H175158   3.611   3.909   4.107 -0.9790 -2.1805 -0.6597
17889TIP3    H275159   3.579   3.924   4.254  0.2440 -0.9379 -0.4943
17890TIP3   OH275160   1.424   4.063  15.640 -0.1637  0.1389  0.4031
17890TIP3    H175161   1.459   4.109  15.717  4.3805  0.9296 -1.7983
17890TIP3    H275162   1.402   4.133  15.579 -2.9866 -0.5022  0.5723
17891TIP3   OH275163   5.977   3.018   3.718 -0.2406  0.0073 -0.2861
17891TIP3    H175164   6.000   2.929   3.692 -0.7802 -0.0691 -0.5182
17891TIP3    H275165   5.937   3.008   3.804  1.4066  0.2429  0.5262
17892TIP3   OH275166   5.252   1.523   0.405  0.1912  0.1190 -0.3121
17892TIP3    H175167   5.346   1.525   0.422  0.3492 -0.4427 -1.0714
17892TIP3    H275168   5.224   1.614   0.418  0.6917  0.1566  0.6346
17893TIP3   OH275169   6.578   5.816   1.297  0.0115 -0.0490  0.2598
17893TIP3    H175170   6.534   5.815   1.212  0.1881 -1.0552  0.1701
17893TIP3    H275171   6.514   5.852   1.357 -0.3499  0.0558 -0.1800
17894TIP3   OH275172   0.319   1.501  16.298 -0.1445  0.0606  0.1784
17894TIP3    H175173   0.262   1.554  16.353  0.5890  0.6994  0.3324
17894TIP3    H275174   0.405   1.541  16.306 -0.0109  0.1498 -1.4104
17895TIP3   OH275175   3.061   1.264  13.074 -0.3937 -0.5837  0.9985
17895TIP3    H175176   3.051   1.325  13.002 -1.7734 -1.3084  0.5369
17895TIP3    H275177   2.976   1.264  13.118 -0.3682 -2.0112  1.0992
17896TIP3   OH275178   2.776   5.401  12.680  0.5856 -0.4725 -0.6965
17896TIP3    H175179   2.836   5.410  12.754  0.7516 -1.5724 -0.6758
17896TIP3    H275180   2.700   5.453  12.704  1.3871  0.6793 -0.5774
17897TIP3   OH275181   1.773   4.231  15.841 -0.0070  0.1932 -0.4122
17897TIP3    H175182   1.687   4.189  15.850  0.2743 -0.3220 -0.0525
17897TIP3    H275183   1.754   4.325  15.838 -0.6183  0.0651 -0.7992
17898TIP3   OH275184   5.476   4.038  12.517  0.2762  0.5030 -0.2305
17898TIP3    H175185   5.500   3.996  12.599  0.3497  1.0379  0.0288
17898TIP3    H275186   5.501   3.975  12.449 -0.1711 -0.1214  0.1702
17899TIP3   OH275187   4.967   1.325  15.447 -0.5560 -0.0260  0.5187
17899TIP3    H175188   4.931   1.245  15.484 -1.0404 -0.1082 -0.1301
17899TIP3    H275189   5.055   1.301  15.418 -0.9232 -0.4752 -0.2246
17900TIP3   OH275190   5.577   2.908  17.243 -0.8270  0.2445 -0.4702
17900TIP3    H175191   5.485   2.893  17.222 -0.3647 -0.0627 -2.4721
17900TIP3    H275192   5.624   2.883  17.163  1.1845 -1.6553  1.1876
17901TIP3   OH275193   5.155   4.040   5.325  0.4861  0.1908 -0.4621
17901TIP3    H175194   5.192   4.121   5.289 -0.1462  0.6383 -0.1136
17901TIP3    H275195   5.176   3.974   5.259 -0.6801  1.0080 -1.7146
17902TIP3   OH275196   0.179   1.893  11.199  0.5224 -0.2504  0.5408
17902TIP3    H175197   0.085   1.884  11.213  0.0961  2.4125 -0.1389
17902TIP3    H275198   0.211   1.939  11.276  0.9511  0.3554  0.0136
17903TIP3   OH275199   6.433   5.552  13.329  0.0872 -0.1416 -0.7742
17903TIP3    H175200   6.424   5.647  13.341  2.0429  0.0919 -0.8619
17903TIP3    H275201   6.483   5.543  13.248  0.9268 -1.1976 -0.1668
17904TIP3   OH275202   0.654   4.404  11.958 -0.5289 -0.4484  0.6041
17904TIP3    H175203   0.630   4.479  12.013  0.7793  0.1661  0.3642
17904TIP3    H275204   0.665   4.440  11.870 -0.4219 -1.0173  0.3792
17905TIP3   OH275205   4.214   6.514  13.680  0.4179 -0.0859  0.3648
17905TIP3    H175206   4.136   6.487  13.728  0.5625  0.6650  1.0415
17905TIP3    H275207   4.215   6.458  13.602 -0.8265 -0.0714  0.3177
17906TIP3   OH275208   0.420   6.294  16.463  0.6901 -0.6020  0.6425
17906TIP3    H175209   0.461   6.252  16.388  0.9396 -0.5186  0.7300
17906TIP3    H275210   0.491   6.343  16.505  0.4316 -0.2107  0.6210
17907TIP3   OH275211   6.535   4.272  15.501 -0.2603  0.1896 -0.4477
17907TIP3    H175212   6.510   4.285  15.409  1.4621  0.2489 -0.9406
17907TIP3    H275213   6.516   4.357  15.542 -0.5747  0.3241 -0.8586
17908TIP3   OH275214   0.878   5.460   2.709  0.2133 -0.6846  0.4003
17908TIP3    H175215   0.929   5.379   2.718  0.1211 -1.0766 -2.0176
17908TIP3    H275216   0.841   5.455   2.621  0.5256  2.1895  0.0259
17909TIP3   OH275217   4.365   3.865   1.429  0.2020 -0.4360  0.1283
17909TIP3    H175218   4.356   3.873   1.334  2.4256 -1.6997 -0.2688
17909TIP3    H275219   4.453   3.900   1.448 -0.7478  1.1388  1.9501
17910TIP3   OH275220   1.238   4.616   1.312 -0.3359  0.2828 -0.1227
17910TIP3    H175221   1.193   4.633   1.395  0.5902  1.6581  0.1428
17910TIP3    H275222   1.269   4.702   1.284 -0.4542 -0.1900 -1.8065
17911TIP3   OH275223   5.591   2.582  16.810 -0.7677  0.5785  0.1263
17911TIP3    H175224   5.505   2.586  16.851 -0.6503  0.3911  0.3892
17911TIP3    H275225   5.652   2.610  16.878 -0.3980 -1.2438  0.6018
17912TIP3   OH275226   3.955   4.918   3.317 -0.4019  0.7010 -0.2832
17912TIP3    H175227   3.891   4.977   3.357  0.2682  0.7829  0.7308
17912TIP3    H275228   3.917   4.893   3.233 -1.2352  1.6364 -0.1985
17913TIP3   OH275229   1.836   1.645   1.178  0.0483  0.1306  0.1277
17913TIP3    H175230   1.907   1.624   1.118  1.4773  1.1923  1.3576
17913TIP3    H275231   1.872   1.624   1.265 -0.5528  2.1308  0.8967
17914TIP3   OH275232   3.674   5.648   5.003 -0.6204  0.1600  0.5268
17914TIP3    H175233   3.696   5.664   4.912 -0.0791 -0.7397  0.4883
17914TIP3    H275234   3.735   5.703   5.052 -1.2039  0.9747  0.3410
17915TIP3   OH275235   5.538   3.722   6.123 -0.4178 -0.1526  0.9925
17915TIP3    H175236   5.577   3.718   6.211  0.6674 -0.2600  0.5238
17915TIP3    H275237   5.573   3.802   6.085  0.9603 -1.2421 -0.1556
17916TIP3   OH275238   6.320   1.920   5.593  0.6066 -0.4342  0.1517
17916TIP3    H175239   6.282   2.005   5.615  0.7630  0.0570 -1.3717
17916TIP3    H275240   6.404   1.918   5.638  0.2980 -0.0741  0.7508
17917TIP3   OH275241   2.731   0.251  10.891 -0.6000 -0.8962 -0.5009
17917TIP3    H175242   2.708   0.342  10.903  2.0448 -0.1538 -0.3430
17917TIP3    H275243   2.756   0.245  10.798 -1.3796 -1.6342 -0.6750
17918TIP3   OH275244   4.196   3.600   4.597  0.5309  0.4592 -0.0644
17918TIP3    H175245   4.108   3.597   4.634  0.8453  0.6692  0.7140
17918TIP3    H275246   4.182   3.612   4.503 -0.2697  0.3450  0.0330
17919TIP3   OH275247   2.410   5.302  15.834  0.2827  0.4030 -0.1804
17919TIP3    H175248   2.406   5.210  15.811  0.7149  0.5051 -0.6824
17919TIP3    H275249   2.474   5.340  15.774  0.0986  1.0331  0.0040
17920TIP3   OH275250   0.399   4.125   3.848 -0.1317  0.1857  0.5020
17920TIP3    H175251   0.334   4.195   3.843 -0.3331  0.1430  2.1105
17920TIP3    H275252   0.371   4.062   3.781  0.3265  1.8078 -1.3130
17921TIP3   OH275253   4.423   6.296  16.777  0.8950  0.0419  0.1486
17921TIP3    H175254   4.498   6.243  16.803  1.4946  0.4749 -0.6571
17921TIP3    H275255   4.429   6.375  16.829 -1.9474 -1.9388  4.0363
17922TIP3   OH275256   3.271   2.011   5.587 -0.4405  0.1566 -0.7143
17922TIP3    H175257   3.313   1.967   5.661 -1.3548 -1.8170 -1.2985
17922TIP3    H275258   3.334   2.003   5.516 -0.3537  0.3470 -0.6596
17923TIP3   OH275259   5.912   4.871  12.944 -0.5425  0.0633  0.0588
17923TIP3    H175260   5.976   4.901  13.009  0.1264 -1.0940 -0.0335
17923TIP3    H275261   5.853   4.945  12.932 -0.5878  0.3770  1.8710
17924TIP3   OH275262   3.563   0.054   4.750 -0.1590  0.1207 -0.1940
17924TIP3    H175263   3.573   0.038   4.656  2.2263  0.1437  0.0023
17924TIP3    H275264   3.551   0.149   4.757  1.1466  0.3206 -0.4165
17925TIP3   OH275265   1.608   6.655   4.421 -0.2209  0.2249 -0.2005
17925TIP3    H175266   1.623   6.652   4.327 -1.3194 -0.6956 -0.3623
17925TIP3    H275267   1.683   6.608   4.459 -0.6324 -0.9028 -0.7390
17926TIP3   OH275268   4.444   2.154   2.257 -0.1637 -0.6182 -0.2149
17926TIP3    H175269   4.409   2.179   2.343  1.2064  0.9690 -0.0773
17926TIP3    H275270   4.436   2.233   2.204  0.5445 -1.0814 -1.0368
17927TIP3   OH275271   2.285   4.124  16.436 -0.0926 -0.1157  0.2516
17927TIP3    H175272   2.219   4.055  16.447  0.6088 -0.8608 -0.0613
17927TIP3    H275273   2.317   4.141  16.524 -0.2405 -0.2241  0.3259
17928TIP3   OH275274   1.126   3.613   1.722  0.3297 -0.1072 -0.1553
17928TIP3    H175275   1.177   3.532   1.713 -0.8223 -0.7183 -1.7572
17928TIP3    H275276   1.085   3.606   1.808 -0.2110 -1.5334 -0.4951
17929TIP3   OH275277   0.955   2.258   4.676  0.1639  0.7275  0.4250
17929TIP3    H175278   0.946   2.198   4.750 -1.2822  1.1035  0.5965
17929TIP3    H275279   1.003   2.207   4.610  2.5249  0.7828  1.9781
17930TIP3   OH275280   2.518   0.518   3.944  0.1508  0.4395 -0.1177
17930TIP3    H175281   2.467   0.460   3.887  0.8982 -0.5411  0.1775
17930TIP3    H275282   2.531   0.468   4.024  3.2391 -0.1980 -0.8935
17931TIP3   OH275283   0.592   3.823  16.795  0.4623 -0.2457 -0.5943
17931TIP3    H175284   0.528   3.781  16.738 -0.3209 -1.9356  1.3991
17931TIP3    H275285   0.540   3.865  16.863  1.3993  0.3555 -0.2242
17932TIP3   OH275286   0.888   4.546  16.447 -0.2297 -0.3171  0.7739
17932TIP3    H175287   0.859   4.556  16.356 -0.1210 -1.8241  0.5416
17932TIP3    H275288   0.919   4.633  16.472  2.3126 -0.4125 -1.5500
17933TIP3   OH275289   3.680   1.270   2.081  0.3015  0.1421 -0.0079
17933TIP3    H175290   3.758   1.282   2.027  0.5156  0.8539  0.4367
17933TIP3    H275291   3.609   1.254   2.018  0.6367  0.4388 -0.4721
17934TIP3   OH275292   5.966   1.223   0.032  0.2384  0.3215 -0.2907
17934TIP3    H175293   6.005   1.246   0.116  2.7292 -3.4671 -0.1488
17934TIP3    H275294   6.000   1.135   0.013 -4.2353 -1.1789 -2.8567
17935TIP3   OH275295   2.577   0.264  14.358  0.0365  0.0223 -0.0071
17935TIP3    H175296   2.598   0.171  14.366  2.3169  0.5866  1.7216
17935TIP3    H275297   2.489   0.265  14.321 -0.9092 -2.8685  1.7588
17936TIP3   OH275298   2.511   3.273   4.048  0.7332  0.2820 -0.8848
17936TIP3    H175299   2.550   3.275   3.960  4.3914  1.0529  0.5806
17936TIP3    H275300   2.556   3.201   4.092 -2.1618 -1.1296  0.0382
17937TIP3   OH275301   2.109   3.473   0.880  0.0356 -0.0594 -0.3881
17937TIP3    H175302   2.079   3.464   0.789  0.7563 -1.4925 -0.5178
17937TIP3    H275303   2.204   3.479   0.873  0.0338  0.8931  0.2244
17938TIP3   OH275304   1.990   1.356  14.872  0.0308  0.2547 -0.3732
17938TIP3    H175305   2.015   1.302  14.797  2.3894  0.2871  0.3103
17938TIP3    H275306   1.932   1.423  14.835  1.9603  0.9049 -2.3973
17939TIP3   OH275307   1.790   0.808   0.239  0.1560 -0.0991  0.0827
17939TIP3    H175308   1.713   0.751   0.236  1.8379 -2.4939 -0.3836
17939TIP3    H275309   1.815   0.820   0.147 -1.1444  2.9807  0.0052
17940TIP3   OH275310   5.776   3.935   1.472 -0.4457 -0.6930 -0.1680
17940TIP3    H175311   5.721   3.879   1.417 -0.5706 -0.2402 -0.5141
17940TIP3    H275312   5.714   3.991   1.518 -0.3286 -0.9317  0.2907
17941TIP3   OH275313   1.407   0.531   5.371 -0.0142 -0.1799  0.3382
17941TIP3    H175314   1.402   0.512   5.465 -1.1152 -2.1154 -0.0595
17941TIP3    H275315   1.348   0.467   5.331  0.6887  0.4011 -1.7077
17942TIP3   OH275316   6.607   5.724   6.735 -0.0587  0.0592 -0.3662
17942TIP3    H175317   6.514   5.721   6.715 -0.6806 -1.2330  2.2967
17942TIP3    H275318   6.621   5.810   6.775  0.3091  0.9440 -2.3029
17943TIP3   OH275319   4.843   3.762   5.743 -1.0522  0.2704  0.0386
17943TIP3    H175320   4.807   3.846   5.772 -1.8250 -0.0683  0.0869
17943TIP3    H275321   4.829   3.703   5.817 -1.1712 -0.0793 -0.2591
17944TIP3   OH275322   5.061   0.990   5.442  0.2907 -0.4582  0.3940
17944TIP3    H175323   4.999   0.961   5.509  1.2327 -0.8363  1.1268
17944TIP3    H275324   5.070   0.914   5.384 -1.2803  0.1969 -0.7725
17945TIP3   OH275325   4.976   1.397   0.423  0.2674 -0.5231  0.3068
17945TIP3    H175326   5.051   1.445   0.388 -2.2935  3.2431 -0.6890
17945TIP3    H275327   4.934   1.359   0.346  0.1313 -1.0125  0.6176
17946TIP3   OH275328   5.834   6.418   0.147  0.7207  0.3746 -0.3792
17946TIP3    H175329   5.924   6.415   0.113  0.1233  0.2946 -2.0487
17946TIP3    H275330   5.815   6.512   0.156  0.7544  0.4108 -0.6672
17947TIP3   OH275331   3.771   3.742  11.166 -0.1193  0.0901 -0.1381
17947TIP3    H175332   3.790   3.657  11.127 -2.3856 -0.9920  0.9003
17947TIP3    H275333   3.848   3.761  11.220  0.0710 -1.7568  0.3119
17948TIP3   OH275334   6.537   2.669  16.483  0.1203  0.1525 -0.6276
17948TIP3    H175335   6.442   2.661  16.491  0.3598 -2.8395  0.5101
17948TIP3    H275336   6.567   2.687  16.572  0.7536 -2.0863 -0.3238
17949TIP3   OH275337   4.252   0.274  14.349 -0.0494 -0.4254 -0.1938
17949TIP3    H175338   4.261   0.267  14.444 -0.1194  1.3483 -0.0366
17949TIP3    H275339   4.169   0.319  14.335  0.0827 -0.4302 -1.1047
17950TIP3   OH275340   0.338   0.900   1.015  0.0027  0.1653  0.0783
17950TIP3    H175341   0.423   0.910   0.972 -0.5783  1.8635 -0.7453
17950TIP3    H275342   0.279   0.958   0.966 -1.2340  0.3422  1.7025
17951TIP3   OH275343   2.479   5.277  14.487  0.7728  0.1267  0.0321
17951TIP3    H175344   2.440   5.317  14.410  0.0020  0.8360  0.7715
17951TIP3    H275345   2.482   5.183  14.466 -0.9440  0.1004 -0.2254
17952TIP3   OH275346   2.429   2.750  15.644  0.4906  0.7109  0.1731
17952TIP3    H175347   2.501   2.692  15.671 -1.0047 -1.2896  0.1238
17952TIP3    H275348   2.445   2.767  15.551 -1.1794 -3.2409 -1.0496
17953TIP3   OH275349   2.657   3.492  12.409  0.6928 -0.1271 -0.5231
17953TIP3    H175350   2.609   3.442  12.475  2.3299 -0.2369  0.6387
17953TIP3    H275351   2.616   3.467  12.326 -0.7598 -0.7487  0.3290
17954TIP3   OH275352   2.786   0.538   5.190 -0.4539 -0.4141  0.3248
17954TIP3    H175353   2.847   0.470   5.217  2.1306  1.0764 -1.2727
17954TIP3    H275354   2.797   0.544   5.095 -1.0921  1.7200  0.3131
17955TIP3   OH275355   2.087   2.792   6.630  0.0988 -0.1047  0.4677
17955TIP3    H175356   2.076   2.802   6.725 -0.1113 -0.3057  0.4658
17955TIP3    H275357   2.051   2.706   6.611 -1.3695  0.5949 -0.0339
17956TIP3   OH275358   4.844   1.673   4.405  0.2178  0.3077  0.1411
17956TIP3    H175359   4.863   1.667   4.312 -0.9536 -0.2639 -0.0813
17956TIP3    H275360   4.751   1.694   4.409 -0.1911 -1.5241  1.1810
17957TIP3   OH275361   5.858   1.067   3.756 -0.2421  0.2778 -0.2358
17957TIP3    H175362   5.778   1.107   3.790  0.9846  1.1180  1.8495
17957TIP3    H275363   5.880   1.119   3.679 -1.6658  0.0066 -0.8800
17958TIP3   OH275364   0.959   5.786   2.160 -0.2359  0.4772 -0.0128
17958TIP3    H175365   0.981   5.855   2.098  2.0748 -1.2552 -1.2749
17958TIP3    H275366   1.037   5.731   2.164 -1.5765 -1.4624  1.7805
17959TIP3   OH275367   1.065   5.552  15.834  0.0590 -0.1204 -0.1414
17959TIP3    H175368   1.020   5.636  15.825 -1.3640 -0.8886 -0.4634
17959TIP3    H275369   0.996   5.490  15.857  1.1519 -1.1314  0.5074
17960TIP3   OH275370   3.421   6.281   5.894 -0.7800  0.1275 -0.4977
17960TIP3    H175371   3.370   6.270   5.814  0.1499  0.2546 -1.1183
17960TIP3    H275372   3.497   6.224   5.881 -0.3181  0.6219  0.0337
17961TIP3   OH275373   3.890   3.804  12.110  0.2014  0.0569 -0.2826
17961TIP3    H175374   3.925   3.757  12.186 -1.2617 -2.0613 -0.8373
17961TIP3    H275375   3.968   3.838  12.066  1.1692  0.1716  1.4077
17962TIP3   OH275376   0.210   6.254   5.630  0.3720 -0.2343  0.0451
17962TIP3    H175377   0.259   6.327   5.668  0.3806 -0.5902  0.7312
17962TIP3    H275378   0.275   6.185   5.621  0.4355 -0.0564 -0.9072
17963TIP3   OH275379   0.347   3.426   4.581  0.5449  0.5576 -0.2836
17963TIP3    H175380   0.339   3.375   4.500 -0.2374  0.7010 -0.3026
17963TIP3    H275381   0.290   3.381   4.643 -1.9624  2.6464 -0.9390
17964TIP3   OH275382   3.685   2.670  15.923  0.0320 -0.0816  0.3091
17964TIP3    H175383   3.605   2.624  15.950 -0.0879  0.1372  0.3269
17964TIP3    H275384   3.753   2.603  15.927  0.2994  0.2251  2.4578
17965TIP3   OH275385   5.178   3.244  16.180 -0.0797  0.6886  0.0721
17965TIP3    H175386   5.157   3.152  16.196 -1.3516  1.1482  1.1445
17965TIP3    H275387   5.117   3.293  16.235  1.0116  2.1699  0.0230
17966TIP3   OH275388   3.520   0.577  13.217 -0.0724 -0.4818  0.2625
17966TIP3    H175389   3.515   0.512  13.287 -2.6339 -1.9476 -1.1371
17966TIP3    H275390   3.470   0.651  13.250 -1.8394 -1.4208 -0.1624
17967TIP3   OH275391   2.401   4.759   4.789 -0.4937 -0.0609 -0.1435
17967TIP3    H175392   2.457   4.786   4.717 -0.9609 -2.7563 -1.6631
17967TIP3    H275393   2.315   4.746   4.749 -1.5653  1.2623  1.5612
17968TIP3   OH275394   6.683   0.587  11.480  0.0787 -0.8872  0.2193
17968TIP3    H175395   6.692   0.617  11.390  0.8810  0.2818  0.6603
17968TIP3    H275396   6.755   0.524  11.491  1.5044  0.7289  0.6918
17969TIP3   OH275397   4.758   3.150  12.269  0.3239  0.0076 -0.8132
17969TIP3    H175398   4.703   3.218  12.232  0.6493  0.1074 -1.1180
17969TIP3    H275399   4.791   3.188  12.351  0.8921  0.4166 -1.2163
17970TIP3   OH275400   2.471   6.502  11.610 -0.1948  0.4328 -0.0631
17970TIP3    H175401   2.477   6.471  11.520 -0.4414 -0.2843  0.1614
17970TIP3    H275402   2.389   6.466  11.643  1.2260 -1.7718  1.3500
17971TIP3   OH275403   0.731   5.033   0.626  0.0291  0.6838 -0.5190
17971TIP3    H175404   0.678   4.956   0.608 -0.1656  0.7254 -0.1321
17971TIP3    H275405   0.821   5.000   0.627 -0.1458  0.0876  1.4277
17972TIP3   OH275406   3.274   1.778  11.976 -0.5975  0.0062  0.4487
17972TIP3    H175407   3.358   1.750  12.011 -1.1774 -1.7141  0.5499
17972TIP3    H275408   3.213   1.769  12.049 -1.8221 -3.5814 -0.7802
17973TIP3   OH275409   3.938   2.236  15.043 -0.2043  0.6101 -0.4187
17973TIP3    H175410   3.986   2.184  15.108  0.9429  1.4083 -0.5919
17973TIP3    H275411   3.888   2.171  14.993  0.9024 -0.2951 -0.3994
17974TIP3   OH275412   2.117   5.034   3.767  0.0053 -0.4140 -0.7032
17974TIP3    H175413   2.206   5.002   3.784 -0.8058 -1.7327  1.4952
17974TIP3    H275414   2.078   4.967   3.711 -0.6306 -1.7382  1.1929
17975TIP3   OH275415   3.223   0.904   1.304  0.1404  0.3564 -0.5222
17975TIP3    H175416   3.268   0.868   1.380  0.3678  0.8782 -0.4012
17975TIP3    H275417   3.140   0.938   1.339  0.3526  0.8160 -0.4612
17976TIP3   OH275418   5.525   3.593  11.449 -0.4525  0.0030  0.4779
17976TIP3    H175419   5.586   3.597  11.522  1.3145  1.7200 -1.0068
17976TIP3    H275420   5.520   3.500  11.427  0.5685 -0.3051  1.4819
17977TIP3   OH275421   3.609   2.712  10.711  0.5846 -0.0458 -0.1741
17977TIP3    H175422   3.567   2.785  10.756  0.0178  0.4862 -1.5305
17977TIP3    H275423   3.538   2.651  10.692  0.9887 -0.7686  0.5665
17978TIP3   OH275424   5.649   3.478  13.254 -0.3880  0.2333  0.0116
17978TIP3    H175425   5.594   3.511  13.182 -1.5046  1.3629  1.3322
17978TIP3    H275426   5.716   3.545  13.266 -0.0242 -0.0968 -0.1485
17979TIP3   OH275427   6.240   5.198   2.337 -0.2843  0.0261 -0.3829
17979TIP3    H175428   6.305   5.196   2.407  0.3849  0.2889 -0.9777
17979TIP3    H275429   6.182   5.124   2.355  0.6753 -0.7190 -0.3005
17980TIP3   OH275430   4.695   4.401  12.250 -0.2173 -0.1994 -0.0436
17980TIP3    H175431   4.732   4.423  12.335  0.8567 -0.1043 -0.5181
17980TIP3    H275432   4.628   4.468  12.235 -0.8645 -0.5889  0.9863
17981TIP3   OH275433   6.348   2.129   3.710 -0.3045  0.5496 -0.2202
17981TIP3    H175434   6.335   2.043   3.670  0.6989 -0.0547  0.6924
17981TIP3    H275435   6.272   2.180   3.682 -0.7309 -0.5096 -1.0835
17982TIP3   OH275436   4.988   4.253   1.816 -0.3188  0.4447 -0.7671
17982TIP3    H175437   4.903   4.292   1.800 -0.0755  1.6059  0.6228
17982TIP3    H275438   4.989   4.174   1.761 -2.5177  0.0620 -0.3326
17983TIP3   OH275439   6.352   3.311   3.600  0.4437  0.3656  0.2356
17983TIP3    H175440   6.376   3.338   3.511  0.6888  1.3567  0.5811
17983TIP3    H275441   6.320   3.221   3.591 -2.8499  1.5547 -1.3883
17984TIP3   OH275442   3.441   2.756  12.164  0.0984 -0.0581 -0.7145
17984TIP3    H175443   3.348   2.767  12.146 -0.1572 -0.2086  0.4305
17984TIP3    H275444   3.444   2.728  12.256  1.2102 -1.0583 -1.0433
17985TIP3   OH275445   6.235   0.255  14.801 -0.2583 -0.0660 -0.0522
17985TIP3    H175446   6.224   0.322  14.868 -3.7271  0.1346 -0.6736
17985TIP3    H275447   6.300   0.291  14.741 -0.7979  1.9696  0.5350
17986TIP3   OH275448   2.156   4.647  12.651  0.0596  0.6884  0.4998
17986TIP3    H175449   2.189   4.591  12.581 -0.7139  0.9590 -0.0883
17986TIP3    H275450   2.154   4.590  12.728 -0.7878 -0.1424 -0.1061
17987TIP3   OH275451   4.380   1.347  14.693  0.3436  0.1425  0.0987
17987TIP3    H175452   4.382   1.252  14.689  1.8011  0.1948 -2.3540
17987TIP3    H275453   4.462   1.375  14.652 -0.9997  2.4561 -1.2668
17988TIP3   OH275454   0.528   1.316   1.122  0.1358  0.4834  0.4571
17988TIP3    H175455   0.596   1.379   1.144  1.1493 -0.2395 -0.4742
17988TIP3    H275456   0.514   1.328   1.028 -0.3190 -0.0435  0.4533
17989TIP3   OH275457   1.668   4.978  12.216  0.2237  0.8900  0.0521
17989TIP3    H175458   1.732   4.944  12.152  0.1538  0.9090 -0.0280
17989TIP3    H275459   1.666   5.072  12.199 -2.0463  0.5752 -2.0113
17990TIP3   OH275460   5.897   3.847  15.951  0.0930  0.0030 -0.1039
17990TIP3    H175461   5.836   3.796  15.897  1.5961 -0.5246 -1.3727
17990TIP3    H275462   5.976   3.855  15.898  1.1393  0.7106  1.4715
17991TIP3   OH275463   5.833   3.270   3.147 -0.1085 -0.8409  0.7618
17991TIP3    H175464   5.752   3.316   3.168 -0.1474 -1.1780  1.3581
17991TIP3    H275465   5.833   3.264   3.051  1.1209  2.6267  0.4150
17992TIP3   OH275466   4.441   6.616   3.284 -0.7475 -0.1686 -0.3875
17992TIP3    H175467   4.433   6.703   3.246  1.8994  0.3601  0.0907
17992TIP3    H275468   4.356   6.600   3.325 -1.3223  2.1620 -0.5245
17993TIP3   OH275469   5.089   2.197   2.092  0.0478 -0.2245 -0.0855
17993TIP3    H175470   5.131   2.140   2.157  2.0050 -0.0401 -1.1202
17993TIP3    H275471   5.107   2.286   2.123 -3.7872  0.0308  2.0285
17994TIP3   OH275472   3.330   0.117  14.994 -0.2671  0.0583  0.1830
17994TIP3    H175473   3.414   0.136  15.037  0.2640 -0.4769 -0.5913
17994TIP3    H275474   3.304   0.200  14.955 -0.2655  0.3078  0.7013
17995TIP3   OH275475   3.169   1.661  15.011  0.2590 -0.3238  0.6923
17995TIP3    H175476   3.125   1.624  15.088 -0.0408  1.2426  1.3192
17995TIP3    H275477   3.108   1.647  14.939 -1.1617  1.4747  1.4809
17996TIP3   OH275478   1.194   1.607  16.875 -0.0193  0.6718  0.5965
17996TIP3    H175479   1.180   1.676  16.940 -0.1059  0.6448  0.6052
17996TIP3    H275480   1.288   1.610  16.858  0.4147 -0.8435  2.4320
17997TIP3   OH275481   0.513   4.537   3.150 -0.4035  0.3486  0.3559
17997TIP3    H175482   0.484   4.595   3.220  0.9065 -0.7957  1.9188
17997TIP3    H275483   0.529   4.453   3.193 -1.8528 -1.1151 -1.7466
17998TIP3   OH275484   2.025   1.315  11.635  0.0295  0.0115 -0.2192
17998TIP3    H175485   2.035   1.232  11.588  1.7033  0.0223  0.0749
17998TIP3    H275486   2.086   1.375  11.593  1.4919  0.0678  1.8347
17999TIP3   OH275487   1.275   1.159  14.889 -0.0267  0.2478  0.5817
17999TIP3    H175488   1.285   1.146  14.794 -1.5514 -0.8330  0.5322
17999TIP3    H275489   1.194   1.210  14.897 -0.7555 -0.9761  1.3377
18000TIP3   OH275490   1.782   5.160   1.024  0.1023  0.2425 -0.0425
18000TIP3    H175491   1.725   5.111   1.083 -0.4362  0.8645 -0.0371
18000TIP3    H275492   1.842   5.207   1.082  0.3204 -0.0509 -0.0308
18001TIP3   OH275493   2.649   3.027   1.088  0.1010  0.7738 -0.7024
18001TIP3    H175494   2.657   3.030   0.992  0.5967  1.4302 -0.6446
18001TIP3    H275495   2.706   2.954   1.114  0.0771  0.6857 -0.8919
18002TIP3   OH275496   4.041   2.878  16.889  0.6815  0.0043  0.2470
18002TIP3    H175497   4.086   2.959  16.865 -0.4368  0.5141 -0.1556
18002TIP3    H275498   3.950   2.903  16.900  0.3807 -1.1390  0.4626
18003TIP3   OH275499   1.004   5.915   4.497 -0.5871  0.1959  0.0250
18003TIP3    H175500   1.048   5.976   4.556 -0.4292 -0.7108  0.8891
18003TIP3    H275501   0.921   5.896   4.541 -0.0686 -1.2096  0.4651
18004TIP3   OH275502   5.698   3.247   0.785 -0.6179  0.1119  0.7225
18004TIP3    H175503   5.665   3.212   0.702  1.2241  0.4684 -0.2173
18004TIP3    H275504   5.651   3.329   0.797  0.3202  0.9170 -0.8938
18005TIP3   OH275505   2.399   2.645   0.240 -0.2256  0.4029  0.1546
18005TIP3    H175506   2.412   2.710   0.171 -0.0562  0.2489  0.0417
18005TIP3    H275507   2.319   2.674   0.285 -1.7750 -0.8235 -1.6195
18006TIP3   OH275508   4.066   3.620  12.273  0.0980  0.7788 -0.0587
18006TIP3    H175509   4.035   3.546  12.325 -0.2326  0.7728 -0.2647
18006TIP3    H275510   4.119   3.580  12.203  0.0878  0.7501 -0.0498
18007TIP3   OH275511   2.548   6.592   0.831 -0.5764 -0.6647  0.0822
18007TIP3    H175512   2.599   6.642   0.894 -1.7951 -0.1716  0.7151
18007TIP3    H275513   2.603   6.589   0.752 -0.1486  1.0350  0.2771
18008TIP3   OH275514   3.136   3.572   4.687  0.5370  0.0136  0.2249
18008TIP3    H175515   3.047   3.537   4.681  0.5363  0.2650 -2.0895
18008TIP3    H275516   3.192   3.495   4.684  0.4185 -0.0650 -0.0604
18009TIP3   OH275517   4.617   0.342   0.433 -0.0007  0.2159  0.4235
18009TIP3    H175518   4.678   0.281   0.391 -1.7785 -0.5218 -1.2100
18009TIP3    H275519   4.673   0.414   0.462  1.9327 -1.3805  0.9089
18010TIP3   OH275520   6.042   6.561   6.191  0.0830 -0.3805  0.2960
18010TIP3    H175521   6.092   6.553   6.109  0.4730 -0.0677  0.4982
18010TIP3    H275522   6.087   6.502   6.252 -0.7729 -1.3351  0.0258
18011TIP3   OH275523   4.007   5.367  11.177 -0.1141 -0.0872  0.1868
18011TIP3    H175524   3.979   5.458  11.166  0.4092 -0.0664 -1.1888
18011TIP3    H275525   4.032   5.339  11.089  2.0691 -0.7945  0.9713
18012TIP3   OH275526   0.507   0.247   2.864 -0.4278 -0.1394  0.1802
18012TIP3    H175527   0.596   0.219   2.842 -0.6572 -0.6541 -0.1280
18012TIP3    H275528   0.454   0.169   2.851 -0.8884  0.0962  0.6165
18013TIP3   OH275529   5.576   0.657   5.326  0.2155 -0.2776 -0.1647
18013TIP3    H175530   5.602   0.732   5.380  0.0088 -0.9122  0.8592
18013TIP3    H275531   5.603   0.580   5.377  0.2088 -0.9077 -1.0794
18014TIP3   OH275532   4.403   5.516  11.719 -0.0097 -0.4864 -0.5208
18014TIP3    H175533   4.481   5.464  11.704 -0.0446 -0.2810 -1.4299
18014TIP3    H275534   4.426   5.604  11.688  0.7486  0.6217  2.7549
18015TIP3   OH275535   5.962   6.761  13.992 -0.1334 -0.0246  0.8568
18015TIP3    H175536   6.021   6.785  14.064  0.6872  0.5947  0.0042
18015TIP3    H275537   5.953   6.666  14.000 -0.4063  0.0793  2.0282
18016TIP3   OH275538   2.225   5.483   2.776  0.4466  0.2472  0.2086
18016TIP3    H175539   2.226   5.569   2.735  1.0967  0.1469 -0.0063
18016TIP3    H275540   2.258   5.499   2.865  1.4700  0.0925 -0.1275
18017TIP3   OH275541   0.949   6.116  13.584  0.0890  0.2357 -0.4177
18017TIP3    H175542   0.929   6.076  13.500  0.0120 -2.0695  0.6242
18017TIP3    H275543   1.044   6.119  13.588  0.1048 -0.4279 -0.2529
18018TIP3   OH275544   0.435   5.159  11.988 -0.2254 -0.0425 -0.5295
18018TIP3    H175545   0.372   5.105  12.036  0.9862 -0.4657  0.6644
18018TIP3    H275546   0.466   5.102  11.917 -0.4278 -0.1910 -0.5012
18019TIP3   OH275547   2.047   0.446   3.434  0.2962  0.1500 -0.5024
18019TIP3    H175548   2.096   0.408   3.507  0.6601  2.1019  0.3500
18019TIP3    H275549   2.108   0.509   3.395 -0.4649  0.3186 -1.4736
18020TIP3   OH275550   2.915   5.201   0.683  0.3673  0.0794 -0.9201
18020TIP3    H175551   2.992   5.172   0.634  0.7264 -1.8062  0.6632
18020TIP3    H275552   2.883   5.123   0.728 -1.4048  1.2091 -0.0687
18021TIP3   OH275553   1.682   0.755   5.043  0.2037 -0.3232 -0.3457
18021TIP3    H175554   1.696   0.844   5.077  0.0213 -0.3148 -0.2884
18021TIP3    H275555   1.712   0.698   5.113 -1.2889 -0.3154  0.3563
18022TIP3   OH275556   3.399   3.535   2.303  0.1110  0.1737  0.3083
18022TIP3    H175557   3.315   3.570   2.274  0.7378  1.4498 -0.0400
18022TIP3    H275558   3.464   3.599   2.272  1.4388 -1.8873 -1.3912
18023TIP3   OH275559   0.549   0.285  12.082 -0.3077  0.3047  0.4159
18023TIP3    H175560   0.527   0.201  12.043  0.3998  0.9809 -1.5595
18023TIP3    H275561   0.628   0.268  12.133 -0.2965 -0.2790  0.2113
18024TIP3   OH275562   5.802   6.526   3.182 -0.0051  0.4591  0.0007
18024TIP3    H175563   5.840   6.535   3.095  1.7042  0.7691  0.7221
18024TIP3    H275564   5.789   6.432   3.193 -1.5148  0.5097 -1.0622
18025TIP3   OH275565   6.587   0.771   0.000 -0.2510 -0.2235  0.2717
18025TIP3    H175566   6.532   0.764   0.078 -0.3336 -1.0966  0.1394
18025TIP3    H275567   6.665   0.720   0.022 -0.5239 -0.9622 -0.4288
18026TIP3   OH275568   2.826   2.692  14.496  0.1367  0.2316  0.2750
18026TIP3    H175569   2.776   2.661  14.571 -0.6314 -1.3354 -0.8497
18026TIP3    H275570   2.906   2.639  14.497 -0.9520 -1.5508 -1.3550
18027TIP3   OH275571   1.347   2.616  15.211  0.2306 -0.7323 -0.1484
18027TIP3    H175572   1.351   2.707  15.181  0.1763 -1.2251 -1.7597
18027TIP3    H275573   1.364   2.621  15.305  0.9414  0.8777 -0.3211
18028TIP3   OH275574   3.459   4.400   2.693  0.1240 -0.4975 -0.4140
18028TIP3    H175575   3.441   4.487   2.657  0.3161 -0.2803  0.0012
18028TIP3    H275576   3.543   4.375   2.655  0.4965 -0.1186  0.1423
18029TIP3   OH275577   0.103   6.721   2.852 -0.3183  0.3794 -0.6187
18029TIP3    H175578   0.108   6.775   2.773 -1.0419  0.6245 -0.5009
18029TIP3    H275579   0.123   6.633   2.822  0.3846  0.6270 -0.9020
18030TIP3   OH275580   4.845   1.590   1.609  0.2360  0.1355 -0.1496
18030TIP3    H175581   4.751   1.596   1.625  0.0995 -1.2886 -0.2692
18030TIP3    H275582   4.853   1.535   1.531  1.1955 -1.0183  0.7134
18031TIP3   OH275583   4.476   6.746  11.134  0.3831  0.3364  0.9980
18031TIP3    H175584   4.431   6.739  11.050 -0.8724  0.5024  1.6220
18031TIP3    H275585   4.422   6.696  11.195  0.6842  1.0944  1.9194
18032TIP3   OH275586   5.772   6.803  13.555  0.0408 -0.1388 -0.0128
18032TIP3    H175587   5.825   6.753  13.616  1.6875  0.3118 -1.0139
18032TIP3    H275588   5.802   6.775  13.468 -1.8499 -0.3599 -0.6428
18033TIP3   OH275589   2.428   1.617  14.835 -0.2511  0.0623 -0.1988
18033TIP3    H175590   2.425   1.627  14.930  0.8834 -1.3458  0.0218
18033TIP3    H275591   2.505   1.668  14.808  0.2363 -0.6503 -0.1783
18034TIP3   OH275592   4.563   5.869  15.908  0.6463 -1.0512  0.4021
18034TIP3    H175593   4.534   5.850  15.818  0.6362 -0.5596  0.2988
18034TIP3    H275594   4.531   5.796  15.960  0.8933 -1.4856 -0.0447
18035TIP3   OH275595   4.994   6.408  13.906  0.0971 -0.2684  0.6627
18035TIP3    H175596   4.942   6.488  13.900 -0.8354 -0.7781  1.7223
18035TIP3    H275597   5.011   6.396  13.999  0.6154 -1.0627  0.4797
18036TIP3   OH275598   1.302   2.488  15.869  0.1919 -0.9594  0.2503
18036TIP3    H175599   1.322   2.525  15.783  1.4936  0.8176  1.2636
18036TIP3    H275600   1.347   2.403  15.869  1.6080 -0.2322 -0.2182
18037TIP3   OH275601   5.667   2.918  16.924  0.1403 -0.1273 -0.0011
18037TIP3    H175602   5.728   2.849  16.951  1.5554  0.4748 -1.4174
18037TIP3    H275603   5.724   2.990  16.898 -1.1271  0.2268 -2.0476
18038TIP3   OH275604   1.104   5.687  14.898  0.1533  0.0677  0.0206
18038TIP3    H175605   1.196   5.703  14.915  0.2147 -1.3517  1.2150
18038TIP3    H275606   1.099   5.593  14.881 -1.4736 -0.5480  3.2425
18039TIP3   OH275607   0.388   0.632  11.029 -0.3978 -0.0173 -1.3299
18039TIP3    H175608   0.430   0.550  11.003 -0.5397 -0.0892 -1.3332
18039TIP3    H275609   0.459   0.685  11.065 -0.7592 -1.1943  1.3163
18040TIP3   OH275610   5.375   6.777   3.670 -0.1421  0.3689  0.7394
18040TIP3    H175611   5.363   6.698   3.617  0.5730  0.0138  1.0948
18040TIP3    H275612   5.297   6.829   3.653 -0.0340  0.1616 -0.4845
18041TIP3   OH275613   5.032   1.918   1.817  0.0653 -0.0662 -0.2957
18041TIP3    H175614   4.951   1.964   1.795  0.9400  1.5338 -0.3055
18041TIP3    H275615   5.093   1.939   1.746  0.3404 -1.7549 -0.6175
18042TIP3   OH275616   2.189   4.936   0.511 -0.2400  0.5757  0.4881
18042TIP3    H175617   2.171   4.847   0.481  0.5521  0.0077  1.6095
18042TIP3    H275618   2.136   4.946   0.590 -0.4659  1.1699  0.2636
18043TIP3   OH275619   2.711   1.207   5.977 -0.8555 -0.7100  0.4942
18043TIP3    H175620   2.780   1.273   5.978  2.1252 -3.5519  0.5627
18043TIP3    H275621   2.683   1.199   6.068 -1.5821  0.6882  0.4157
18044TIP3   OH275622   6.689   6.211   4.945 -0.3260 -0.3818  0.1631
18044TIP3    H175623   6.712   6.189   4.855 -1.0053  0.8262 -0.3271
18044TIP3    H275624   6.735   6.146   4.998 -1.0491 -1.9987 -1.1125
18045TIP3   OH275625   4.578   2.824   3.135  0.0906  0.1070  0.0289
18045TIP3    H175626   4.644   2.851   3.199  0.3798 -2.2530  0.8174
18045TIP3    H275627   4.495   2.856   3.172  0.3334 -0.6452  1.2959
18046TIP3   OH275628   1.077   4.908  13.022 -0.0511  0.2932 -0.2252
18046TIP3    H175629   1.070   4.871  12.934 -1.2141 -1.3702  0.4948
18046TIP3    H275630   1.167   4.892  13.048  0.1736  0.3779 -0.9359
18047TIP3   OH275631   0.275   0.136   3.665  0.1330 -1.0613 -0.6524
18047TIP3    H175632   0.369   0.155   3.672 -0.1011 -0.2197  0.5340
18047TIP3    H275633   0.271   0.052   3.620  1.4696 -1.2065 -0.5484
18048TIP3   OH275634   2.911   4.260   3.291  0.0904  0.4182 -0.0636
18048TIP3    H175635   2.951   4.201   3.354  0.0023  0.1301 -0.2778
18048TIP3    H275636   2.964   4.339   3.295  1.3588 -0.3409 -1.1218
18049TIP3   OH275637   6.585   5.263   4.509 -0.5586 -0.1184 -0.1099
18049TIP3    H175638   6.557   5.353   4.526 -0.9702  1.2230 -5.6593
18049TIP3    H275639   6.680   5.269   4.498 -0.6266 -0.2367 -0.8168
18050TIP3   OH275640   5.983   6.279   1.331 -0.5016  0.0685  0.3063
18050TIP3    H175641   5.990   6.352   1.392 -0.9078  1.4477 -1.2346
18050TIP3    H275642   5.909   6.228   1.362  1.2891 -1.1909  2.8721
18051TIP3   OH275643   5.338   0.809  16.071 -0.0138 -0.2830 -0.0575
18051TIP3    H175644   5.247   0.794  16.045 -0.6998 -1.1868  2.5302
18051TIP3    H275645   5.341   0.900  16.098 -0.1602 -0.2487 -0.1562
18052TIP3   OH275646   4.704   6.027   0.686  0.1068 -0.3882  0.0473
18052TIP3    H175647   4.615   6.063   0.684 -0.2742 -1.3246 -0.0343
18052TIP3    H275648   4.709   5.982   0.770  0.4365 -0.5248 -0.0474
18053TIP3   OH275649   0.752   2.714  13.930 -0.0917 -0.6185  0.2476
18053TIP3    H175650   0.691   2.700  14.003 -0.0494 -0.4555  0.3130
18053TIP3    H275651   0.838   2.692  13.966 -0.2074 -1.6580 -0.0761
18054TIP3   OH275652   5.610   0.140   2.137  0.1888 -0.0083  0.1816
18054TIP3    H175653   5.540   0.178   2.084  0.5274 -0.0234 -0.2807
18054TIP3    H275654   5.617   0.049   2.108  0.3903 -0.0122  0.2356
18055TIP3   OH275655   2.758   5.575   3.892 -0.0022  0.2094 -0.1112
18055TIP3    H175656   2.828   5.637   3.911 -0.2265  1.1840 -2.1077
18055TIP3    H275657   2.710   5.615   3.819 -2.1089 -0.8388  0.6180
18056TIP3   OH275658   2.268   0.673   5.694  0.2275 -0.4266 -0.0252
18056TIP3    H175659   2.344   0.693   5.638  1.1171 -0.1461  1.2488
18056TIP3    H275660   2.236   0.759   5.723 -0.0115 -0.5829  0.1741
18057TIP3   OH275661   3.705   6.378  10.898 -0.3233 -0.2278  0.8886
18057TIP3    H175662   3.727   6.333  10.816 -1.8371  1.5863 -0.5824
18057TIP3    H275663   3.708   6.471  10.876 -1.2334  0.2925  2.7809
18058TIP3   OH275664   2.096   1.004   0.103  0.4674  0.0137 -0.0183
18058TIP3    H175665   2.090   1.058   0.024 -3.1905 -0.4094 -0.1960
18058TIP3    H275666   2.121   1.065   0.172  0.6638  1.0393 -0.9714
18059TIP3   OH275667   5.517   1.642  12.716  0.3328  0.5416 -0.3012
18059TIP3    H175668   5.457   1.651  12.789  0.1709  1.3681 -0.5266
18059TIP3    H275669   5.517   1.548  12.696  2.3699 -0.1661  2.4140
18060TIP3   OH275670   4.449   4.776  13.296 -0.0387 -0.1998  0.1435
18060TIP3    H175671   4.484   4.862  13.274  0.9031 -0.7746 -0.6548
18060TIP3    H275672   4.408   4.789  13.382 -0.2685  1.1263 -0.1383
18061TIP3   OH275673   1.969   5.414   0.423 -0.1105  0.3605 -0.2662
18061TIP3    H175674   1.922   5.404   0.507 -2.5658  1.0944 -1.4495
18061TIP3    H275675   1.999   5.326   0.402  0.0193  0.0572  1.0989
18062TIP3   OH275676   0.971   5.645   3.005  0.9382  0.3169  0.3072
18062TIP3    H175677   0.993   5.553   3.023 -0.1713 -0.8415 -3.3435
18062TIP3    H275678   0.876   5.647   3.006  0.9534  1.4907  0.4225
18063TIP3   OH275679   2.725   5.403   4.130  0.0521  0.1225  0.7834
18063TIP3    H175680   2.736   5.472   4.064 -0.9538  0.0047  0.4809
18063TIP3    H275681   2.801   5.347   4.118 -1.6082 -1.7509 -2.5292
18064TIP3   OH275682   4.414   3.576  10.616 -0.6086 -0.1261 -0.1274
18064TIP3    H175683   4.415   3.645  10.683 -2.3056  0.4307 -0.6319
18064TIP3    H275684   4.446   3.619  10.537  2.6905 -1.1079  0.4983
18065TIP3   OH275685   2.443   6.317   5.731  0.0582 -0.2495  0.3585
18065TIP3    H175686   2.510   6.265   5.686 -0.0567  0.5862 -0.8225
18065TIP3    H275687   2.432   6.274   5.816  3.2339  0.4618  1.2936
18066TIP3   OH275688   1.278   4.227   1.553 -0.4635  0.0845  0.3540
18066TIP3    H175689   1.217   4.252   1.623  0.5250  0.2739  1.1806
18066TIP3    H275690   1.357   4.200   1.599 -0.1013 -0.6838 -0.6791
18067TIP3   OH275691   5.963   2.870   0.764 -0.4946 -0.2700  0.4497
18067TIP3    H175692   6.011   2.934   0.816 -1.0703  0.7682 -0.2518
18067TIP3    H275693   5.945   2.915   0.681 -0.0756 -1.6902 -0.4431
18068TIP3   OH275694   2.818   1.901   1.340 -1.0646  0.1709  0.5211
18068TIP3    H175695   2.881   1.840   1.302 -0.8312  0.6656  0.1007
18068TIP3    H275696   2.804   1.967   1.272 -2.7610 -0.4343  0.2399
18069TIP3   OH275697   6.776   6.488  12.836  0.5204 -0.6061 -0.4047
18069TIP3    H175698   6.790   6.577  12.868  1.4346 -0.9547  0.1995
18069TIP3    H275699   6.768   6.434  12.915 -0.4403 -1.0126 -0.7596
18070TIP3   OH275700   0.868   1.698   3.214  0.1977 -0.3975  0.2698
18070TIP3    H175701   0.814   1.622   3.234  1.3884 -1.5470 -0.6122
18070TIP3    H275702   0.923   1.711   3.291  0.7352 -1.1455  0.0291
18071TIP3   OH275703   6.072   4.601  12.535 -1.1542 -0.4450  0.2407
18071TIP3    H175704   6.107   4.561  12.614 -0.2429  0.7163  0.4581
18071TIP3    H275705   6.137   4.582  12.468  0.1462  1.9416  0.7030
18072TIP3   OH275706   2.333   5.367  13.960  0.2094 -0.3970  0.4990
18072TIP3    H175707   2.396   5.299  13.985  0.5942 -0.1800  0.1216
18072TIP3    H275708   2.316   5.351  13.867  0.1195 -0.1181  0.4676
18073TIP3   OH275709   4.468   3.506   4.392 -0.2096  0.5682 -0.8637
18073TIP3    H175710   4.454   3.413   4.409  1.1485  0.3015 -1.0350
18073TIP3    H275711   4.389   3.535   4.347 -1.4858 -0.0167  0.9189
18074TIP3   OH275712   0.882   2.116   1.975 -0.0837 -0.4106 -0.0349
18074TIP3    H175713   0.926   2.127   2.059  2.0351 -0.1173 -1.1144
18074TIP3    H275714   0.940   2.060   1.924 -1.6453 -1.1519 -1.0966
18075TIP3   OH275715   4.095   0.907  15.542  0.5054  0.6873 -0.1417
18075TIP3    H175716   4.065   0.933  15.629  0.9693  0.3067  0.1418
18075TIP3    H275717   4.028   0.939  15.482  0.8958  2.2267  0.2181
18076TIP3   OH275718   4.612   3.252   1.689  0.8469 -0.0196 -0.2632
18076TIP3    H175719   4.582   3.171   1.731  0.9484  0.3099  0.4535
18076TIP3    H275720   4.537   3.282   1.638  0.1172  0.4974  1.0620
18077TIP3   OH275721   1.397   4.456   4.371 -0.4323  0.1599  0.5832
18077TIP3    H175722   1.388   4.367   4.339 -1.3516  0.2535  0.5697
18077TIP3    H275723   1.487   4.480   4.349 -0.2119 -0.7180  0.4898
18078TIP3   OH275724   6.183   3.529   3.591 -0.4032  0.2932  0.2390
18078TIP3    H175725   6.259   3.581   3.616  0.5575 -0.1105 -1.5965
18078TIP3    H275726   6.208   3.439   3.611  0.8742 -0.1877 -2.8764
18079TIP3   OH275727   3.357   4.205   4.562 -0.2364 -0.2242  0.0489
18079TIP3    H175728   3.373   4.111   4.555 -0.0342 -0.2318  0.5118
18079TIP3    H275729   3.366   4.238   4.473  1.0320 -0.4416  0.0770
18080TIP3   OH275730   0.346   6.216  15.201 -0.5225 -0.4685  0.0394
18080TIP3    H175731   0.423   6.237  15.254 -0.5034  0.8480 -0.4729
18080TIP3    H275732   0.272   6.226  15.261 -0.2842 -2.2394  0.6688
18081TIP3   OH275733   4.118   6.654   4.088  0.3483 -0.4549 -0.0312
18081TIP3    H175734   4.167   6.723   4.132 -0.7908  0.2259  0.2042
18081TIP3    H275735   4.184   6.589   4.063  1.2679  0.1211  0.8645
18082TIP3   OH275736   0.243   5.653  13.826 -0.5790 -0.2459  0.2022
18082TIP3    H175737   0.320   5.684  13.779 -2.1140 -0.0573 -2.3695
18082TIP3    H275738   0.241   5.559  13.809 -0.9803 -0.2273  0.1354
18083TIP3   OH275739   0.778   6.458  16.281 -0.1837  0.7735 -0.0487
18083TIP3    H175740   0.838   6.391  16.248 -1.4752  0.8857 -2.9951
18083TIP3    H275741   0.833   6.517  16.332  1.7753 -0.2799 -0.8422
18084TIP3   OH275742   5.220   5.959   2.046 -0.0698 -0.0527  0.2481
18084TIP3    H175743   5.196   6.033   1.989  1.6590  0.3613  0.0057
18084TIP3    H275744   5.254   5.893   1.986 -0.2940 -0.5021  0.6134
18085TIP3   OH275745   5.398   0.666   4.819  0.7862  0.8059  0.5652
18085TIP3    H175746   5.452   0.682   4.896  0.0741 -0.6147  1.4034
18085TIP3    H275747   5.404   0.747   4.769  1.5024  1.6643  1.9574
18086TIP3   OH275748   3.118   6.395  14.287 -0.0783 -0.2235  0.1778
18086TIP3    H175749   3.108   6.342  14.365 -3.5156 -0.0881 -0.0565
18086TIP3    H275750   3.185   6.460  14.310  1.8131 -2.5247  1.5740
18087TIP3   OH275751   0.528   3.106  16.432  0.2474  0.7537 -0.2060
18087TIP3    H175752   0.475   3.172  16.386  0.8745  1.5929  0.2475
18087TIP3    H275753   0.489   3.100  16.519  1.2187  1.8129  0.3329
18088TIP3   OH275754   3.615   1.968  15.192 -0.5298 -0.0675 -0.3404
18088TIP3    H175755   3.571   2.005  15.269 -1.2541 -1.8501  0.1595
18088TIP3    H275756   3.699   1.936  15.226  0.0629  1.0143 -0.7530
18089TIP3   OH275757   0.094   3.823  17.098  0.1415 -0.1694  0.3130
18089TIP3    H175758   0.092   3.917  17.082  0.7654  0.1555  1.9099
18089TIP3    H275759   0.138   3.786  17.022 -1.0271  0.6922 -0.8118
18090TIP3   OH275760   2.710   5.940   5.242  0.4106  0.1541  0.2826
18090TIP3    H175761   2.748   5.893   5.168 -0.3950 -0.8497  0.4978
18090TIP3    H275762   2.655   5.876   5.287  0.8824  0.7363  1.7651
18091TIP3   OH275763   0.619   1.849   3.860  0.8522  0.1791 -0.2432
18091TIP3    H175764   0.526   1.863   3.877  1.2098  2.8015 -0.0892
18091TIP3    H275765   0.663   1.884   3.937  2.0164 -0.5117 -0.5661
18092TIP3   OH275766   6.749   5.386  13.137  0.1275 -0.1497  0.4159
18092TIP3    H175767   6.676   5.331  13.110  1.0593 -1.2080  0.0117
18092TIP3    H275768   6.708   5.466  13.171 -1.3150 -1.6527  2.3949
18093TIP3   OH275769   0.729   6.662  14.082  0.2266  0.6004  0.2722
18093TIP3    H175770   0.820   6.641  14.060  0.1339  0.3667  0.1078
18093TIP3    H275771   0.703   6.726  14.017  0.1176  0.2961  0.0115
18094TIP3   OH275772   1.186   0.016  11.254 -0.2073 -0.3342 -0.6484
18094TIP3    H175773   1.266   0.060  11.224 -1.2851  1.7466 -0.6582
18094TIP3    H275774   1.173   0.049  11.343 -1.4312 -0.0640 -0.9145
18095TIP3   OH275775   5.249   6.225   4.909  0.3789  0.1465  0.7217
18095TIP3    H175776   5.213   6.307   4.875  0.7429  0.0426  0.0714
18095TIP3    H275777   5.331   6.213   4.861 -0.1130 -1.0728  0.1348
18096TIP3   OH275778   6.634   4.151   6.559  0.3550  0.0645 -0.4760
18096TIP3    H175779   6.651   4.110   6.644  1.8863 -2.0598 -1.6787
18096TIP3    H275780   6.546   4.122   6.536  0.1247  0.2396  0.1700
18097TIP3   OH275781   0.016   6.729   1.059  0.1716 -0.4721 -0.3247
18097TIP3    H175782  -0.051   6.712   0.992 -0.9948 -1.9202  1.0930
18097TIP3    H275783   0.001   6.819   1.086  1.5874  0.6309 -2.9101
18098TIP3   OH275784   2.085   6.571   3.435  0.2172 -0.2950 -0.2374
18098TIP3    H175785   2.058   6.644   3.490  1.0545 -0.5161  0.4999
18098TIP3    H275786   2.180   6.580   3.429  0.3260 -1.2935 -0.1778
18099TIP3   OH275787   1.166   6.133  14.518 -0.3327 -0.5247  0.0632
18099TIP3    H175788   1.100   6.144  14.586 -1.9396  1.4478 -1.6807
18099TIP3    H275789   1.244   6.175  14.554 -0.9750 -0.0192  0.9129
18100TIP3   OH275790   1.859   2.045   2.716  0.4678  0.8457  0.1404
18100TIP3    H175791   1.866   2.138   2.693 -1.4092  0.5768 -1.8845
18100TIP3    H275792   1.804   2.044   2.794  0.2974  1.4205  0.0339
18101TIP3   OH275793   0.101   0.336   2.878 -0.0329  0.3339  0.1466
18101TIP3    H175794   0.187   0.377   2.871  0.2490 -0.4305 -0.9618
18101TIP3    H275795   0.065   0.339   2.790 -1.6302  1.6353  0.7803
18102TIP3   OH275796   4.804   6.073   6.010  0.0283  0.2697  0.5007
18102TIP3    H175797   4.827   6.082   6.102  2.6231 -0.6574  0.0339
18102TIP3    H275798   4.833   6.154   5.969  1.1625 -0.2884  0.1493
18103TIP3   OH275799   3.086   2.431  15.793 -0.4353  0.3610  0.1734
18103TIP3    H175800   3.124   2.343  15.793 -0.4109  0.3730 -0.4397
18103TIP3    H275801   3.155   2.486  15.757 -0.4647  0.6290  0.5248
18104TIP3   OH275802   2.278   3.202  11.567  0.1260 -1.0413 -0.2571
18104TIP3    H175803   2.368   3.168  11.574  0.6725  0.7243  2.2839
18104TIP3    H275804   2.225   3.138  11.613  0.3244 -1.1934 -0.2368
18105TIP3   OH275805   5.202   3.876  13.970 -0.3828  0.7192 -0.4863
18105TIP3    H175806   5.294   3.902  13.967 -0.3364  0.5848 -3.2765
18105TIP3    H275807   5.181   3.869  14.063  2.6987 -0.2294  0.2422
18106TIP3   OH275808   5.863   2.886  15.781  0.6788 -0.2138 -0.1034
18106TIP3    H175809   5.875   2.946  15.707  0.6894 -0.3440 -0.2072
18106TIP3    H275810   5.952   2.864  15.809  0.6732 -0.0495  0.0402
18107TIP3   OH275811   1.407   5.073   5.387  0.1206 -0.5898  0.1584
18107TIP3    H175812   1.468   5.060   5.460  1.6538 -0.9755 -1.1333
18107TIP3    H275813   1.351   5.146   5.415  1.5040  0.1159  1.2002
18108TIP3   OH275814   0.077   4.561  16.482 -0.4146  0.4556 -0.0402
18108TIP3    H175815   0.053   4.537  16.572 -3.2335  1.2217 -0.4810
18108TIP3    H275816   0.083   4.657  16.484  1.9227  0.3613 -0.2008
18109TIP3   OH275817   6.177   5.604  17.098  0.3957  0.0124  0.5035
18109TIP3    H175818   6.228   5.683  17.117  1.5045  0.0983 -2.3243
18109TIP3    H275819   6.097   5.636  17.056  0.7298 -0.3448 -0.4180
18110TIP3   OH275820   2.481   2.752   1.426 -0.1721 -0.0089 -0.6143
18110TIP3    H175821   2.552   2.693   1.400 -0.1748  0.0981 -0.8640
18110TIP3    H275822   2.442   2.709   1.502  2.4369  1.6500  1.8542
18111TIP3   OH275823   5.199   2.076  13.205 -0.2603 -0.0923 -0.1583
18111TIP3    H175824   5.181   2.165  13.174 -0.8575 -0.4470 -0.8625
18111TIP3    H275825   5.293   2.064  13.191 -0.6652 -0.6065 -2.8980
18112TIP3   OH275826   0.212   2.488   1.138 -0.4414 -0.3431  0.0534
18112TIP3    H175827   0.230   2.424   1.070  1.8264 -1.8028  1.8634
18112TIP3    H275828   0.162   2.557   1.094  0.2809 -1.5396 -2.8603
18113TIP3   OH275829   3.350   3.217  17.236  0.1160 -0.1086  0.4375
18113TIP3    H175830   3.366   3.123  17.243  0.8773 -0.4024 -3.1689
18113TIP3    H275831   3.260   3.229  17.264  0.3828 -1.6818  2.1161
18114TIP3   OH275832   5.545   3.085  14.128 -0.0014  0.2218  0.1064
18114TIP3    H175833   5.606   3.018  14.159  0.9278  0.9010 -0.2125
18114TIP3    H275834   5.590   3.168  14.145  0.8094  0.6592 -3.3827
18115TIP3   OH275835   5.276   1.252   2.569 -0.0825 -0.0149  0.0377
18115TIP3    H175836   5.312   1.222   2.486  0.4289  2.9476 -0.9573
18115TIP3    H275837   5.353   1.270   2.624 -0.0480  2.9294 -0.8086
18116TIP3   OH275838   5.585   2.314  12.624 -0.2076 -0.4007 -0.1899
18116TIP3    H175839   5.609   2.258  12.698 -0.7713 -1.8401 -1.0599
18116TIP3    H275840   5.495   2.341  12.643  0.2742  0.7833  0.5415
18117TIP3   OH275841   4.214   3.134   6.414  0.4173 -0.2081  0.1809
18117TIP3    H175842   4.256   3.211   6.454 -0.2236  0.4990 -0.4872
18117TIP3    H275843   4.279   3.102   6.351  0.2702  0.4451 -0.3198
18118TIP3   OH275844   1.217   6.366   2.118  0.4334  0.9320  0.4918
18118TIP3    H175845   1.187   6.373   2.027 -2.2818 -2.2201  0.9319
18118TIP3    H275846   1.294   6.310   2.114  0.2080  0.6454  0.1409
18119TIP3   OH275847   6.811   1.738   0.739  0.5521  0.1234 -0.3052
18119TIP3    H175848   6.896   1.760   0.778  0.4203 -0.0989  0.1078
18119TIP3    H275849   6.828   1.661   0.685  0.3763 -0.6240  0.6948
18120TIP3   OH275850   2.029   1.304   2.015 -0.2983 -0.2631  0.1053
18120TIP3    H175851   2.046   1.398   2.029 -1.3059  0.5370 -3.0630
18120TIP3    H275852   1.946   1.302   1.968  0.2821 -2.6402 -0.9719
18121TIP3   OH275853   4.805   2.802  15.699 -0.0024 -0.1132 -0.1404
18121TIP3    H175854   4.846   2.833  15.618 -0.1071 -0.6645 -0.4112
18121TIP3    H275855   4.752   2.876  15.729  1.0792  0.5786  0.1559
18122TIP3   OH275856   2.407   2.975  14.211 -0.3720 -0.2444 -0.6496
18122TIP3    H175857   2.344   2.967  14.282  0.3237 -2.1052 -0.1811
18122TIP3    H275858   2.487   2.934  14.245  1.6870  3.3518 -0.6268
18123TIP3   OH275859   0.089   4.936  14.516 -0.0391 -0.0420 -0.0910
18123TIP3    H175860   0.164   4.939  14.457  0.4612 -0.4411  0.5155
18123TIP3    H275861   0.076   4.844  14.536  1.2948  0.2124  2.2663
18124TIP3   OH275862   0.569   5.055  17.120  0.1160 -0.5133 -0.1371
18124TIP3    H175863   0.661   5.027  17.110 -0.5599 -2.2627 -2.5091
18124TIP3    H275864   0.575   5.146  17.146  2.5647 -0.4952 -0.4657
18125TIP3   OH275865   5.005   3.069   5.599  0.2969 -0.1104  0.1866
18125TIP3    H175866   5.037   3.010   5.667 -0.4811  0.6276  1.2288
18125TIP3    H275867   4.982   3.149   5.646  0.8822  0.8623 -1.1323
18126TIP3   OH275868   1.179   0.841   6.575  0.1464  0.0615 -0.7487
18126TIP3    H175869   1.172   0.757   6.620  0.4126 -0.8439 -2.3143
18126TIP3    H275870   1.208   0.902   6.643  1.3150 -1.3943  0.1425
18127TIP3   OH275871   6.606   2.279   5.689  0.1974  0.5666 -0.1573
18127TIP3    H175872   6.630   2.361   5.732 -1.0498  1.6474 -1.4214
18127TIP3    H275873   6.524   2.253   5.731 -0.0496  0.6330 -0.5903
18128TIP3   OH275874   5.587   2.714   0.649 -0.1029  0.3029  0.2452
18128TIP3    H175875   5.652   2.671   0.593  0.9531 -0.4979  1.9922
18128TIP3    H275876   5.581   2.803   0.615  2.9436  0.8262  0.7544
18129TIP3   OH275877   5.444   1.904  11.164  0.3596 -0.2248 -0.1775
18129TIP3    H175878   5.489   1.953  11.096  0.5957  0.6719  0.5957
18129TIP3    H275879   5.474   1.944  11.246  0.8855 -1.9518  0.5101
18130TIP3   OH275880   3.325   0.419  14.598 -0.1182  0.7362  0.5348
18130TIP3    H175881   3.243   0.439  14.643 -0.1807  0.8266  0.3840
18130TIP3    H275882   3.392   0.466  14.647 -0.1680  0.7321  0.6069
18131TIP3   OH275883   0.722   6.275  15.890  0.4692 -0.1574  0.3504
18131TIP3    H175884   0.745   6.330  15.815 -3.6190  2.7675  0.9360
18131TIP3    H275885   0.659   6.212  15.855  2.2320 -2.1404  0.5051
18132TIP3   OH275886   6.632   2.613   0.751  0.1611 -0.3444  0.3000
18132TIP3    H175887   6.625   2.519   0.769  1.7751 -0.7387 -0.8654
18132TIP3    H275888   6.613   2.655   0.834 -1.5078 -1.6426  0.6311
18133TIP3   OH275889   1.409   4.762  10.617  0.0714 -0.1721  0.2031
18133TIP3    H175890   1.405   4.680  10.666  2.2522 -1.8145 -2.1321
18133TIP3    H275891   1.342   4.752  10.549  0.4992 -0.1303 -0.2291
18134TIP3   OH275892   0.748   6.230   4.200  0.2097  0.3078  0.2570
18134TIP3    H175893   0.672   6.175   4.221 -0.3054  1.0543  0.4004
18134TIP3    H275894   0.730   6.313   4.245  0.9386  0.6172 -0.0133
18135TIP3   OH275895   6.244   0.321  15.979  0.1242  0.1797  0.0093
18135TIP3    H175896   6.182   0.249  15.991 -1.8528  1.9879  1.3597
18135TIP3    H275897   6.195   0.399  16.004  3.3042  1.6174  2.3887
18136TIP3   OH275898   6.554   2.540  12.001 -0.0478 -0.4031 -0.2185
18136TIP3    H175899   6.498   2.597  11.949 -0.1239 -0.3692 -0.1003
18136TIP3    H275900   6.596   2.482  11.937  1.2689  0.8163 -0.5243
18137TIP3   OH275901   5.559   6.210  12.635 -0.4350  0.3946  0.3623
18137TIP3    H175902   5.612   6.136  12.605 -0.8862  0.5965 -1.0403
18137TIP3    H275903   5.506   6.232  12.559 -0.4372  2.0456  0.8181
18138TIP3   OH275904   5.554   1.791   6.396 -0.1190  0.0356  0.1639
18138TIP3    H175905   5.474   1.797   6.449 -0.5974 -0.8236 -0.4379
18138TIP3    H275906   5.583   1.700   6.406  0.5127  0.2058 -0.0241
18139TIP3   OH275907   5.417   3.294  17.257  0.5037 -0.0482 -0.0406
18139TIP3    H175908   5.367   3.220  17.221  1.1213 -0.4409 -0.1046
18139TIP3    H275909   5.489   3.253  17.304  0.9371  0.5207 -0.2051
18140TIP3   OH275910   0.230   5.517  12.169  0.2869  0.1043  0.1931
18140TIP3    H175911   0.293   5.545  12.236  0.8259 -0.0469 -0.2394
18140TIP3    H275912   0.179   5.596  12.149  0.4175  0.2578  0.4656
18141TIP3   OH275913   0.499   4.914   4.575 -0.1413 -0.2735  0.1174
18141TIP3    H175914   0.586   4.928   4.611  1.2205 -1.6525 -2.3523
18141TIP3    H275915   0.463   4.843   4.628  0.3069  0.1423  1.0078
18142TIP3   OH275916   0.390   4.261  15.257 -0.1010 -0.4113 -0.1490
18142TIP3    H175917   0.371   4.252  15.164 -0.7174 -1.0765  0.0303
18142TIP3    H275918   0.340   4.338  15.285 -1.9319 -1.6457  0.1394
18143TIP3   OH275919   1.226   5.563   3.993  0.1222  0.0543  0.0180
18143TIP3    H175920   1.144   5.612   3.987  0.2116  0.2590  0.4241
18143TIP3    H275921   1.257   5.556   3.903 -0.4250 -0.1698 -0.1565
18144TIP3   OH275922   1.708   1.784  16.011 -0.4367  0.1577 -0.0387
18144TIP3    H175923   1.771   1.756  15.944 -1.6584 -0.2854 -1.0280
18144TIP3    H275924   1.628   1.737  15.990 -0.7401 -0.3467  2.0249
18145TIP3   OH275925   4.556   5.987   3.431  0.0949 -0.0281 -0.3676
18145TIP3    H175926   4.486   5.929   3.460  0.0387  0.6040  0.8074
18145TIP3    H275927   4.636   5.935   3.443  0.0506  0.1236  0.7091
18146TIP3   OH275928   3.274   6.593  14.397 -0.3190  0.1063  0.6742
18146TIP3    H175929   3.361   6.622  14.425 -0.2117  0.5004 -0.0327
18146TIP3    H275930   3.214   6.635  14.458 -0.1182  1.3592  0.0488
18147TIP3   OH275931   6.815   1.691  14.887  0.5808 -0.9956 -0.0150
18147TIP3    H175932   6.727   1.723  14.867  0.5971  1.0235  2.7076
18147TIP3    H275933   6.873   1.765  14.867  1.2156 -1.0343  1.5297
18148TIP3   OH275934   3.019   2.393  14.124 -0.2511 -0.2548 -0.3145
18148TIP3    H175935   3.109   2.361  14.133 -0.7323 -2.4213 -2.1320
18148TIP3    H275936   3.024   2.485  14.147  1.7385 -1.0189  3.0257
18149TIP3   OH275937   1.568   4.351  17.062  0.2466 -0.3477  0.3305
18149TIP3    H175938   1.635   4.322  17.124  0.9748  1.0561  0.2480
18149TIP3    H275939   1.511   4.408  17.113 -0.3892 -0.8395  0.1866
18150TIP3   OH275940   2.859   0.822  16.061  0.3964  0.2006 -0.4267
18150TIP3    H175941   2.872   0.917  16.067  0.6551  0.1944 -0.8548
18150TIP3    H275942   2.764   0.811  16.063  0.3764  0.2841  2.3030
18151TIP3   OH275943   5.005   0.559  14.435  0.0801 -0.1503  0.3741
18151TIP3    H175944   5.094   0.593  14.448  0.0807  0.6043 -1.3061
18151TIP3    H275945   4.982   0.587  14.346 -2.6828  1.5727  1.4922
18152TIP3   OH275946   1.258   6.808  16.492 -0.0856 -0.3585 -0.2260
18152TIP3    H175947   1.322   6.877  16.509  0.2284 -0.2299 -1.7489
18152TIP3    H275948   1.202   6.845  16.423  0.2911 -1.7254 -1.3014
18153TIP3   OH275949   2.890   3.687  11.834 -0.0989  0.2598 -0.4073
18153TIP3    H175950   2.840   3.722  11.761 -0.7813 -0.1122 -0.1196
18153TIP3    H275951   2.868   3.594  11.837 -0.3953  0.3461  0.5163
18154TIP3   OH275952   4.222   4.765  12.034  0.2889 -0.0171  0.0743
18154TIP3    H175953   4.286   4.835  12.021  2.2146 -1.5869  0.5638
18154TIP3    H275954   4.142   4.798  11.993  2.0831  1.0040 -2.9722
18155TIP3   OH275955   2.635   0.236   1.197  0.2283 -0.1334  0.2350
18155TIP3    H175956   2.654   0.188   1.116  1.3529 -0.8145  0.8843
18155TIP3    H275957   2.613   0.324   1.167  0.8655 -0.3079 -0.8025
18156TIP3   OH275958   2.401   0.416  13.978  0.3609  0.1026 -0.4796
18156TIP3    H175959   2.350   0.337  13.994  0.1782  0.1555 -0.7928
18156TIP3    H275960   2.492   0.390  13.992  0.2214  0.1211  0.5270
18157TIP3   OH275961   2.346   0.766   2.016  0.0791  0.5581  0.0091
18157TIP3    H175962   2.336   0.828   1.944 -0.6158 -0.6990 -1.0023
18157TIP3    H275963   2.441   0.750   2.020  0.1438  0.7970 -0.4832
18158TIP3   OH275964   0.575   1.463   2.326  0.5389 -0.1808  0.3939
18158TIP3    H175965   0.535   1.445   2.411  1.3927 -1.5056  0.5406
18158TIP3    H275966   0.608   1.378   2.297  1.1274  0.4427 -0.8179
18159TIP3   OH275967   5.911   5.519  16.151 -0.5035 -0.1236  0.0923
18159TIP3    H175968   5.961   5.444  16.184 -0.1682 -0.3295 -0.8514
18159TIP3    H275969   5.832   5.480  16.112 -0.2754 -0.0045 -0.4998
18160TIP3   OH275970   1.279   2.621  11.779  0.1355 -0.1706  0.4305
18160TIP3    H175971   1.189   2.645  11.802 -0.6390 -1.1014 -1.4615
18160TIP3    H275972   1.300   2.549  11.838 -1.2566 -1.5349 -0.6725
18161TIP3   OH275973   4.659   3.002  14.475  0.4473 -0.0433  0.2783
18161TIP3    H175974   4.633   2.951  14.398  1.4325 -0.5428  0.2567
18161TIP3    H275975   4.671   3.091  14.443  0.7476 -0.2278 -0.1370
18162TIP3   OH275976   5.225   1.482  15.516  0.4247  0.1050  0.1608
18162TIP3    H175977   5.201   1.510  15.427  3.4152  1.3982 -0.3440
18162TIP3    H275978   5.245   1.388  15.506 -4.2843 -1.2233  0.7219
18163TIP3   OH275979   6.703   3.849   2.845 -0.7049  0.4421  0.4050
18163TIP3    H175980   6.755   3.905   2.787 -0.8773 -0.8714 -1.1123
18163TIP3    H275981   6.737   3.761   2.829 -0.7928  0.0145  2.3265
18164TIP3   OH275982   3.760   1.255   1.312 -0.2022 -0.0746 -0.0031
18164TIP3    H175983   3.836   1.312   1.300 -0.5963  0.3646 -0.4647
18164TIP3    H275984   3.708   1.266   1.232 -0.7950 -0.2987  0.3384
18165TIP3   OH275985   2.358   1.150  16.441 -0.0295 -0.3829  0.8876
18165TIP3    H175986   2.266   1.134  16.464 -0.7282  0.8496 -0.8156
18165TIP3    H275987   2.367   1.246  16.447  1.1817 -0.5004  1.1290
18166TIP3   OH275988   3.586   2.114  11.653  0.0475 -0.6480  0.0210
18166TIP3    H175989   3.556   2.035  11.698 -0.7350  0.2213  1.0684
18166TIP3    H275990   3.510   2.145  11.605 -0.4439  0.8452  1.6481
18167TIP3   OH275991   1.747   0.701  13.831 -0.1345 -0.5483  0.0117
18167TIP3    H175992   1.786   0.786  13.852 -0.3015 -0.4456 -0.0928
18167TIP3    H275993   1.806   0.663  13.766  0.2772 -0.7815  0.5159
18168TIP3   OH275994   5.547   5.852  17.037 -0.0217  0.3332 -0.3791
18168TIP3    H175995   5.616   5.857  17.103  0.5977  1.0897 -1.0666
18168TIP3    H275996   5.554   5.764  17.001  0.7488  0.4918 -0.6184
18169TIP3   OH275997   6.692   5.895  10.310 -0.1351  0.1548  0.2354
18169TIP3    H175998   6.754   5.850  10.368  0.6647 -1.0722 -1.4975
18169TIP3    H275999   6.746   5.958  10.262 -0.9758  1.9112  1.5022
18170TIP3   OH276000   6.363   1.775   3.753 -0.4048 -0.3281 -0.5414
18170TIP3    H176001   6.356   1.680   3.756  0.0232 -0.3514 -0.1532
18170TIP3    H276002   6.455   1.791   3.731 -0.3167 -0.0007  0.0583
18171TIP3   OH276003   0.530   5.674   5.645  0.0728 -0.1331  0.1193
18171TIP3    H176004   0.596   5.673   5.576 -0.0262 -1.7788 -0.0099
18171TIP3    H276005   0.580   5.656   5.725 -0.1587 -1.1647  0.0494
18172TIP3   OH276006   2.862   1.130  16.911 -0.3935  0.4449 -0.0991
18172TIP3    H176007   2.938   1.073  16.898 -1.1576 -0.5135 -0.4573
18172TIP3    H276008   2.893   1.198  16.971  0.8162  0.2164 -0.4466
18173TIP3   OH276009   3.378   2.622  15.951  0.4384  0.2668 -0.2997
18173TIP3    H176010   3.363   2.717  15.954 -0.9757  0.0405  0.7830
18173TIP3    H276011   3.402   2.598  16.040 -1.1525 -0.6599 -0.0897
18174TIP3   OH276012   2.414   0.022   0.096 -0.6496  0.1065  0.0093
18174TIP3    H176013   2.374   0.048   0.179 -0.5368  0.2342  0.0231
18174TIP3    H276014   2.490  -0.031   0.121  0.1184  1.1793  0.0162
18175TIP3   OH276015   2.889   5.315  12.926  0.3127 -0.4835 -0.1475
18175TIP3    H176016   2.969   5.264  12.932  0.8028  0.2033 -0.6356
18175TIP3    H276017   2.872   5.344  13.015  1.5780  0.7862 -0.2773
18176TIP3   OH276018   3.282   0.686   4.140 -0.3738 -0.3268 -0.1489
18176TIP3    H176019   3.358   0.741   4.119 -0.3411  0.1188  1.0252
18176TIP3    H276020   3.217   0.708   4.074  0.0027  0.3768 -0.2976
18177TIP3   OH276021   1.925   4.681  15.099  0.6028 -0.2492  0.3835
18177TIP3    H176022   1.856   4.748  15.098  1.2143  0.4065  0.9611
18177TIP3    H276023   1.925   4.645  15.010 -0.9031 -0.7056  0.5440
18178TIP3   OH276024   6.140   1.086  12.422 -0.2850 -0.1335 -0.2378
18178TIP3    H176025   6.201   1.078  12.495  0.9538  0.8274 -1.1301
18178TIP3    H276026   6.093   1.002  12.420 -0.3894 -0.1533  1.6728
18179TIP3   OH276027   4.797   6.741   6.064  0.0635 -0.0706  0.0353
18179TIP3    H176028   4.791   6.769   6.155 -1.0458  1.2075 -0.4000
18179TIP3    H276029   4.729   6.674   6.054  1.0238 -1.1452  0.4320
18180TIP3   OH276030   6.749   0.503  14.105  0.2985 -0.2505  0.1745
18180TIP3    H176031   6.721   0.433  14.164  2.5716 -2.4296 -1.0982
18180TIP3    H276032   6.668   0.542  14.073 -1.0179 -0.9708  2.4120
18181TIP3   OH276033   4.093   2.028  14.348  0.2164  0.8121  0.1718
18181TIP3    H176034   4.074   2.025  14.441  0.4026  1.1542  0.2220
18181TIP3    H276035   4.179   2.070  14.342 -0.0670  1.3534 -0.1868
18182TIP3   OH276036   5.429   5.354   3.916  0.0877  0.8191  0.0584
18182TIP3    H176037   5.381   5.308   3.984  1.1293  0.2016  0.3946
18182TIP3    H276038   5.366   5.416   3.880 -1.1037 -0.3084  0.1410
18183TIP3   OH276039   6.388   4.568   4.070  0.2581  0.0818  0.2341
18183TIP3    H176040   6.452   4.607   4.130 -0.1522 -0.2400  0.8989
18183TIP3    H276041   6.436   4.554   3.989 -0.1453  4.0643 -0.8574
18184TIP3   OH276042   5.927   1.403  17.090 -0.1548  0.3634  0.2055
18184TIP3    H176043   5.832   1.392  17.086 -0.0039 -1.1340 -0.1767
18184TIP3    H276044   5.954   1.352  17.167  0.2495  1.6671  0.9566
18185TIP3   OH276045   6.032   5.678   1.823  0.1316  0.5697 -0.4733
18185TIP3    H176046   6.124   5.703   1.812  0.7181 -1.5287 -0.8946
18185TIP3    H276047   6.031   5.628   1.905 -0.7759  1.1500 -0.1234
18186TIP3   OH276048   0.437   6.513  11.178  0.3073  0.8956 -0.1103
18186TIP3    H176049   0.412   6.460  11.254  0.8772 -1.3012 -1.3679
18186TIP3    H276050   0.520   6.553  11.203 -0.8110  2.4467  1.3940
18187TIP3   OH276051   2.794   2.677   1.423  0.3365 -0.0436 -0.3787
18187TIP3    H176052   2.858   2.748   1.430  0.9604 -0.3909 -2.0181
18187TIP3    H276053   2.846   2.601   1.398 -0.8395  0.0687 -3.6235
18188TIP3   OH276054   3.842   1.752   3.166 -0.0502  0.5562  0.2973
18188TIP3    H176055   3.812   1.825   3.220  1.5194  1.3901  0.0843
18188TIP3    H276056   3.867   1.684   3.228 -0.9119  0.4270  0.5156
18189TIP3   OH276057   2.495   2.036  15.300  0.0837  0.2017 -0.3350
18189TIP3    H176058   2.416   2.085  15.278  0.2987  0.5465 -0.3432
18189TIP3    H276059   2.484   2.015  15.393 -1.0985 -1.7660 -0.8626
18190TIP3   OH276060   5.783   1.396   5.788 -0.2076  0.7158  0.0681
18190TIP3    H176061   5.715   1.462   5.771 -0.7023  0.7238  1.8690
18190TIP3    H276062   5.854   1.419   5.729 -0.8022  2.2128 -0.1071
18191TIP3   OH276063   6.153   0.238  15.532 -0.1617  0.1132  0.1359
18191TIP3    H176064   6.139   0.291  15.454  1.1964  0.5649  0.1788
18191TIP3    H276065   6.179   0.300  15.600 -1.2406 -0.2851  0.9341
18192TIP3   OH276066   5.632   0.196  14.379  0.0271  0.0702  0.5599
18192TIP3    H176067   5.681   0.226  14.302 -0.5829 -0.8964 -0.2368
18192TIP3    H276068   5.547   0.171  14.344 -1.0841  1.7529  1.9166
18193TIP3   OH276069   6.178   3.437  14.889 -0.3741  0.0581  0.1805
18193TIP3    H176070   6.254   3.485  14.855  0.6411 -2.1649 -0.9243
18193TIP3    H276071   6.213   3.386  14.962  0.0786 -3.2809 -2.1481
18194TIP3   OH276072   5.933   3.500  14.525  0.3761  0.1395 -0.8297
18194TIP3    H176073   5.991   3.425  14.540  1.8781  1.4266  0.1107
18194TIP3    H276074   5.922   3.540  14.611  1.9699  2.6313 -1.6854
18195TIP3   OH276075   1.656   2.991   5.838  0.4322  0.4583 -0.1816
18195TIP3    H176076   1.561   2.998   5.831  0.3825  1.5733  1.1304
18195TIP3    H276077   1.678   3.041   5.917  1.9599 -1.1324  0.4689
18196TIP3   OH276078   1.102   4.908  13.769 -0.8422  0.4577 -0.5343
18196TIP3    H176079   1.180   4.929  13.718 -0.4219  0.4014  0.0670
18196TIP3    H276080   1.118   4.819  13.801 -0.4756  0.9695  0.7963
18197TIP3   OH276081   1.490   2.621   4.024  0.3094  0.4579  0.1613
18197TIP3    H176082   1.535   2.582   4.099 -1.1741  3.0869  2.6392
18197TIP3    H276083   1.555   2.677   3.983  0.9061 -0.3729 -0.0599
18198TIP3   OH276084   1.159   3.496  16.436  0.6968  0.1786  1.0905
18198TIP3    H176085   1.134   3.459  16.351  0.6018 -0.3844  1.3639
18198TIP3    H276086   1.234   3.444  16.464  0.4610  0.0823  1.5524
18199TIP3   OH276087   1.698   5.460  14.814  0.0622 -0.4443 -0.1013
18199TIP3    H176088   1.610   5.454  14.775 -0.3628  0.7626  0.6031
18199TIP3    H276089   1.730   5.545  14.785  0.6673 -0.5268  0.3185
18200TIP3   OH276090   2.399   0.917  15.547  0.0839 -0.6492 -0.0390
18200TIP3    H176091   2.439   0.986  15.494 -1.6661  1.6387  1.4041
18200TIP3    H276092   2.449   0.917  15.628 -0.6417 -0.2237  0.4173
18201TIP3   OH276093   3.087   5.625   1.553  0.4998 -1.1458 -0.1000
18201TIP3    H176094   3.007   5.663   1.515  1.5636 -0.9006 -2.2397
18201TIP3    H276095   3.117   5.691   1.615 -0.1947 -0.5763 -0.3501
18202TIP3   OH276096   1.890   3.186  15.947 -0.0536  0.2436  0.4948
18202TIP3    H176097   1.884   3.096  15.979 -0.3703  0.1510  0.1842
18202TIP3    H276098   1.906   3.238  16.025  1.0614 -0.1803  0.5692
18203TIP3   OH276099   3.750   0.944  13.809  0.1860  0.0694  0.3515
18203TIP3    H176100   3.826   0.907  13.854  0.5055  0.0015 -0.2381
18203TIP3    H276101   3.784   0.975  13.725 -0.0014  1.9463  0.9116
18204TIP3   OH276102   3.550   3.423   1.660 -0.2664  0.2334 -0.2570
18204TIP3    H176103   3.487   3.410   1.589  2.8759  1.8538 -3.6839
18204TIP3    H276104   3.540   3.515   1.685  0.0969  0.2548 -0.1798
18205TIP3   OH276105   0.965   3.821   6.753 -0.0230 -0.1362 -0.0955
18205TIP3    H176106   1.041   3.836   6.697  1.4633  1.2721  2.1494
18205TIP3    H276107   0.981   3.735   6.792 -0.6819 -0.7781 -1.1865
18206TIP3   OH276108   5.211   0.503  12.102  0.0283 -0.4007  0.0567
18206TIP3    H176109   5.191   0.567  12.171 -0.0999  1.8341 -1.9106
18206TIP3    H276110   5.285   0.453  12.136  0.2201  0.8792  1.6699
18207TIP3   OH276111   1.140   1.116  16.321 -0.4374  0.0377 -0.0455
18207TIP3    H176112   1.182   1.107  16.407  0.0402  1.4944 -0.0825
18207TIP3    H276113   1.064   1.171  16.337  0.1325  1.0519 -0.6539
18208TIP3   OH276114   4.858   4.774  11.277  0.1838  0.1933 -0.5733
18208TIP3    H176115   4.885   4.682  11.270  0.8076  0.3656 -0.4622
18208TIP3    H276116   4.840   4.800  11.187  1.0812  0.2729 -0.7438
18209TIP3   OH276117   4.566   4.816  14.856  0.0504 -0.5989 -0.2115
18209TIP3    H176118   4.558   4.773  14.941 -0.0984  0.3196  0.2591
18209TIP3    H276119   4.486   4.868  14.848 -0.4645 -1.5304 -1.4301
18210TIP3   OH276120   6.758   0.139   2.566  0.1792 -0.1059 -0.1820
18210TIP3    H176121   6.718   0.099   2.643  0.2902  0.1406  0.0044
18210TIP3    H276122   6.837   0.086   2.550 -0.7934 -1.3092 -1.2340
18211TIP3   OH276123   0.064   3.359  11.689 -0.5130 -0.4048 -0.4517
18211TIP3    H176124   0.113   3.290  11.734 -0.0093  0.4405  0.3310
18211TIP3    H276125   0.099   3.441  11.725 -1.6649  0.2476 -0.7730
18212TIP3   OH276126   3.383   0.759  15.437 -0.0495 -0.4286 -0.1640
18212TIP3    H176127   3.414   0.720  15.518  0.9839 -0.2164 -0.4399
18212TIP3    H276128   3.308   0.705  15.411  0.2189 -1.0919  0.4186
18213TIP3   OH276129   4.970   2.896   5.140  0.4158 -0.0270  0.2325
18213TIP3    H176130   5.043   2.920   5.083  0.7871 -0.9831  0.2941
18213TIP3    H276131   4.892   2.906   5.084  0.5180  1.4805  0.3107
18214TIP3   OH276132   4.451   5.537  15.410 -0.0653  0.0700 -0.0042
18214TIP3    H176133   4.441   5.450  15.449 -1.0215  0.4315  0.5951
18214TIP3    H276134   4.379   5.543  15.347  1.1641 -0.3121 -1.5000
18215TIP3   OH276135   0.441   3.552  14.633 -0.6134  0.4876  0.6446
18215TIP3    H176136   0.491   3.630  14.656  0.1728  0.5254 -1.0596
18215TIP3    H276137   0.507   3.487  14.611 -1.2884  0.1079 -0.3003
18216TIP3   OH276138   3.473   1.778   2.294 -0.0369  0.4821 -0.2074
18216TIP3    H176139   3.566   1.771   2.270  0.0982 -0.8759  0.5956
18216TIP3    H276140   3.472   1.770   2.389 -1.0747 -1.0620 -0.3180
18217TIP3   OH276141   4.020   6.325   3.168  0.7623 -0.2126 -0.0515
18217TIP3    H176142   4.035   6.351   3.259  2.1659 -1.6903  0.2051
18217TIP3    H276143   4.105   6.290   3.140 -0.1668 -1.5800 -1.2918
18218TIP3   OH276144   1.355   0.558   1.707 -0.3547 -0.4213  0.2499
18218TIP3    H176145   1.294   0.523   1.642  0.4142  0.8804 -1.2272
18218TIP3    H276146   1.370   0.649   1.680  2.2185 -0.6746  0.5345
18219TIP3   OH276147   6.734   3.635  13.373 -0.6117  0.0628  0.4553
18219TIP3    H176148   6.718   3.585  13.453 -1.0311  2.6234  2.0828
18219TIP3    H276149   6.769   3.571  13.311  2.6628 -1.4939  3.6187
18220TIP3   OH276150   0.998   5.266   1.207 -0.3940 -0.5879 -0.1114
18220TIP3    H176151   1.051   5.341   1.179 -2.0190  1.0726  0.9957
18220TIP3    H276152   0.942   5.301   1.277 -1.1669 -2.8751  0.5092
18221TIP3   OH276153   6.394   1.810   1.549 -0.4243 -0.4831  0.2849
18221TIP3    H176154   6.370   1.760   1.627  0.6910  0.9503  1.6117
18221TIP3    H276155   6.336   1.886   1.550  0.5529  0.2661  0.5177
18222TIP3   OH276156   4.733   1.070   4.150  0.0387 -0.2675 -0.0859
18222TIP3    H176157   4.742   1.089   4.056 -1.1450 -0.8193 -0.3379
18222TIP3    H276158   4.823   1.061   4.181  0.4632  0.1934 -1.1124
18223TIP3   OH276159   0.780   6.730  16.756 -0.0688 -0.7041 -0.0597
18223TIP3    H176160   0.750   6.712  16.667  0.1964 -1.2761 -0.0329
18223TIP3    H276161   0.828   6.813  16.749  0.8445 -1.2709 -0.6439
18224TIP3   OH276162   5.115   4.376  16.763  0.3913 -0.1846  0.2119
18224TIP3    H176163   5.103   4.388  16.857  0.5515 -0.1965  0.2349
18224TIP3    H276164   5.140   4.463  16.731 -1.1591  0.1903 -0.0704
18225TIP3   OH276165   4.564   3.825   3.695 -0.3546  0.5067  0.1384
18225TIP3    H176166   4.567   3.864   3.783 -0.0724 -1.5353  1.1064
18225TIP3    H276167   4.526   3.893   3.640 -2.5571  1.1410  2.2614
18226TIP3   OH276168   6.797   4.415   3.388  0.1765  0.3566 -0.2819
18226TIP3    H176169   6.757   4.475   3.451  0.4456  0.0915  0.1491
18226TIP3    H276170   6.778   4.453   3.303  0.6183  1.2109 -0.0023
18227TIP3   OH276171   5.854   0.129  14.532  0.2450 -0.6237  0.3731
18227TIP3    H176172   5.786   0.171  14.479  0.9958  0.3338  0.1395
18227TIP3    H276173   5.926   0.193  14.534  2.1211 -2.5418 -1.3829
18228TIP3   OH276174   1.126   2.258   6.223  0.5516 -0.1971 -0.2019
18228TIP3    H176175   1.137   2.328   6.286  1.7078  0.0489 -0.6598
18228TIP3    H276176   1.031   2.248   6.214  0.3628  1.4968 -0.3376
18229TIP3   OH276177   2.455   6.752   2.009  0.4855 -0.0659  0.5942
18229TIP3    H176178   2.429   6.679   1.953  2.1738  0.0705 -0.4151
18229TIP3    H276179   2.550   6.755   2.003  0.5249  1.5462  1.4816
18230TIP3   OH276180   2.605   1.404  14.718  0.3877  0.9365  0.1688
18230TIP3    H176181   2.523   1.425  14.674 -0.0311  1.3310  1.1042
18230TIP3    H276182   2.588   1.421  14.810  0.4272 -2.2738  0.8796
18231TIP3   OH276183   5.286   0.818   2.903  0.1775 -0.3667 -0.2648
18231TIP3    H176184   5.248   0.823   2.991  3.0166 -1.1813  1.1219
18231TIP3    H276185   5.346   0.892   2.898  0.5938 -0.7512 -1.2696
18232TIP3   OH276186   6.439   5.996  13.958 -0.8994 -0.4396  0.2478
18232TIP3    H176187   6.429   6.072  14.015 -2.7721  0.2889 -0.9290
18232TIP3    H276188   6.358   5.946  13.970 -1.1868 -0.4513 -1.4142
18233TIP3   OH276189   6.081   5.380   1.867  0.0793  0.0439 -0.1841
18233TIP3    H176190   6.048   5.329   1.940 -1.1360  2.1693  0.8479
18233TIP3    H276191   6.007   5.386   1.806  0.7428 -0.7896 -1.1125
18234TIP3   OH276192   2.611   4.798  15.209  0.2628  0.5287 -0.5155
18234TIP3    H176193   2.652   4.833  15.129  0.6429 -1.9405 -1.4942
18234TIP3    H276194   2.518   4.816  15.198  0.3920  0.8161 -1.2043
18235TIP3   OH276195   0.334   0.479  12.668  0.1730  0.4157  0.1890
18235TIP3    H176196   0.296   0.397  12.701  2.0051 -0.7696 -0.4680
18235TIP3    H276197   0.283   0.499  12.590 -0.7466  0.2955  0.7455
18236TIP3   OH276198   5.842   1.929   3.589  0.0652  0.2356  0.6334
18236TIP3    H176199   5.897   1.918   3.511  0.7780  0.1511  1.1408
18236TIP3    H276200   5.752   1.920   3.556  0.3072  1.1450 -0.3300
18237TIP3   OH276201   0.608   1.586  16.008  0.2302 -0.7680 -0.2332
18237TIP3    H176202   0.647   1.659  15.959  0.7036 -0.6793  0.2787
18237TIP3    H276203   0.610   1.614  16.099 -1.6261 -0.4817 -0.2449
18238TIP3   OH276204   1.984   6.683  16.078  0.2145  0.4605 -0.3914
18238TIP3    H176205   2.020   6.763  16.042 -0.0763 -0.0761 -1.9279
18238TIP3    H276206   1.893   6.704  16.098  0.3774  0.7568  0.0597
18239TIP3   OH276207   1.644   3.341  14.323 -0.2455 -0.3180  0.7638
18239TIP3    H176208   1.555   3.334  14.357 -0.8982  0.3228 -0.7442
18239TIP3    H276209   1.638   3.403  14.251  0.7048 -2.7290 -1.5943
18240TIP3   OH276210   5.007   1.447   3.863 -0.1123 -0.3186 -0.2805
18240TIP3    H176211   4.976   1.505   3.933 -0.7811 -0.8603 -0.1181
18240TIP3    H276212   5.075   1.497   3.818  0.2344  0.0931  0.6759
18241TIP3   OH276213   5.314   2.458  12.644 -0.6427  0.2584  0.5516
18241TIP3    H176214   5.224   2.475  12.673 -1.0754 -1.2435  0.1702
18241TIP3    H276215   5.367   2.522  12.692 -1.9483  1.4977  0.4151
18242TIP3   OH276216   5.637   4.193  11.802 -0.3228 -0.1881  0.1340
18242TIP3    H176217   5.557   4.245  11.806 -1.8362 -2.2919 -0.6127
18242TIP3    H276218   5.672   4.209  11.715 -1.1779 -0.8979 -0.3631
18243TIP3   OH276219   3.251   1.889  15.849  0.1983 -0.0337  0.1352
18243TIP3    H176220   3.191   1.876  15.922  0.2950 -1.4166 -0.0081
18243TIP3    H276221   3.221   1.828  15.782 -0.9162  2.3557 -1.6780
18244TIP3   OH276222   6.172   4.941   3.198 -0.0830  0.0800 -0.2356
18244TIP3    H176223   6.163   4.854   3.236  0.4158 -0.1632 -0.6684
18244TIP3    H276224   6.096   4.990   3.231 -0.2480 -0.4510  0.1779
18245TIP3   OH276225   4.761   0.283  14.747  0.1082 -0.0675 -0.6773
18245TIP3    H176226   4.740   0.332  14.668 -0.7850 -1.8445 -1.5912
18245TIP3    H276227   4.689   0.220  14.757  1.0596 -1.0325  0.5842
18246TIP3   OH276228   2.756   5.739  15.264  1.1574 -0.0162 -0.1095
18246TIP3    H176229   2.841   5.766  15.227  0.2012  2.4115 -0.7399
18246TIP3    H276230   2.712   5.821  15.285  0.6856 -1.1853  4.5411
18247TIP3   OH276231   2.285   5.464   1.013  0.6216  0.3639  0.3043
18247TIP3    H176232   2.357   5.495   1.068  0.2421  4.3047 -1.1515
18247TIP3    H276233   2.210   5.519   1.037 -0.4090  0.0444 -1.8984
18248TIP3   OH276234   0.414   4.785   2.749 -0.3586  0.2773  0.0124
18248TIP3    H176235   0.401   4.694   2.778  1.5760 -0.9395 -2.4683
18248TIP3    H276236   0.509   4.796   2.749 -0.5729  2.3755  0.3404
18249TIP3   OH276237   2.716   1.224  12.023 -0.0211 -0.1362 -0.3566
18249TIP3    H176238   2.669   1.153  12.066  0.8001 -1.3707 -1.4090
18249TIP3    H276239   2.720   1.293  12.088 -1.5242 -0.7496  0.4376
18250TIP3   OH276240   3.875   2.752   3.170  0.2981  0.0004  0.0612
18250TIP3    H176241   3.932   2.675   3.161  0.3281  0.1429 -1.0880
18250TIP3    H276242   3.806   2.723   3.230  1.7457 -0.0620  1.7455
18251TIP3   OH276243   4.093   1.938   4.423 -0.0470 -0.1383 -0.2718
18251TIP3    H176244   4.090   1.990   4.503  0.3520 -1.8410  0.8990
18251TIP3    H276245   4.021   1.876   4.432  2.2203 -2.8727  0.6676
18252TIP3   OH276246   2.713   1.224  15.265  1.3869 -0.4310  0.1837
18252TIP3    H176247   2.686   1.180  15.184 -0.3976 -1.7680  1.4268
18252TIP3    H276248   2.727   1.153  15.328  0.3002  0.6564  1.7328
18253TIP3   OH276249   2.089   3.461   1.496 -0.4635 -0.1793  0.8159
18253TIP3    H176250   2.022   3.393   1.506 -1.5207  0.8882  1.2058
18253TIP3    H276251   2.054   3.521   1.430  0.8971 -0.5016 -0.2538
18254TIP3   OH276252   0.072   5.517   3.804  0.1314  0.7972 -0.0034
18254TIP3    H176253  -0.017   5.541   3.830  0.2668 -0.0653  1.3176
18254TIP3    H276254   0.103   5.459   3.873  1.7205  1.0473 -0.4647
18255TIP3   OH276255   4.776   1.364   3.376 -0.1343 -0.1298  0.4139
18255TIP3    H176256   4.811   1.384   3.289  0.4525 -0.3664  0.5934
18255TIP3    H276257   4.704   1.426   3.388  0.9470  1.1266  0.5186
18256TIP3   OH276258   3.623   4.323   5.262 -0.0813 -0.4464 -0.3809
18256TIP3    H176259   3.632   4.239   5.306 -0.7883  0.4865  1.6487
18256TIP3    H276260   3.529   4.340   5.259  0.0954  0.9479  0.6683
18257TIP3   OH276261   0.497   2.525   1.197 -0.0321 -0.3048 -0.0547
18257TIP3    H176262   0.403   2.536   1.204  0.2117  1.5827  0.6719
18257TIP3    H276263   0.534   2.606   1.232  1.8431 -0.3165 -1.8283
18258TIP3   OH276264   3.045   1.463   5.409 -0.2185 -0.0793  0.3090
18258TIP3    H176265   3.036   1.468   5.314 -0.9966  0.4470  0.4047
18258TIP3    H276266   3.103   1.535   5.431 -0.1374 -0.1260  0.2518
18259TIP3   OH276267   6.646   3.622  14.773 -0.0195 -0.0479  0.7328
18259TIP3    H176268   6.696   3.559  14.721 -0.3321 -1.5879  2.2352
18259TIP3    H276269   6.708   3.695  14.788  0.7253 -0.4970 -0.0625
18260TIP3   OH276270   3.913   1.253  14.618  0.5230  0.1420 -0.1634
18260TIP3    H176271   3.926   1.271  14.711  0.8605  0.4483 -0.2652
18260TIP3    H276272   3.826   1.216  14.612  1.1085 -1.3876  0.4822
18261TIP3   OH276273   6.057   6.276  15.077 -0.3597 -0.0285 -0.2341
18261TIP3    H176274   6.129   6.235  15.124  0.1539 -0.5555 -1.4512
18261TIP3    H276275   5.978   6.239  15.118  0.0648 -0.4391  0.2283
18262TIP3   OH276276   0.790   4.648  12.758 -0.9789 -0.4037 -0.1152
18262TIP3    H176277   0.695   4.657  12.761 -0.9106  0.1537  0.4488
18262TIP3    H276278   0.805   4.554  12.746 -1.5555 -0.9264  2.6712
18263TIP3   OH276279   0.972   6.219  13.833 -0.0338 -0.3486  0.2561
18263TIP3    H176280   0.955   6.162  13.758  0.8619 -0.3992  0.0918
18263TIP3    H276281   0.955   6.164  13.909 -1.6620 -0.0970  0.1261
18264TIP3   OH276282   2.520   0.714  11.534 -0.6090 -0.8890  0.3388
18264TIP3    H176283   2.561   0.771  11.469 -2.3531 -0.2327 -0.2386
18264TIP3    H276284   2.541   0.756  11.618  1.0786 -1.3689  0.1926
18265TIP3   OH276285   0.216   6.812  14.187  0.3336  0.1692 -0.8086
18265TIP3    H176286   0.170   6.883  14.143 -1.3923 -1.1446 -1.2242
18265TIP3    H276287   0.247   6.851  14.269  1.0266  1.8533 -1.8320
18266TIP3   OH276288   6.629   2.751   2.426 -0.2485 -0.0606  0.3444
18266TIP3    H176289   6.671   2.698   2.358  0.3936  0.2899  0.4535
18266TIP3    H276290   6.632   2.840   2.391  1.4731  0.3675  1.4594
18267TIP3   OH276291   6.230   4.818   0.276  0.5714  0.2596 -0.1336
18267TIP3    H176292   6.235   4.853   0.365 -0.2072  2.8876 -1.0157
18267TIP3    H276293   6.300   4.863   0.229  1.8828 -2.1332 -0.6020
18268TIP3   OH276294   5.973   2.885   4.031 -0.4372  0.2569 -0.1015
18268TIP3    H176295   5.939   2.801   4.062  0.2257 -0.5252 -1.3729
18268TIP3    H276296   6.052   2.900   4.083 -0.6365  0.1537  0.2297
18269TIP3   OH276297   4.922   2.326  14.206 -0.6776 -0.1940 -0.2787
18269TIP3    H176298   4.999   2.341  14.151 -0.6878 -0.2511 -0.3098
18269TIP3    H276299   4.951   2.345  14.295 -1.0407  1.2762 -0.4475
18270TIP3   OH276300   6.126   5.890  16.752 -0.0573 -0.2620  0.0718
18270TIP3    H176301   6.078   5.928  16.678 -1.1849  1.2710  1.5153
18270TIP3    H276302   6.059   5.878  16.820  1.0318 -1.2048  1.0136
18271TIP3   OH276303   4.237   5.481   2.581 -0.3992 -0.1721  0.1637
18271TIP3    H176304   4.190   5.463   2.499  1.1872  1.2480 -1.1315
18271TIP3    H276305   4.202   5.565   2.610  0.3146  0.2091 -0.0569
18272TIP3   OH276306   6.247   5.744   5.450 -0.2487  0.0112 -0.3646
18272TIP3    H176307   6.235   5.653   5.476 -0.6569  0.3555  0.6931
18272TIP3    H276308   6.250   5.792   5.532  3.9593  0.5443 -0.6171
18273TIP3   OH276309   5.697   3.736  15.493 -0.4425  0.4185 -0.4225
18273TIP3    H176310   5.651   3.790  15.430  0.9025  1.1664 -0.8161
18273TIP3    H276311   5.757   3.684  15.441  0.2388  0.5860  0.1671
18274TIP3   OH276312   6.644   4.902   6.223 -0.2485 -0.5753  0.0878
18274TIP3    H176313   6.554   4.881   6.248  0.0153 -0.5958  1.0799
18274TIP3    H276314   6.690   4.819   6.225 -0.5822 -0.8669 -2.2154
18275TIP3   OH276315   1.646   2.233  14.385 -0.3773 -0.7209 -0.1228
18275TIP3    H176316   1.734   2.234  14.347 -0.8023  0.3630 -1.1273
18275TIP3    H276317   1.618   2.141  14.380  0.9964 -1.2362  0.9695
18276TIP3   OH276318   4.420   5.784   3.551  0.3884  0.3445 -0.0171
18276TIP3    H176319   4.370   5.851   3.597  1.0804  1.5016 -0.8907
18276TIP3    H276320   4.374   5.702   3.570 -0.5680  1.0820  0.9434
18277TIP3   OH276321   3.860   5.469   4.288 -0.3064 -0.1278 -0.4818
18277TIP3    H176322   3.846   5.375   4.301 -0.0054 -0.0842  0.2548
18277TIP3    H276323   3.916   5.495   4.362  0.5799  0.3989 -1.3231
18278TIP3   OH276324   5.415   3.414   5.447 -0.0056  0.4638 -0.3317
18278TIP3    H176325   5.468   3.421   5.526  1.4824  0.7278 -1.3166
18278TIP3    H276326   5.336   3.368   5.475 -0.7262  2.7724  1.8790
18279TIP3   OH276327   1.893   2.127   0.879  0.0262  0.6331  0.3926
18279TIP3    H176328   1.847   2.130   0.963 -0.7258  1.1932 -0.0343
18279TIP3    H276329   1.937   2.211   0.872 -0.8556  1.0559 -0.2888
18280TIP3   OH276330   2.398   5.638   0.046  0.4584 -0.2812 -0.4317
18280TIP3    H176331   2.441   5.717   0.013 -2.1636  1.7973  0.7734
18280TIP3    H276332   2.326   5.622  -0.014  0.3836 -1.1966 -0.1158
18281TIP3   OH276333   6.020   4.651   5.645  0.3195 -0.3919  0.1749
18281TIP3    H176334   6.095   4.692   5.687  0.3511 -1.2327  0.9598
18281TIP3    H276335   6.026   4.558   5.669 -1.5876 -0.2882  1.1899
18282TIP3   OH276336   0.737   0.360  10.209 -0.1027  0.0325 -0.4538
18282TIP3    H176337   0.689   0.329  10.286 -2.5305  3.6770 -0.2741
18282TIP3    H276338   0.725   0.291  10.144 -1.7327 -1.1910  1.0634
18283TIP3   OH276339   4.091   6.824   3.752  0.2631 -0.1701  0.7978
18283TIP3    H176340   4.037   6.801   3.827 -0.8526 -2.1717 -0.5341
18283TIP3    H276341   4.034   6.874   3.694  0.9947  1.0142  1.0634
18284TIP3   OH276342   3.317   1.799   4.000 -0.5955  0.6204  0.0614
18284TIP3    H176343   3.389   1.832   3.946  0.4423 -0.3758  0.7867
18284TIP3    H276344   3.356   1.787   4.087 -1.6884  0.2202  0.5140
18285TIP3   OH276345   0.110   4.799   3.284 -0.4860  0.3969  0.7259
18285TIP3    H176346   0.101   4.887   3.247 -1.0665  0.4209  0.9133
18285TIP3    H276347   0.203   4.779   3.275 -0.7095  0.1174 -1.3860
18286TIP3   OH276348   4.817   6.100   4.652  0.7665 -0.2859  0.1132
18286TIP3    H176349   4.908   6.128   4.641  1.4624 -2.4847 -0.2916
18286TIP3    H276350   4.818   6.007   4.629 -1.6632 -0.2959 -0.1935
18287TIP3   OH276351   4.908   1.260   4.547 -0.1942  0.4588  0.4033
18287TIP3    H176352   4.933   1.225   4.462  1.1912 -1.1500  1.4084
18287TIP3    H276353   4.990   1.268   4.596 -1.1193 -0.7631  2.3090
18288TIP3   OH276354   5.503   6.407   1.021 -0.0664 -0.4351 -0.1047
18288TIP3    H176355   5.558   6.354   0.964 -0.1230 -0.1749 -0.4101
18288TIP3    H276356   5.537   6.496   1.011 -0.0825 -0.3877  0.2647
18289TIP3   OH276357   5.213   5.649   1.406 -0.1239 -0.5420 -0.0611
18289TIP3    H176358   5.161   5.577   1.370 -1.0110  0.2070 -0.2942
18289TIP3    H276359   5.154   5.723   1.408  0.3963 -0.1424  1.4449
18290TIP3   OH276360   1.694   1.120  16.236  0.0760  0.3266  0.4601
18290TIP3    H176361   1.755   1.179  16.192  0.7351  0.2969  1.2881
18290TIP3    H276362   1.608   1.160  16.223  0.5465  1.7013  1.3314
18291TIP3   OH276363   4.281   4.674  10.484  0.1250 -0.5077  0.2556
18291TIP3    H176364   4.248   4.753  10.441 -0.2929 -0.4930  0.6003
18291TIP3    H276365   4.260   4.603  10.423 -0.4295 -0.4828  0.4211
18292TIP3   OH276366   6.625   0.358  13.798  0.0603 -0.2394  0.0601
18292TIP3    H176367   6.683   0.297  13.843  0.9801  0.5665 -0.0187
18292TIP3    H276368   6.630   0.439  13.850 -1.2432 -0.2549  0.2447
18293TIP3   OH276369   6.378   0.307   0.374 -0.3283  0.0305 -0.3175
18293TIP3    H176370   6.321   0.342   0.305 -0.9841 -2.3135 -1.0617
18293TIP3    H276371   6.348   0.350   0.454 -1.7172  0.4275 -1.0154
18294TIP3   OH276372   3.594   3.248   3.753  0.4610  0.2828 -0.1187
18294TIP3    H176373   3.670   3.302   3.773 -0.1263  0.9297  0.4284
18294TIP3    H276374   3.526   3.278   3.814  0.2035 -1.2865  0.4364
18295TIP3   OH276375   1.326   3.284  11.712 -0.1444 -0.7015 -0.2219
18295TIP3    H176376   1.350   3.376  11.722 -0.6932 -0.4458 -1.1907
18295TIP3    H276377   1.409   3.237  11.723 -0.1875 -0.2925  2.5125
18296TIP3   OH276378   6.114   0.780   6.367  0.6138 -0.2428 -0.4872
18296TIP3    H176379   6.111   0.858   6.423 -0.9265  0.3368 -1.3114
18296TIP3    H276380   6.081   0.810   6.283  0.5773 -1.6616 -1.0055
18297TIP3   OH276381   3.332   1.478   3.110  0.1177  0.4100 -0.0598
18297TIP3    H176382   3.376   1.520   3.184  1.4042 -0.8589 -0.0553
18297TIP3    H276383   3.242   1.464   3.140  0.2925  1.0531  0.7859
18298TIP3   OH276384   5.895   1.627   1.741  0.3674  0.3497 -0.6306
18298TIP3    H176385   5.809   1.614   1.700 -1.4604  1.9807  2.3639
18298TIP3    H276386   5.896   1.719   1.765  3.1210  0.4236 -0.7389
18299TIP3   OH276387   2.858   1.880  16.437  0.1091  0.3879 -0.4743
18299TIP3    H176388   2.947   1.851  16.417 -0.0956 -0.8845  0.3155
18299TIP3    H276389   2.853   1.875  16.533 -1.1705 -0.7869 -0.5680
18300TIP3   OH276390   5.093   5.091   3.938 -0.1184  0.5902 -0.4578
18300TIP3    H176391   5.137   5.140   4.008 -1.7122 -0.7236  1.6126
18300TIP3    H276392   5.025   5.150   3.907 -1.0577  0.3284  0.9734
18301TIP3   OH276393   4.382   3.246  11.580 -0.4380 -0.1482 -0.6154
18301TIP3    H176394   4.380   3.261  11.675 -0.4568 -1.0380 -0.4703
18301TIP3    H276395   4.455   3.186  11.567  0.2355  0.7760 -1.2982
18302TIP3   OH276396   5.880   5.931  15.440  0.0290 -0.8416 -0.0124
18302TIP3    H176397   5.801   5.893  15.400  1.0612 -0.5817 -2.5015
18302TIP3    H276398   5.927   5.856  15.476  0.1123 -1.4471 -1.3112
18303TIP3   OH276399   5.239   3.946  16.003 -0.4772 -0.1657  0.2374
18303TIP3    H176400   5.214   4.038  16.013 -0.6393 -0.2017  0.1696
18303TIP3    H276401   5.197   3.918  15.922 -0.3723 -0.2803  0.2225
18304TIP3   OH276402   0.375   2.065  14.891  0.2127 -0.9080  0.5068
18304TIP3    H176403   0.312   2.004  14.930 -0.7468 -0.1541  0.1883
18304TIP3    H276404   0.460   2.024  14.906 -0.3374 -1.9177  1.0306
18305TIP3   OH276405   5.656   3.409  16.971  0.1252  0.0657 -0.6207
18305TIP3    H176406   5.705   3.413  17.052 -1.2385  1.5266  0.2062
18305TIP3    H276407   5.568   3.380  16.997 -0.3943  0.7721 -1.5174
18306TIP3   OH276408   6.507   6.709   5.343  0.4028  0.0427 -1.0764
18306TIP3    H176409   6.557   6.742   5.269  1.6135 -0.5582 -0.5440
18306TIP3    H276410   6.448   6.781   5.367  1.0675  0.7890 -1.6596
18307TIP3   OH276411   2.817   2.788   0.197 -0.2386  0.1548 -0.2218
18307TIP3    H176412   2.883   2.823   0.257 -0.6981  1.1235 -0.2649
18307TIP3    H276413   2.815   2.850   0.124 -1.5266  0.4158  0.0019
18308TIP3   OH276414   6.755   6.035  14.675 -0.3954  0.3705  0.4679
18308TIP3    H176415   6.703   5.957  14.693  0.1625  0.1111  1.0040
18308TIP3    H276416   6.789   6.022  14.587  0.9739 -0.7517  1.1212
18309TIP3   OH276417   2.134   2.268   0.641 -0.8219  0.4461  0.3356
18309TIP3    H176418   2.070   2.321   0.689  1.2751  0.1426  3.8155
18309TIP3    H276419   2.206   2.328   0.622 -0.8720  0.1266 -0.9592
18310TIP3   OH276420   0.367   5.383  11.689  0.1794 -0.0102  0.0209
18310TIP3    H176421   0.286   5.411  11.645 -0.1746  0.0195  0.6853
18310TIP3    H276422   0.349   5.394  11.782  0.1334 -2.1650  0.3122
18311TIP3   OH276423   2.622   4.926   3.959  0.3145  0.3929 -0.0273
18311TIP3    H176424   2.645   4.946   4.049  0.8229 -0.6176  0.0778
18311TIP3    H276425   2.631   4.831   3.952 -0.8687  0.3120 -0.8181
18312TIP3   OH276426   0.075   6.393   3.471  0.3620 -0.2387  0.0317
18312TIP3    H176427   0.045   6.304   3.454  0.6247 -0.1520 -0.9089
18312TIP3    H276428   0.170   6.388   3.467  0.3676  0.5455 -2.6379
18313TIP3   OH276429   6.608   3.458  14.340 -0.3375 -0.4087  0.1213
18313TIP3    H176430   6.592   3.531  14.281 -0.3274 -0.9507 -0.5715
18313TIP3    H276431   6.568   3.383  14.297  2.6213 -1.5347 -0.9536
18314TIP3   OH276432   6.169   5.647  13.781  0.7222 -0.2136  0.3947
18314TIP3    H176433   6.227   5.580  13.742  1.7886  0.8110  0.1662
18314TIP3    H276434   6.092   5.598  13.809  1.0834 -1.4085 -0.5889
18315TIP3   OH276435   6.781   5.352   5.380 -0.3734  0.6385 -0.8684
18315TIP3    H176436   6.838   5.383   5.450  0.8049 -0.6035 -1.2564
18315TIP3    H276437   6.821   5.385   5.300  0.6275 -1.3808 -1.2499
18316TIP3   OH276438   3.284   3.902  10.439 -0.4828  0.5295  0.2930
18316TIP3    H176439   3.200   3.909  10.484 -0.2705  0.9860  0.6289
18316TIP3    H276440   3.348   3.893  10.509  0.0247  2.9461  0.2149
18317TIP3   OH276441   4.805   1.498  13.546 -0.4250  0.1061 -0.4593
18317TIP3    H176442   4.769   1.426  13.494 -0.8220  0.3409 -0.5135
18317TIP3    H276443   4.748   1.572  13.526 -0.6611  0.1627  0.4216
18318TIP3   OH276444   4.417   2.168  11.965  0.0229 -0.3125  0.1408
18318TIP3    H176445   4.443   2.086  11.923 -0.0585  0.2229 -0.9684
18318TIP3    H276446   4.323   2.161  11.976  0.0150 -0.3556  0.0378
18319TIP3   OH276447   0.917   3.875  15.955  0.0197 -0.7892 -0.6430
18319TIP3    H176448   0.940   3.947  15.896  0.1435 -2.3685 -2.6463
18319TIP3    H276449   0.998   3.857  16.002  0.4504 -0.6432 -1.3032
18320TIP3   OH276450   1.762   1.581  15.199  0.3091 -0.0128 -0.4540
18320TIP3    H176451   1.680   1.606  15.241  0.5494 -2.1281  1.5081
18320TIP3    H276452   1.821   1.562  15.272  1.3576 -2.1114 -1.7317
18321TIP3   OH276453   5.155   2.973   4.752  0.0228  0.0175 -0.7966
18321TIP3    H176454   5.160   3.067   4.734 -1.6655 -0.0647 -1.9250
18321TIP3    H276455   5.217   2.933   4.690  0.2025  0.3283 -0.8194
18322TIP3   OH276456   6.023   3.881   4.382  0.3752  0.1071 -0.0322
18322TIP3    H176457   6.054   3.813   4.442  1.0640  0.9550  0.6072
18322TIP3    H276458   6.054   3.963   4.422 -0.5270  0.7976 -0.7311
18323TIP3   OH276459   5.512   1.342   4.354  0.8219  0.5508 -0.0217
18323TIP3    H176460   5.484   1.266   4.405  0.8349  0.4542 -0.1579
18323TIP3    H276461   5.597   1.367   4.392  1.5187 -0.3955 -0.9158
18324TIP3   OH276462   1.930   5.018   4.565  0.3036 -0.2969  0.4041
18324TIP3    H176463   1.864   5.023   4.634 -0.1112 -2.0501  0.1856
18324TIP3    H276464   1.879   5.010   4.484  0.7693 -1.3207  0.1979
18325TIP3   OH276465   3.236   6.657  15.524  0.3018  0.1067  0.6214
18325TIP3    H176466   3.199   6.651  15.436  1.3709 -0.2541  0.1721
18325TIP3    H276467   3.227   6.568  15.559 -0.9391  0.4589  1.2358
18326TIP3   OH276468   2.483   1.611   3.371 -0.1887  0.0882 -0.6604
18326TIP3    H176469   2.499   1.523   3.335  0.3796 -1.1126  2.2179
18326TIP3    H276470   2.552   1.665   3.333  0.4480 -1.1106 -1.2728
18327TIP3   OH276471   5.708   1.128   5.328  0.3080  0.6260 -0.3827
18327TIP3    H176472   5.626   1.096   5.366 -1.1081  1.4822 -2.5234
18327TIP3    H276473   5.730   1.205   5.380  0.0639  0.0886  0.5474
18328TIP3   OH276474   1.198   1.218  13.440  0.2423 -0.1702  0.0940
18328TIP3    H176475   1.148   1.149  13.397 -1.0963  0.5603  0.4098
18328TIP3    H276476   1.285   1.180  13.454 -0.3518 -1.6527 -0.0707
18329TIP3   OH276477   1.294   1.675   6.117 -0.2091  0.2472  0.0738
18329TIP3    H176478   1.309   1.643   6.206  0.6934  3.2803  1.1244
18329TIP3    H276479   1.210   1.720   6.121  0.5040  1.6596 -0.1820
18330TIP3   OH276480   0.944   2.850  16.835 -0.2955  0.0896 -0.0448
18330TIP3    H176481   1.038   2.863  16.825 -0.2966  1.7589  1.6761
18330TIP3    H276482   0.929   2.760  16.805  1.8855 -0.3284 -0.0253
18331TIP3   OH276483   0.924   6.806  11.814  0.5418  0.3796  0.1950
18331TIP3    H176484   1.017   6.796  11.831  1.1394  1.8683 -1.8682
18331TIP3    H276485   0.896   6.875  11.875  1.4762  1.9753 -1.1157
18332TIP3   OH276486   4.747   0.276   1.351 -0.2871  0.1716  0.2363
18332TIP3    H176487   4.651   0.270   1.355 -0.2687 -1.0529 -0.7211
18332TIP3    H276488   4.775   0.189   1.322  1.0369  0.8918 -0.7221
18333TIP3   OH276489   4.847   5.851  15.239  0.4082 -0.5392  0.1110
18333TIP3    H176490   4.899   5.886  15.166  1.4400 -1.9405  0.1451
18333TIP3    H276491   4.824   5.929  15.290  0.5958  0.3514 -1.0984
18334TIP3   OH276492   0.563   5.117  14.824  0.4618 -0.1423  0.4682
18334TIP3    H176493   0.534   5.028  14.848  0.3596  0.3785  2.4604
18334TIP3    H276494   0.547   5.122  14.730 -3.1505 -0.9824  0.8485
18335TIP3   OH276495   2.726   6.467  15.723  0.1779  0.2258  0.0596
18335TIP3    H176496   2.710   6.384  15.769  0.5675  0.5249  0.7594
18335TIP3    H276497   2.808   6.452  15.676  0.8321  0.5542  1.0597
18336TIP3   OH276498   0.320   2.817   5.086  0.0691 -0.8042 -0.2124
18336TIP3    H176499   0.231   2.826   5.120 -0.4826 -2.3004 -1.1521
18336TIP3    H276500   0.365   2.763   5.151  0.4227  0.2306  0.4326
18337TIP3   OH276501   5.938   4.333   3.667  0.0586 -0.7515  0.4487
18337TIP3    H176502   5.941   4.424   3.638 -2.1387 -0.4086  1.1365
18337TIP3    H276503   5.930   4.338   3.762 -2.5787 -1.5143  0.3363
18338TIP3   OH276504   2.976   1.475   4.142 -0.3794 -0.0267  0.1021
18338TIP3    H176505   3.006   1.489   4.232 -0.5227 -0.7051  0.2611
18338TIP3    H276506   2.989   1.559   4.099  0.8822 -0.0446  0.4138
18339TIP3   OH276507   5.582   0.862   5.880 -0.0481 -0.2430  0.2125
18339TIP3    H176508   5.664   0.829   5.918  0.3410  0.2275 -0.2110
18339TIP3    H276509   5.514   0.814   5.926  0.4710 -0.7345  0.4822
18340TIP3   OH276510   1.243   3.299  14.895  0.6788 -0.0716 -0.0674
18340TIP3    H176511   1.235   3.269  14.986 -0.1479  0.2591 -0.0147
18340TIP3    H276512   1.243   3.219  14.843  0.7234 -0.2492  0.2057
18341TIP3   OH276513   2.562   4.555  16.729 -0.1745  0.2446  0.1671
18341TIP3    H176514   2.655   4.576  16.722  0.0508 -0.7054  0.1022
18341TIP3    H276515   2.517   4.624  16.680  0.5302  0.4479 -0.1942
18342TIP3   OH276516   6.282   6.822  13.311  0.0259 -0.2237  0.1372
18342TIP3    H176517   6.251   6.780  13.391 -0.3948  0.0363  0.1139
18342TIP3    H276518   6.306   6.911  13.338 -1.1672  0.2297 -0.2236
18343TIP3   OH276519   6.172   4.153   3.671 -0.3245 -0.2305  0.1348
18343TIP3    H176520   6.193   4.153   3.578 -0.4188  2.5039  0.0376
18343TIP3    H276521   6.086   4.196   3.676 -1.0026 -1.6630  1.3866
18344TIP3   OH276522   5.369   3.538  16.522 -0.2390 -0.0445  0.3289
18344TIP3    H176523   5.379   3.470  16.456 -0.2417  0.4829 -0.2250
18344TIP3    H276524   5.285   3.518  16.565 -0.8084  0.2652 -0.6090
18345TIP3   OH276525   2.190   2.564   4.007 -0.1385 -0.1239  0.6967
18345TIP3    H176526   2.278   2.531   3.987 -0.3520  0.6066 -1.7919
18345TIP3    H276527   2.202   2.658   4.020 -0.7881  0.4743 -2.2643
18346TIP3   OH276528   2.210   4.474   0.121 -0.2637 -0.5544  0.0001
18346TIP3    H176529   2.188   4.437   0.035 -1.0247 -2.1114  0.8240
18346TIP3    H276530   2.305   4.487   0.118 -0.2715 -0.6388 -1.0541
18347TIP3   OH276531   0.859   1.605  16.322  0.1342  0.1147  0.0796
18347TIP3    H176532   0.908   1.540  16.372 -0.6294  0.2276  0.9933
18347TIP3    H276533   0.922   1.639  16.259  0.2937 -2.1850 -1.0915
18348TIP3   OH276534   3.551   3.995   1.830  0.2159 -0.2866 -0.0813
18348TIP3    H176535   3.527   3.978   1.921  1.6431  0.9392  0.5609
18348TIP3    H276536   3.646   3.981   1.827  0.0869 -1.0176 -1.5663
18349TIP3   OH276537   1.366   5.955  16.501  0.0507  0.0623  0.4686
18349TIP3    H176538   1.462   5.954  16.508 -0.0201 -0.1190  1.5127
18349TIP3    H276539   1.345   5.875  16.453  0.2878 -1.2466  2.4549
18350TIP3   OH276540   5.954   5.357   3.964 -0.0756  0.1187  0.0329
18350TIP3    H176541   5.913   5.427   3.913 -0.1600 -0.7196 -1.0853
18350TIP3    H276542   6.041   5.346   3.923 -0.3727 -0.9698 -0.3544
18351TIP3   OH276543   5.153   5.480  12.408 -0.5230 -0.4258  0.2230
18351TIP3    H176544   5.228   5.425  12.432 -0.4740  0.1928  1.5443
18351TIP3    H276545   5.161   5.492  12.313  1.5567  0.3703  0.4609
18352TIP3   OH276546   4.350   1.383   5.594 -0.1495  0.4294  0.0346
18352TIP3    H176547   4.272   1.438   5.596  0.0270  0.6698  0.4772
18352TIP3    H276548   4.413   1.429   5.649 -0.6620 -1.2432  2.1237
18353TIP3   OH276549   1.288   6.666  13.667  0.2209  0.4963 -0.0532
18353TIP3    H176550   1.261   6.746  13.711 -1.5107 -0.0406 -0.0342
18353TIP3    H276551   1.337   6.616  13.732  1.6206  1.6616 -0.1776
18354TIP3   OH276552   3.204   3.145  15.295  0.4303  0.2659  0.4144
18354TIP3    H176553   3.218   3.173  15.205  1.2437  0.8035  0.6918
18354TIP3    H276554   3.291   3.119  15.326 -0.1602 -1.9452  0.3988
18355TIP3   OH276555   2.655   3.090  13.087 -0.1889  0.6285 -0.5035
18355TIP3    H176556   2.725   3.035  13.123  0.1862  1.2384 -0.2994
18355TIP3    H276557   2.677   3.179  13.114 -1.2274  0.7922 -0.1569
18356TIP3   OH276558   1.854   4.756   4.640  0.5033  0.2766 -0.1526
18356TIP3    H176559   1.810   4.687   4.690 -0.6046  0.6282 -0.6086
18356TIP3    H276560   1.819   4.837   4.676 -0.0866  0.5399 -1.2742
18357TIP3   OH276561   2.460   5.224  12.442  0.6567  0.0447  0.6252
18357TIP3    H176562   2.409   5.150  12.473 -0.4519  0.1844 -0.7726
18357TIP3    H276563   2.548   5.210  12.478 -0.1229 -0.6697  2.3330
18358TIP3   OH276564   2.764   3.284  12.632 -0.1496  0.9655 -0.0981
18358TIP3    H176565   2.782   3.356  12.693  0.0716  0.6609  0.1983
18358TIP3    H276566   2.677   3.304  12.597  0.9489  2.7893 -2.0339
18359TIP3   OH276567   6.153   0.687   0.247 -0.2095  0.4662 -0.0520
18359TIP3    H176568   6.158   0.783   0.241 -0.1626  0.4622 -0.0783
18359TIP3    H276569   6.071   0.670   0.293 -0.3286  0.5108 -0.2487
18360TIP3   OH276570   5.624   1.525  17.165  0.1546 -0.1656 -0.0443
18360TIP3    H176571   5.544   1.475  17.153  0.0729 -0.0825  0.1420
18360TIP3    H276572   5.662   1.490  17.246  2.2443 -2.8104 -2.0171
18361TIP3   OH276573   2.515   3.744   4.563  0.2000  0.6893  1.3120
18361TIP3    H176574   2.611   3.741   4.558  0.2031  1.6129  0.2183
18361TIP3    H276575   2.486   3.667   4.513  0.4072  2.5629 -2.0567
18362TIP3   OH276576   1.739   2.387   3.257  1.1149  0.4898  0.4228
18362TIP3    H176577   1.770   2.417   3.172  1.6824 -0.2167  0.3744
18362TIP3    H276578   1.782   2.303   3.271 -0.0842 -0.0969  0.7589
18363TIP3   OH276579   3.577   2.273  15.810  0.1265 -0.1183 -0.2103
18363TIP3    H176580   3.492   2.315  15.801 -0.0334 -0.0354  1.4007
18363TIP3    H276581   3.558   2.185  15.843  0.6342 -0.3201 -0.4373
18364TIP3   OH276582   4.850   6.796  16.520 -0.8114 -0.2286  0.6460
18364TIP3    H176583   4.910   6.800  16.595 -1.4281  1.7829  1.0819
18364TIP3    H276584   4.908   6.797  16.443 -0.2353 -0.4515  1.0699
18365TIP3   OH276585   5.784   2.452  13.521  0.3039  0.6626 -0.2376
18365TIP3    H176586   5.867   2.485  13.488  0.0808  1.8499  0.3277
18365TIP3    H276587   5.808   2.396  13.595  0.6665 -0.1538 -0.9615
18366TIP3   OH276588   4.783   3.507  10.639  0.0391  0.1452  0.3650
18366TIP3    H176589   4.707   3.453  10.662  0.9206 -0.7567  1.3051
18366TIP3    H276590   4.778   3.582  10.698  0.8045 -0.7997  1.6904
18367TIP3   OH276591   6.046   0.298   0.653  0.0853  0.5618  0.0282
18367TIP3    H176592   6.046   0.263   0.564  2.7441  0.3243  0.0429
18367TIP3    H276593   5.978   0.366   0.652 -1.4824 -0.9194 -1.4998
18368TIP3   OH276594   3.899   2.258  14.317  0.2636  0.4864 -0.7395
18368TIP3    H176595   3.935   2.174  14.291 -1.4722 -0.5218 -0.0258
18368TIP3    H276596   3.805   2.246  14.317  0.0053  1.8842  1.1199
18369TIP3   OH276597   0.201   1.648   5.985  0.1676  0.4021 -0.1694
18369TIP3    H176598   0.252   1.578   5.944  1.1093  0.4645  0.8506
18369TIP3    H276599   0.144   1.680   5.915 -0.2065 -1.3026 -0.6787
18370TIP3   OH276600   5.224   0.596   5.518 -0.6811 -0.4082 -0.7975
18370TIP3    H176601   5.299   0.607   5.577 -0.7512  0.7797 -0.8987
18370TIP3    H276602   5.156   0.558   5.573 -0.0868 -1.2725 -0.6426
18371TIP3   OH276603   2.393   4.133   1.117 -0.2865 -0.0439 -0.1406
18371TIP3    H176604   2.434   4.084   1.045  1.0758  0.9369 -0.0707
18371TIP3    H276605   2.404   4.077   1.194  1.5804  0.4600  0.0117
18372TIP3   OH276606   6.381   6.084   1.259  0.3350 -0.2025 -0.0064
18372TIP3    H176607   6.400   6.043   1.343  0.6549 -1.1645 -0.5322
18372TIP3    H276608   6.402   6.017   1.194  2.6678  1.3647 -1.0326
18373TIP3   OH276609   6.005   5.086  14.870 -0.3570 -0.1275  0.1070
18373TIP3    H176610   6.079   5.048  14.918 -0.8947 -0.5043  0.6603
18373TIP3    H276611   6.013   5.180  14.886  0.4185 -0.0866 -0.4507
18374TIP3   OH276612   5.834   0.242  11.400  0.1486  0.0825  0.0714
18374TIP3    H176613   5.776   0.310  11.434 -0.9978 -1.1111  0.5859
18374TIP3    H276614   5.820   0.244  11.306 -1.6764 -0.9784  0.2815
18375TIP3   OH276615   2.722   2.754  15.939 -0.2112  0.3275  0.0928
18375TIP3    H176616   2.728   2.712  15.853 -0.7491  0.6528 -0.1120
18375TIP3    H276617   2.799   2.723  15.986 -1.3682 -2.1822  0.5130
18376TIP3   OH276618   3.035   3.383   4.937  0.0992 -0.6264 -0.7488
18376TIP3    H176619   3.119   3.425   4.956 -0.3388  0.6978 -1.5680
18376TIP3    H276620   2.971   3.453   4.949 -0.8125 -1.4210 -0.8674
18377TIP3   OH276621   0.093   4.206  12.984  0.0489  0.5876 -0.3376
18377TIP3    H176622   0.147   4.283  13.001  0.4793  0.9937 -3.0460
18377TIP3    H276623   0.147   4.132  13.013  0.6627  1.1787  0.0480
18378TIP3   OH276624   1.040   1.813  14.082 -0.0296  0.1674  0.0483
18378TIP3    H176625   1.024   1.836  13.990 -2.2329  0.3280  0.4083
18378TIP3    H276626   1.017   1.721  14.089 -1.5484  0.5618  0.7405
18379TIP3   OH276627   0.155   2.440  16.951 -0.5425 -0.3782 -0.0060
18379TIP3    H176628   0.061   2.447  16.967 -0.5056  0.7780 -0.1795
18379TIP3    H276629   0.183   2.365  17.003 -1.4056 -0.1446  0.8270
18380TIP3   OH276630   1.490   5.981   3.121  0.3683 -0.0135 -0.0048
18380TIP3    H176631   1.396   5.972   3.134  0.2461 -0.3035 -1.0743
18380TIP3    H276632   1.525   5.893   3.138  0.2392 -0.3281 -1.3084
18381TIP3   OH276633   4.714   0.716   1.388  0.0047  0.1119 -0.2766
18381TIP3    H176634   4.707   0.632   1.434  0.8892 -0.5333 -1.2877
18381TIP3    H276635   4.648   0.771   1.429  0.7826 -0.4183  1.7973
18382TIP3   OH276636   2.926   6.600   2.782  0.5428 -0.1992 -0.4644
18382TIP3    H176637   2.923   6.558   2.696 -3.7254 -0.8035 -0.2385
18382TIP3    H276638   2.866   6.674   2.774  0.2854 -0.0830  1.8918
18383TIP3   OH276639   4.168   1.283  16.349  0.2182 -0.1660  0.3249
18383TIP3    H176640   4.107   1.273  16.423  0.0891 -0.8830  0.1308
18383TIP3    H276641   4.184   1.377  16.344  0.2147 -0.1014  1.2584
18384TIP3   OH276642   0.148   6.621  13.264 -0.5534  0.6937 -0.0354
18384TIP3    H176643   0.190   6.686  13.208  1.1431  0.3734  0.8092
18384TIP3    H276644   0.176   6.537  13.228 -0.7520  0.4601  0.3491
18385TIP3   OH276645   3.449   5.750  14.940 -0.0867  0.3831 -0.1579
18385TIP3    H176646   3.493   5.829  14.910  0.0272  0.7699  1.0031
18385TIP3    H276647   3.382   5.781  15.001 -0.9965 -0.3126 -0.7585
18386TIP3   OH276648   6.031   3.519   6.064  0.7039 -0.4986  0.0501
18386TIP3    H176649   6.021   3.424   6.055 -0.7975 -0.5701  1.8761
18386TIP3    H276650   6.048   3.533   6.157 -0.1222  1.0729 -0.0014
18387TIP3   OH276651   3.197   4.332   6.321  0.0344  0.6466  0.8520
18387TIP3    H176652   3.163   4.261   6.266 -0.2050  2.0761 -0.9186
18387TIP3    H276653   3.269   4.292   6.370 -0.8075 -1.0817  0.7513
18388TIP3   OH276654   3.201   5.673   1.201  0.6199 -0.2260 -0.3098
18388TIP3    H176655   3.141   5.650   1.130 -0.7049 -1.6021  1.1519
18388TIP3    H276656   3.215   5.767   1.192 -3.1815  0.5453  0.2165
18389TIP3   OH276657   5.647   5.383  12.762 -0.1162 -0.1237  0.3385
18389TIP3    H176658   5.653   5.291  12.789 -0.6020 -0.1707  0.3051
18389TIP3    H276659   5.606   5.380  12.676  1.4951  0.0218 -0.4767
18390TIP3   OH276660   5.581   1.256  11.609 -0.5770 -0.2567  0.1562
18390TIP3    H176661   5.573   1.331  11.550 -0.2068 -0.1572  0.2303
18390TIP3    H276662   5.520   1.191  11.573 -0.4147 -0.1688 -0.2921
18391TIP3   OH276663   1.516   2.619  15.732  0.6628  0.0256 -0.4241
18391TIP3    H176664   1.529   2.714  15.737  1.6972 -0.1037 -0.3581
18391TIP3    H276665   1.601   2.583  15.756  0.3441 -0.9183 -0.6968
18392TIP3   OH276666   0.413   1.598   2.620  0.0470 -0.3490  0.1713
18392TIP3    H176667   0.473   1.524   2.614  0.4948  0.1182 -1.6841
18392TIP3    H276668   0.342   1.567   2.676  0.3161 -2.0996 -0.4010
18393TIP3   OH276669   2.835   0.309   5.995 -0.3426 -0.1869 -0.2009
18393TIP3    H176670   2.842   0.257   6.075  0.6393 -1.3452 -1.0044
18393TIP3    H276671   2.745   0.343   5.997 -0.4056 -0.3555  1.2718
18394TIP3   OH276672   6.080   0.147  13.609  0.0080 -0.0304  0.3693
18394TIP3    H176673   6.066   0.052  13.611 -0.1079 -0.0868 -1.2324
18394TIP3    H276674   6.161   0.160  13.658  0.5814 -1.0947 -0.2455
18395TIP3   OH276675   6.234   0.529  11.775 -0.2102  0.0402 -0.1608
18395TIP3    H176676   6.320   0.524  11.734 -0.7203 -2.2580 -1.1256
18395TIP3    H276677   6.248   0.580  11.855  1.8999  0.2077 -0.5821
18396TIP3   OH276678   4.590   2.836  17.200  0.2613  0.4517  0.1224
18396TIP3    H176679   4.509   2.820  17.248  0.1332  0.6895 -0.0118
18396TIP3    H276680   4.583   2.783  17.121  0.0663  0.7631 -0.0716
18397TIP3   OH276681   0.733   3.493  16.666 -0.8607  0.4678 -0.0822
18397TIP3    H176682   0.745   3.436  16.589  0.0721  0.6087 -0.0422
18397TIP3    H276683   0.646   3.531  16.653 -1.9075 -1.6469  0.3432
18398TIP3   OH276684   1.931   0.076   0.955 -0.2272 -0.3722  0.0590
18398TIP3    H176685   1.948   0.053   1.046 -0.3476  0.6452  0.3492
18398TIP3    H276686   1.946   0.171   0.951 -2.2511 -0.0376 -0.5003
18399TIP3   OH276687   5.199   0.324  14.038 -0.1375  0.6655  0.8131
18399TIP3    H176688   5.189   0.367  14.124 -0.8580  0.6520  0.7381
18399TIP3    H276689   5.294   0.325  14.023 -0.0829  1.6700  1.0999
18400TIP3   OH276690   4.562   4.783   4.930  0.2980 -0.1022 -0.0635
18400TIP3    H176691   4.644   4.766   4.976  1.1446 -1.9928 -2.0916
18400TIP3    H276692   4.494   4.753   4.991  1.2540 -0.6865  0.7499
18401TIP3   OH276693   6.031   2.871   2.498  0.1377  0.0511 -0.0125
18401TIP3    H176694   6.045   2.778   2.481 -0.4218 -0.1393  0.5345
18401TIP3    H276695   5.966   2.898   2.434 -0.0871 -0.0574  0.1714
18402TIP3   OH276696   4.624   1.801  17.095 -0.3948  1.2476 -0.3246
18402TIP3    H176697   4.639   1.746  17.018  0.5543 -0.1834  0.8276
18402TIP3    H276698   4.529   1.806  17.102 -0.4960 -0.0683 -0.5915
18403TIP3   OH276699   6.684   4.144   1.334 -0.5102 -0.4774  0.2668
18403TIP3    H176700   6.668   4.050   1.333  0.5335 -0.6633 -0.0602
18403TIP3    H276701   6.780   4.152   1.334 -0.5529  0.5829 -1.4828
18404TIP3   OH276702   2.409   2.047  15.006  0.7228  0.0944 -0.4535
18404TIP3    H176703   2.486   2.025  15.058  0.6575  0.4360 -0.2091
18404TIP3    H276704   2.443   2.063  14.918  0.4892 -3.5893 -1.3660
18405TIP3   OH276705   2.932   0.395   0.614  0.1081  0.3303 -0.9287
18405TIP3    H176706   2.915   0.361   0.702  1.4286  1.3129 -0.2497
18405TIP3    H276707   2.971   0.322   0.567  1.0794  0.2954 -0.1071
18406TIP3   OH276708   2.337   2.332   3.216  0.3271 -0.4019 -0.1868
18406TIP3    H176709   2.313   2.424   3.201 -0.4742 -0.2452  1.8242
18406TIP3    H276710   2.393   2.310   3.141 -0.5800  1.2952 -1.4345
18407TIP3   OH276711   4.414   0.206  13.460 -0.3070  0.0775  0.0325
18407TIP3    H176712   4.391   0.289  13.417  0.1639 -0.4262 -1.2451
18407TIP3    H276713   4.413   0.226  13.553 -1.6552  1.1468 -0.1770
18408TIP3   OH276714   0.262   6.292  12.651  0.2157 -0.5300 -0.1956
18408TIP3    H176715   0.241   6.382  12.677  0.7370 -0.9617  1.9283
18408TIP3    H276716   0.335   6.301  12.590  1.4579  0.4589  1.3604
18409TIP3   OH276717   6.223   1.083  14.938 -0.1107  0.4261  0.3347
18409TIP3    H176718   6.212   1.023  14.864 -0.8076  1.0823 -0.1085
18409TIP3    H276719   6.146   1.067  14.993  0.2063  0.2194  0.7195
18410TIP3   OH276720   0.829   2.016   3.520  0.4340 -0.0632  0.3876
18410TIP3    H176721   0.797   2.006   3.610 -1.3394 -0.6112 -0.2732
18410TIP3    H276722   0.761   1.977   3.465  0.9430  1.2563 -1.2750
18411TIP3   OH276723   4.927   5.261  15.603  0.2659  0.0660 -0.2403
18411TIP3    H176724   4.930   5.270  15.507  0.8099  2.0873 -0.0750
18411TIP3    H276725   4.995   5.196  15.623  0.1451 -0.3818 -1.2149
18412TIP3   OH276726   3.371   5.948   5.731 -0.2654 -0.1221  0.2242
18412TIP3    H176727   3.463   5.922   5.724 -0.1602  0.1398  0.6526
18412TIP3    H276728   3.333   5.923   5.646  0.1524 -0.4093  0.1174
18413TIP3   OH276729   1.842   5.999   0.148 -0.4329  0.4194 -0.3647
18413TIP3    H176730   1.774   6.007   0.081 -0.5666  0.3239 -0.2421
18413TIP3    H276731   1.793   5.993   0.231 -0.2696  0.5392 -0.2591
18414TIP3   OH276732   1.759   5.755  16.980 -0.3885 -0.1823  1.1701
18414TIP3    H176733   1.759   5.661  16.963  0.3818 -0.7886  4.0316
18414TIP3    H276734   1.821   5.766  17.051  0.9964  2.8049 -0.3409
18415TIP3   OH276735   1.610   1.344  15.152 -0.0317 -0.2151  0.5162
18415TIP3    H176736   1.626   1.426  15.105 -3.0284 -0.6991 -1.5814
18415TIP3    H276737   1.579   1.372  15.238 -0.9476  0.8821 -0.1442
18416TIP3   OH276738   3.652   2.532  13.997  0.0110  0.0847 -0.1948
18416TIP3    H176739   3.611   2.568  13.919 -0.4046 -0.1962 -0.1106
18416TIP3    H276740   3.640   2.437  13.988  1.6718 -0.1165 -0.7565
18417TIP3   OH276741   4.927   2.560   2.769 -0.0141 -0.3927 -0.0305
18417TIP3    H176742   4.937   2.655   2.764  2.2204 -0.5272  0.9434
18417TIP3    H276743   4.845   2.547   2.817 -0.4612  1.0299 -0.3691
18418TIP3   OH276744   5.675   5.496   4.941 -0.1825  0.0535 -0.2071
18418TIP3    H176745   5.666   5.583   4.980  0.5487 -0.5971  1.5392
18418TIP3    H276746   5.589   5.455   4.955 -0.8691  0.7938 -1.9520
18419TIP3   OH276747   6.332   5.512  14.685 -0.2316 -0.3111  0.5464
18419TIP3    H176748   6.290   5.567  14.752 -1.7390  0.9924 -1.3672
18419TIP3    H276749   6.263   5.451  14.657  0.6482 -1.4479  0.7645
18420TIP3   OH276750   0.788   4.413  16.221  0.0238  0.2883 -0.4151
18420TIP3    H176751   0.717   4.375  16.273  0.6294  0.8215  0.8354
18420TIP3    H276752   0.751   4.494  16.185 -1.3121 -1.4080 -3.1832
18421TIP3   OH276753   2.041   2.912  11.415  0.0541 -0.0063 -0.0348
18421TIP3    H176754   1.975   2.846  11.435  0.1574  0.4240  1.8866
18421TIP3    H276755   2.014   2.948  11.330 -0.6728 -1.6478 -0.5449
18422TIP3   OH276756   6.526   4.571   1.491 -0.2597  0.5457 -0.0275
18422TIP3    H176757   6.565   4.499   1.541 -0.1039 -0.1994 -1.1787
18422TIP3    H276758   6.561   4.559   1.402  0.1093  2.3035 -0.1486
18423TIP3   OH276759   4.466   0.620   6.466  0.4987 -0.4233 -0.1124
18423TIP3    H176760   4.514   0.689   6.512 -2.2119  1.6383 -0.1170
18423TIP3    H276761   4.453   0.552   6.532  1.8050 -0.2021  0.3968
18424TIP3   OH276762   5.949   2.751   5.632 -0.0077 -0.1130  0.7151
18424TIP3    H176763   5.868   2.750   5.582 -0.0653  0.5838  0.7880
18424TIP3    H276764   6.010   2.697   5.580  0.7767  2.7216 -1.5719
18425TIP3   OH276765   5.281   6.566  10.686  0.2151 -1.0689 -0.6594
18425TIP3    H176766   5.283   6.473  10.664  2.1701 -1.0144 -0.8854
18425TIP3    H276767   5.371   6.587  10.710  0.1015  1.0644 -1.8315
18426TIP3   OH276768   2.786   1.040   3.239  1.1069 -0.0286 -0.2264
18426TIP3    H176769   2.860   1.102   3.236  1.2372 -0.2145 -1.6191
18426TIP3    H276770   2.729   1.068   3.167 -0.0001 -0.1188  0.6020
18427TIP3   OH276771   5.589   1.666  14.548  0.5313 -0.3915  0.5401
18427TIP3    H176772   5.661   1.692  14.491  0.3701 -0.5067  0.2835
18427TIP3    H276773   5.628   1.602  14.608  0.7228 -0.1990  0.6229
18428TIP3   OH276774   3.893   6.371   2.116 -0.4461  0.3649 -0.3143
18428TIP3    H176775   3.942   6.356   2.197  0.8494 -0.7959 -1.2509
18428TIP3    H276776   3.880   6.465   2.112  1.3944  0.6796  0.1983
18429TIP3   OH276777   0.152   0.905  13.555  0.0847  0.0214  0.7767
18429TIP3    H176778   0.167   0.999  13.553  0.5317 -0.0587  0.0419
18429TIP3    H276779   0.077   0.892  13.497  1.4496 -0.3081 -0.9849
18430TIP3   OH276780   4.922   0.801   2.630 -0.8518 -0.1663  0.1371
18430TIP3    H176781   4.917   0.722   2.684  0.1816 -0.9933 -0.9182
18430TIP3    H276782   4.943   0.871   2.691  3.7003 -1.5776  0.5599
18431TIP3   OH276783   5.841   4.060  15.114  0.2559  0.5165 -0.3525
18431TIP3    H176784   5.804   3.979  15.148  2.0524 -0.2531 -0.1447
18431TIP3    H276785   5.785   4.083  15.040 -0.6220 -0.5872 -0.0529
18432TIP3   OH276786   0.741   5.268  11.871  0.9345  0.2696 -0.2581
18432TIP3    H176787   0.693   5.293  11.792  0.4881  1.7288  0.4355
18432TIP3    H276788   0.688   5.302  11.943  0.9725 -1.6447  0.7273
18433TIP3   OH276789   3.842   5.892   4.153 -0.0370  0.2564  0.1261
18433TIP3    H176790   3.905   5.898   4.081 -0.0537  0.3219  0.1170
18433TIP3    H276791   3.757   5.887   4.109 -0.1606  1.6932  0.1609
18434TIP3   OH276792   4.996   6.595  15.945  0.2774  0.1529 -0.5644
18434TIP3    H176793   5.053   6.654  15.897  1.8618  0.2533  1.3078
18434TIP3    H276794   4.996   6.514  15.894  0.6547  0.7218 -1.4939
18435TIP3   OH276795   0.110   3.488  12.858 -0.5020 -0.3353  0.3601
18435TIP3    H176796   0.040   3.553  12.865 -1.2712 -1.2161  1.0442
18435TIP3    H276797   0.172   3.512  12.926  0.4763  1.1279 -0.9785
18436TIP3   OH276798   3.177   1.844   4.668  0.0769 -0.8004 -0.1778
18436TIP3    H176799   3.119   1.838   4.592 -0.0039 -0.1794 -0.1683
18436TIP3    H276800   3.137   1.787   4.733 -1.4354  0.8169  0.4065
18437TIP3   OH276801   5.485   5.169   2.232 -0.4001  0.1767  0.4558
18437TIP3    H176802   5.441   5.145   2.313 -1.7447 -1.2423 -0.6292
18437TIP3    H276803   5.414   5.192   2.172  0.4733  0.0434 -0.6728
18438TIP3   OH276804   3.441   1.531  13.387  0.0707 -0.0264  0.2810
18438TIP3    H176805   3.384   1.481  13.329  1.2426 -0.3625 -0.6044
18438TIP3    H276806   3.450   1.616  13.345  1.7664 -0.6102 -0.6263
18439TIP3   OH276807   0.117   4.502   1.331  0.6584  0.5980  0.0138
18439TIP3    H176808   0.071   4.456   1.261  0.8686 -0.7359  0.7148
18439TIP3    H276809   0.155   4.579   1.289  0.4381  0.0446 -1.2379
18440TIP3   OH276810   2.783   4.471  15.658  0.3326 -0.5540 -0.2415
18440TIP3    H176811   2.747   4.452  15.571  1.2261 -0.7604 -0.5737
18440TIP3    H276812   2.734   4.548  15.688  0.0552 -0.4515 -0.9439
18441TIP3   OH276813   3.258   1.362   1.321 -0.2270  0.7390  0.4990
18441TIP3    H176814   3.296   1.342   1.406 -1.4972  1.5295  1.2849
18441TIP3    H276815   3.316   1.428   1.283  1.6494 -1.2557 -0.3155
18442TIP3   OH276816   3.288   2.387   3.695 -0.3869  0.5435 -0.0405
18442TIP3    H176817   3.220   2.334   3.655  0.0728  0.6478 -0.9899
18442TIP3    H276818   3.365   2.330   3.697  0.0220  1.0576 -0.7724
18443TIP3   OH276819   1.410   6.480  15.617 -0.5620 -0.9036 -0.0418
18443TIP3    H176820   1.505   6.469  15.626 -0.3668 -0.4894 -1.3573
18443TIP3    H276821   1.384   6.411  15.556 -1.4497 -2.2470  1.7689
18444TIP3   OH276822   5.575   3.498  13.721  0.3587 -0.4556  0.0565
18444TIP3    H176823   5.554   3.485  13.628  0.9163  0.5864 -0.2318
18444TIP3    H276824   5.508   3.558  13.752  0.4507 -0.4340  0.2103
18445TIP3   OH276825   6.292   0.150  11.002 -0.4245  0.0281  0.5333
18445TIP3    H176826   6.246   0.067  10.992  1.9654 -1.4522  0.9990
18445TIP3    H276827   6.233   0.204  11.055 -2.3550 -1.0584 -0.3938
18446TIP3   OH276828   0.520   2.304   1.041  0.3522 -0.1244 -0.1903
18446TIP3    H176829   0.469   2.244   1.096 -0.3703 -0.8720 -1.5987
18446TIP3    H276830   0.522   2.386   1.090 -1.1324 -0.4551  0.4821
18447TIP3   OH276831   3.494   2.396  13.388 -0.2514 -0.1565  0.2926
18447TIP3    H176832   3.493   2.482  13.430  1.0799  0.6959 -1.3164
18447TIP3    H276833   3.574   2.354  13.420 -0.1393 -0.2027 -0.0424
18448TIP3   OH276834   3.482   6.078   2.029  0.4421 -0.6489 -0.5469
18448TIP3    H176835   3.527   5.999   2.057  0.3401 -0.8587 -0.9651
18448TIP3    H276836   3.552   6.144   2.021  0.1525  0.2439  2.9175
18449TIP3   OH276837   4.429   0.215   0.103 -0.1818  0.3942  0.5731
18449TIP3    H176838   4.501   0.259   0.057 -0.5885  0.5143  0.0389
18449TIP3    H276839   4.350   0.246   0.059 -0.6735  1.4082  2.0880
18450TIP3   OH276840   1.245   0.934  12.174  0.4782 -0.4477  0.3136
18450TIP3    H176841   1.229   0.922  12.268  2.4275  0.4808  0.8089
18450TIP3    H276842   1.297   0.858  12.149 -1.5492 -1.6499 -0.4898
18451TIP3   OH276843   4.297   0.372  15.613 -0.2499  0.2080 -0.0212
18451TIP3    H176844   4.257   0.457  15.596 -0.5346  0.0159 -0.3520
18451TIP3    H276845   4.255   0.341  15.693 -1.5223 -0.4234 -0.8852
18452TIP3   OH276846   4.848   5.257   4.145  0.4570 -0.3608 -0.0138
18452TIP3    H176847   4.863   5.162   4.153 -0.4431 -0.4175  1.4817
18452TIP3    H276848   4.809   5.281   4.229  0.4109  1.3003 -0.4915
18453TIP3   OH276849   6.098   5.815  12.301 -0.0949  0.0495  0.1285
18453TIP3    H176850   6.158   5.879  12.341  0.2245 -0.2119  0.0637
18453TIP3    H276851   6.023   5.813  12.362  0.1777  0.0077  0.4666
18454TIP3   OH276852   4.801   0.255  16.555  0.2289  0.4977  0.5847
18454TIP3    H176853   4.881   0.241  16.605 -1.2115  0.8420  3.1542
18454TIP3    H276854   4.761   0.168  16.550 -0.6054  0.7908  1.8528
18455TIP3   OH276855   0.176   5.428   5.540 -0.0296  0.3398 -0.3300
18455TIP3    H176856   0.223   5.346   5.551  0.7836  0.3845 -2.7285
18455TIP3    H276857   0.215   5.488   5.603 -0.2737 -0.9567  1.0865
18456TIP3   OH276858   1.120   0.411   1.023  0.2229 -0.8938  0.0253
18456TIP3    H176859   1.157   0.382   0.939 -1.7900 -3.1922 -0.2035
18456TIP3    H276860   1.027   0.425   1.004  0.2521  1.3699  1.2850
18457TIP3   OH276861   5.219   5.449  16.839 -0.6721  0.0279 -0.2767
18457TIP3    H176862   5.145   5.484  16.887  0.7379  0.5528  1.6177
18457TIP3    H276863   5.252   5.523  16.788 -1.4474 -0.2323 -1.2032
18458TIP3   OH276864   6.482   2.262  16.371 -0.4523  0.1208 -0.2007
18458TIP3    H176865   6.572   2.234  16.386  0.2909  1.3676 -1.9956
18458TIP3    H276866   6.444   2.269  16.459  0.2141 -3.3379  0.4945
18459TIP3   OH276867   1.594   0.105  16.925 -0.3412 -0.4546  0.4565
18459TIP3    H176868   1.542   0.100  17.005 -0.6697  0.5243  0.3206
18459TIP3    H276869   1.680   0.136  16.954  0.0790 -1.7357  0.6341
18460TIP3   OH276870   2.882   6.312  13.767  0.2876  1.3893 -0.2256
18460TIP3    H176871   2.810   6.313  13.704 -0.9601  1.9879  1.1817
18460TIP3    H276872   2.898   6.219  13.783 -0.0248  1.2521 -0.6807
18461TIP3   OH276873   3.899   1.527  14.883 -0.1614 -0.2719  0.1689
18461TIP3    H176874   3.831   1.502  14.821  1.1923 -0.1784 -1.4172
18461TIP3    H276875   3.980   1.495  14.845  0.7754  0.1139  1.7262
18462TIP3   OH276876   2.753   4.195  11.896 -0.1663  0.1103 -0.1204
18462TIP3    H176877   2.767   4.149  11.814 -0.5853 -0.7164  0.2629
18462TIP3    H276878   2.668   4.163  11.927  0.0501  0.3150  0.6966
18463TIP3   OH276879   4.493   0.665   0.932 -0.1121  0.6948 -0.1253
18463TIP3    H176880   4.537   0.687   0.850  2.3601  0.6438  1.0822
18463TIP3    H276881   4.483   0.749   0.977 -2.7959  0.9331 -0.9921
18464TIP3   OH276882   4.371   2.517   4.294 -0.1493 -0.7221  1.2638
18464TIP3    H176883   4.337   2.450   4.235  1.6222  0.5699 -1.4558
18464TIP3    H276884   4.317   2.594   4.276  1.1690  0.0281  0.3216
18465TIP3   OH276885   0.926   6.662   5.018  0.1779  0.3497  0.2997
18465TIP3    H176886   0.934   6.595   5.086  1.3665 -1.4413 -1.4945
18465TIP3    H276887   0.988   6.730   5.043 -1.1019  0.9248  2.1963
18466TIP3   OH276888   3.643   4.543  11.938  0.6376 -0.2288 -0.3967
18466TIP3    H176889   3.549   4.526  11.946  0.5256  1.0581  1.6454
18466TIP3    H276890   3.647   4.628  11.894  0.8444 -0.2755 -0.4666
18467TIP3   OH276891   4.171   6.363   5.075  0.3523 -0.3039 -0.4141
18467TIP3    H176892   4.189   6.285   5.128  0.3459  0.3956  0.6594
18467TIP3    H276893   4.175   6.333   4.985 -4.1494 -2.6414 -0.1264
18468TIP3   OH276894   0.118   0.599  15.108  0.1901 -0.3076 -0.3373
18468TIP3    H176895   0.070   0.542  15.168 -0.0830 -0.1521 -0.4079
18468TIP3    H276896   0.142   0.542  15.035 -0.5129 -0.2256 -0.6441
18469TIP3   OH276897   3.428   6.008  11.820  0.0811 -0.6581 -0.1342
18469TIP3    H176898   3.393   5.928  11.781 -0.5788 -0.2961 -0.2843
18469TIP3    H276899   3.411   6.076  11.755  2.4358 -0.7144 -0.9165
18470TIP3   OH276900   1.427   2.259   2.405  0.0256  0.0592 -0.2771
18470TIP3    H176901   1.354   2.197   2.401 -0.0270  0.1372 -0.5364
18470TIP3    H276902   1.443   2.283   2.314 -0.1261  0.6355 -0.1514
18471TIP3   OH276903   4.079   2.822  11.621  0.3956 -0.6769  0.7493
18471TIP3    H176904   4.039   2.768  11.689 -1.2060  1.3639  1.5307
18471TIP3    H276905   4.126   2.890  11.669 -0.6896  0.7525 -0.1188
18472TIP3   OH276906   1.264   5.544   5.643 -0.2915  0.1971 -0.2068
18472TIP3    H176907   1.238   5.628   5.680 -0.7200  0.4043 -0.9689
18472TIP3    H276908   1.244   5.551   5.550  2.0626  0.1916 -0.7767
18473TIP3   OH276909   3.264   4.529   3.065  0.0666  0.2067  0.4455
18473TIP3    H176910   3.261   4.502   2.973  0.1438 -0.9997  0.7883
18473TIP3    H276911   3.328   4.600   3.067  0.7356 -0.3670 -0.2741
18474TIP3   OH276912   4.561   0.162   1.935  0.0951 -0.0734 -0.4588
18474TIP3    H176913   4.643   0.205   1.959 -0.3537  0.4721  0.1428
18474TIP3    H276914   4.519   0.143   2.019  0.5874 -2.3461 -0.6665
18475TIP3   OH276915   3.890   6.706   3.482  0.1737  0.3537 -0.0402
18475TIP3    H176916   3.887   6.795   3.515 -0.1308  0.5949 -0.6914
18475TIP3    H276917   3.875   6.651   3.558  0.6408  0.8468  0.4134
18476TIP3   OH276918   0.396   1.537  13.664 -0.4642 -0.1502 -0.1693
18476TIP3    H176919   0.350   1.620  13.652  0.3408  0.4392  0.7081
18476TIP3    H276920   0.483   1.553  13.628 -0.3148 -0.6363 -0.0206
18477TIP3   OH276921   3.296   5.863  14.213  0.2396  0.0943 -0.2709
18477TIP3    H176922   3.233   5.922  14.255 -0.6759 -1.5357  0.7822
18477TIP3    H276923   3.296   5.785  14.269  3.9856  0.3673  0.3622
18478TIP3   OH276924   5.120   5.781  16.708  0.2416  0.2980  0.0825
18478TIP3    H176925   5.102   5.852  16.646 -0.1722 -0.2432 -0.4180
18478TIP3    H276926   5.183   5.725  16.664  1.9814  1.2942  1.1875
18479TIP3   OH276927   2.954   6.598   0.742  0.0328 -0.0094 -0.4808
18479TIP3    H176928   2.993   6.527   0.793  0.2442  1.8350  2.1692
18479TIP3    H276929   2.869   6.564   0.714 -0.1708 -1.1034  1.3233
18480TIP3   OH276930   1.499   0.295   4.650 -0.1561 -0.0200  0.3532
18480TIP3    H176931   1.513   0.212   4.604  1.4181  0.0762  0.5909
18480TIP3    H276932   1.463   0.270   4.735 -0.5835 -0.3879  0.0669
18481TIP3   OH276933   3.957   4.366   3.161  0.4245  0.0049  0.5412
18481TIP3    H176934   3.937   4.408   3.077 -0.4928  0.5792  1.0261
18481TIP3    H276935   3.975   4.275   3.139 -0.0671  0.0922 -0.2555
18482TIP3   OH276936   6.802   3.731  15.863  0.3258 -0.7020 -0.1555
18482TIP3    H176937   6.770   3.671  15.795 -0.7700  0.4113 -0.6666
18482TIP3    H276938   6.746   3.713  15.939 -0.0602 -0.2879 -0.3365
18483TIP3   OH276939   6.482   2.980   1.322 -0.9375  0.3385  0.8304
18483TIP3    H176940   6.510   2.890   1.341 -2.5225 -0.4878 -0.4575
18483TIP3    H276941   6.526   3.033   1.388  2.7828 -0.8897 -0.3983
18484TIP3   OH276942   1.154   3.054  12.080 -0.9509  0.1828 -0.0847
18484TIP3    H176943   1.135   2.976  12.027 -2.0759 -1.1029  2.0920
18484TIP3    H276944   1.133   3.128  12.022 -1.4310 -1.1216 -1.6504
18485TIP3   OH276945   1.363   3.014   0.401 -0.1109 -0.2658  0.3074
18485TIP3    H176946   1.451   3.041   0.378  0.0517 -1.4239 -0.5534
18485TIP3    H276947   1.366   2.918   0.401 -1.4562 -0.3401 -0.1430
18486TIP3   OH276948   3.849   5.499   1.512 -0.4012  0.3871  0.0143
18486TIP3    H176949   3.785   5.511   1.442 -0.1399  1.0572 -0.1150
18486TIP3    H276950   3.925   5.549   1.484 -0.1454  0.3252  0.5863
18487TIP3   OH276951   4.861   5.032   0.723  0.4306 -1.2105  0.3015
18487TIP3    H176952   4.804   4.955   0.727 -1.5740  0.0219 -2.0178
18487TIP3    H276953   4.801   5.106   0.718  2.3045  0.5207  1.5908
18488TIP3   OH276954   2.424   2.329   1.355  0.2391 -0.2032 -0.4400
18488TIP3    H176955   2.432   2.242   1.316  0.3549  0.0804 -1.0618
18488TIP3    H276956   2.512   2.366   1.352  0.5187 -0.6667  1.2907
18489TIP3   OH276957   6.803   0.823   0.821 -0.2327 -0.0039 -0.5237
18489TIP3    H176958   6.756   0.904   0.799  0.8804  0.9833  0.5764
18489TIP3    H276959   6.893   0.840   0.793  0.3508 -0.2381  1.1164
18490TIP3   OH276960   0.461   4.078   0.102  0.0911  0.3881 -0.0894
18490TIP3    H176961   0.376   4.039   0.123 -0.4465  0.9905 -1.0465
18490TIP3    H276962   0.449   4.172   0.116  0.7946  0.4125  0.3784
18491TIP3   OH276963   3.095   0.172  10.892 -0.2649 -0.1195  0.9495
18491TIP3    H176964   3.033   0.140  10.826  0.0232 -0.3980  0.8103
18491TIP3    H276965   3.046   0.168  10.974 -0.2990 -0.7516  0.9071
18492TIP3   OH276966   0.891   1.134  14.899  0.5607  0.2861 -0.3628
18492TIP3    H176967   0.964   1.195  14.900  1.0848 -0.3205  0.8150
18492TIP3    H276968   0.928   1.051  14.870  0.4121 -0.0776  0.4437
18493TIP3   OH276969   3.369   2.490  15.716  0.2702 -0.6399 -0.2200
18493TIP3    H176970   3.405   2.552  15.652  0.5015 -0.4675  0.0723
18493TIP3    H276971   3.369   2.539  15.798  0.2267 -0.9497 -0.0364
18494TIP3   OH276972   1.716   3.950   5.330  0.1886  0.1039  0.2571
18494TIP3    H176973   1.690   3.877   5.274 -2.3667  0.9742  0.1802
18494TIP3    H276974   1.643   3.960   5.391  1.4914  1.1989  1.7197
18495TIP3   OH276975   3.004   2.990  15.412 -0.0295 -0.0801  0.3811
18495TIP3    H176976   3.077   3.027  15.362 -0.5159  0.0410 -0.2530
18495TIP3    H276977   2.928   3.043  15.387 -0.3245 -0.1747  1.0711
18496TIP3   OH276978   4.535   0.202  15.540 -0.0946  0.0913  0.4804
18496TIP3    H176979   4.455   0.242  15.573 -0.8088  0.5240 -1.6405
18496TIP3    H276980   4.600   0.220  15.608 -2.0338 -1.4754  2.9248
18497TIP3   OH276981   6.384   1.711  17.082 -0.4478  0.3433 -0.5080
18497TIP3    H176982   6.307   1.663  17.052  1.6050 -2.3246 -1.9436
18497TIP3    H276983   6.402   1.675  17.169 -0.6624  0.7830 -0.2790
18498TIP3   OH276984   0.777   5.288  11.282  0.1058  0.1559  0.2256
18498TIP3    H176985   0.821   5.248  11.357 -0.2230 -2.1083 -0.6946
18498TIP3    H276986   0.697   5.325  11.319 -0.0249 -0.8685  1.0338
18499TIP3   OH276987   5.883   6.281  16.815 -0.1675 -0.1362  0.0671
18499TIP3    H176988   5.822   6.270  16.887  0.8911 -0.3056  0.9734
18499TIP3    H276989   5.949   6.213  16.829 -0.4103 -0.7757 -1.5910
18500TIP3   OH276990   2.151   2.395  14.588  0.0339  0.6123  0.1692
18500TIP3    H176991   2.119   2.332  14.652  2.4393 -0.1445  0.7352
18500TIP3    H276992   2.083   2.397  14.520  0.1999 -3.2576 -0.3033
18501TIP3   OH276993   4.553   1.528   1.041  0.1654  0.7510  0.1331
18501TIP3    H176994   4.555   1.433   1.027 -0.3520  0.8746 -0.8599
18501TIP3    H276995   4.592   1.565   0.962 -1.4827  1.4226 -0.4039
18502TIP3   OH276996   4.540   6.752   2.615  0.0062 -0.1996  1.2825
18502TIP3    H176997   4.461   6.788   2.575  0.8332  0.3630  0.0609
18502TIP3    H276998   4.533   6.773   2.708 -0.2390  1.8587  0.8511
18503TIP3   OH276999   1.307   6.632   1.435 -0.1751 -0.6839  0.8279
18503TIP3    H177000   1.274   6.687   1.364  0.3994 -1.5406 -0.1312
18503TIP3    H277001   1.265   6.547   1.422  0.8139 -1.1916  0.8007
18504TIP3   OH277002   3.237   1.582   2.246  0.2000 -0.3907  0.2222
18504TIP3    H177003   3.256   1.502   2.197  0.6616 -0.8354  1.1069
18504TIP3    H277004   3.323   1.624   2.257  0.0681 -0.1761  0.4422
18505TIP3   OH277005   1.492   2.780  13.376 -0.3507 -0.2088  0.1390
18505TIP3    H177006   1.519   2.857  13.427  0.7767 -1.6704  1.8555
18505TIP3    H277007   1.401   2.765  13.402 -0.7235  0.7763 -0.5450
18506TIP3   OH277008   4.274   4.847   1.514  0.0601 -0.2034  0.6582
18506TIP3    H177009   4.362   4.876   1.491 -0.3766  0.1862 -0.5993
18506TIP3    H277010   4.223   4.927   1.523 -0.1705 -0.4236  1.3967
18507TIP3   OH277011   5.848   1.462  14.498  0.5989  0.0815 -0.1733
18507TIP3    H177012   5.858   1.490  14.407 -0.5006  1.9461  0.2250
18507TIP3    H277013   5.916   1.510  14.545  0.6984 -0.3314  0.1139
18508TIP3   OH277014   5.994   3.883  14.539 -0.6138  0.0265  0.0587
18508TIP3    H177015   6.001   3.912  14.448  1.0411  0.7038  0.3682
18508TIP3    H277016   5.902   3.862  14.550 -1.1780  1.5346 -1.3055
18509TIP3   OH277017   5.015   0.347  16.228 -0.0324 -0.0457 -0.3611
18509TIP3    H177018   5.011   0.405  16.304 -1.7360 -0.6615  0.0622
18509TIP3    H277019   4.923   0.335  16.202  0.5131  0.2791 -2.6262
18510TIP3   OH277020   4.263   4.931   4.446 -0.1107 -0.4882  0.4788
18510TIP3    H177021   4.342   4.960   4.400 -1.6426  0.6813 -1.5966
18510TIP3    H277022   4.283   4.841   4.472  1.0744 -1.0961 -2.1626
18511TIP3   OH277023   5.426   1.743  13.448 -0.4425 -0.3709  0.1379
18511TIP3    H177024   5.400   1.748  13.356  0.3429 -0.7541 -0.1115
18511TIP3    H277025   5.428   1.649  13.468 -1.3390 -0.2657  0.7621
18512TIP3   OH277026   3.511   2.244   3.640  0.3161 -0.3591 -0.2589
18512TIP3    H177027   3.563   2.165   3.658  0.8534  0.2769  1.1967
18512TIP3    H277028   3.501   2.246   3.545  0.3574 -2.1278 -0.3276
18513TIP3   OH277029   5.615   0.183   5.021  0.5593 -0.1523 -0.7519
18513TIP3    H177030   5.568   0.189   5.104  0.3069 -3.9290 -0.4290
18513TIP3    H277031   5.553   0.214   4.955 -0.2523  0.2890  0.1963
18514TIP3   OH277032   6.448   1.255  13.711  0.0148 -0.0460 -0.5406
18514TIP3    H177033   6.372   1.209  13.675  0.2487 -0.4713 -0.4973
18514TIP3    H277034   6.466   1.210  13.794  0.2076  0.1666 -0.4669
18515TIP3   OH277035   4.653   5.542  12.699 -0.1167  0.0100  0.1778
18515TIP3    H177036   4.726   5.508  12.646 -0.4927  1.1332 -1.0972
18515TIP3    H277037   4.591   5.577  12.635 -1.4620 -0.2772  1.2882
18516TIP3   OH277038   6.589   0.951  16.226  0.2932 -0.0684 -0.6425
18516TIP3    H177039   6.671   1.000  16.232 -0.3939  1.2959 -1.6197
18516TIP3    H277040   6.589   0.914  16.138  0.5106 -1.3096 -0.1304
18517TIP3   OH277041   4.157   2.656   1.393 -0.1509  0.2544  0.2593
18517TIP3    H177042   4.199   2.663   1.308 -1.0118  1.7268 -0.0710
18517TIP3    H277043   4.070   2.620   1.375  0.5439 -1.8939  0.8422
18518TIP3   OH277044   3.544   6.794   2.565  0.4005 -0.4958  0.2504
18518TIP3    H177045   3.502   6.709   2.579  1.0203 -1.0104 -0.9485
18518TIP3    H277046   3.487   6.838   2.502  1.0918 -0.7819 -0.5816
18519TIP3   OH277047   0.594   3.357   1.088  0.2251 -0.1544 -0.0923
18519TIP3    H177048   0.593   3.419   1.016 -0.5384  2.0707  1.7186
18519TIP3    H277049   0.680   3.368   1.128  0.2273 -0.5726  0.0274
18520TIP3   OH277050   0.687   5.282  16.631  0.1412 -0.0692 -0.2823
18520TIP3    H177051   0.765   5.338  16.626  1.4136 -1.7499  0.0101
18520TIP3    H277052   0.621   5.337  16.672  1.5541  1.0156  0.6287
18521TIP3   OH277053   1.644   6.472   1.134  0.3920 -0.2467  0.9734
18521TIP3    H177054   1.721   6.418   1.154  1.2486  0.7433  0.4439
18521TIP3    H277055   1.679   6.544   1.082 -1.2678 -1.1205 -1.5618
18522TIP3   OH277056   4.617   1.129   2.890  0.1755 -0.4325  0.5380
18522TIP3    H177057   4.580   1.123   2.802  0.4982  1.4298  0.2295
18522TIP3    H277058   4.711   1.139   2.875 -0.0146  2.9237  0.8561
18523TIP3   OH277059   6.155   4.364   0.603 -0.2777  0.0156 -0.0095
18523TIP3    H177060   6.213   4.340   0.530 -0.7032  0.5208 -0.5233
18523TIP3    H277061   6.138   4.281   0.649 -0.0048 -0.3070 -0.4812
18524TIP3   OH277062   1.925   2.519  15.001  0.2753  0.0725  0.2897
18524TIP3    H177063   1.859   2.467  14.956  0.6638  0.4577 -0.7473
18524TIP3    H277064   1.875   2.582  15.053 -0.1780 -0.0558  0.0096
18525TIP3   OH277065   3.815   2.029  16.668 -0.2475 -0.0092  0.1778
18525TIP3    H177066   3.783   2.025  16.577 -1.1313  1.9770  0.3459
18525TIP3    H277067   3.756   1.971  16.716 -0.8528  0.2151 -0.2630
18526TIP3   OH277068   1.799   5.321  15.039  0.1935 -0.4959 -0.3059
18526TIP3    H177069   1.768   5.379  14.969  2.4699  0.2860 -0.7255
18526TIP3    H277070   1.720   5.301  15.089 -0.9453  1.7076 -1.0756
18527TIP3   OH277071   3.339   3.619  13.109  0.1877  0.0860  0.5568
18527TIP3    H177072   3.301   3.657  13.189 -0.3175  2.3032 -0.6611
18527TIP3    H277073   3.280   3.646  13.039  0.4159 -2.1288 -0.5906
18528TIP3   OH277074   2.615   4.847  10.544 -0.0826 -0.3542 -0.1400
18528TIP3    H177075   2.530   4.892  10.543 -0.3439 -0.8456 -0.5760
18528TIP3    H277076   2.677   4.913  10.512 -0.4088 -0.2029 -0.4655
18529TIP3   OH277077   4.920   0.242   1.854 -0.0347  0.1350  0.1317
18529TIP3    H177078   4.979   0.280   1.919 -0.3565 -0.1695  0.6112
18529TIP3    H277079   4.896   0.157   1.891 -2.3791  1.0810  0.9587
18530TIP3   OH277080   5.916   4.925  11.417  0.2927 -0.1224 -0.3061
18530TIP3    H177081   5.909   4.995  11.482 -0.9033  0.8252 -1.3868
18530TIP3    H277082   5.977   4.958  11.352 -0.6710  0.1741 -1.0887
18531TIP3   OH277083   5.133   1.202   3.937 -0.2988 -0.2076  0.0354
18531TIP3    H177084   5.092   1.283   3.906  1.0904  0.7044  0.4597
18531TIP3    H277085   5.194   1.177   3.867 -0.3606 -0.6025  0.1203
18532TIP3   OH277086   2.958   3.093   2.906  0.1237  0.4232  0.5287
18532TIP3    H177087   2.900   3.017   2.903  1.1641 -0.3774  0.3794
18532TIP3    H277088   2.916   3.152   2.969 -0.6240 -0.3269  0.7555
18533TIP3   OH277089   5.879   0.991  16.316  0.0314 -0.0734  0.1403
18533TIP3    H177090   5.877   1.038  16.233  0.1542  0.4557  0.4339
18533TIP3    H277091   5.906   0.902  16.292  0.3777  0.1588 -0.3487
18534TIP3   OH277092   5.759   2.568   5.186 -0.0249  0.7785 -0.2502
18534TIP3    H177093   5.746   2.558   5.092  0.6526  1.5836 -0.4370
18534TIP3    H277094   5.672   2.552   5.224 -0.2436  0.1796 -0.9827
18535TIP3   OH277095   6.001   2.333   1.395 -0.2661 -0.4630 -0.1708
18535TIP3    H177096   5.982   2.240   1.382 -2.2165 -0.1626  0.2331
18535TIP3    H277097   5.917   2.376   1.381  0.5624  1.2282 -0.1270
18536TIP3   OH277098   3.086   2.239  10.921 -0.2988 -0.4785 -0.6179
18536TIP3    H177099   3.069   2.186  10.843 -1.5083 -0.1886 -0.5656
18536TIP3    H277100   3.095   2.329  10.888 -2.4848 -0.0953 -0.2798
18537TIP3   OH277101   4.985   0.411  17.197 -0.0066  0.3205  0.6551
18537TIP3    H177102   5.061   0.469  17.206 -0.0609  0.3520  0.9221
18537TIP3    H277103   4.933   0.428  17.275 -0.2559  0.2513  0.5024
18538TIP3   OH277104   3.104   3.052   4.122 -0.1449  0.2485  0.5088
18538TIP3    H177105   3.190   3.025   4.088 -0.3877 -1.0668  0.8992
18538TIP3    H277106   3.044   3.037   4.049 -0.2319  0.0398  0.6238
18539TIP3   OH277107   0.213   5.390  13.076 -0.2935  0.2946  0.0926
18539TIP3    H177108   0.120   5.392  13.097 -0.3983 -3.8699  1.0631
18539TIP3    H277109   0.252   5.338  13.147  2.0591 -1.2643 -2.1339
18540TIP3   OH277110   4.384   4.230  14.585 -0.3977  0.0269  0.2122
18540TIP3    H177111   4.329   4.217  14.662 -2.5426 -1.2337 -1.4187
18540TIP3    H277112   4.366   4.319  14.558 -1.2132 -0.1774  0.0463
18541TIP3   OH277113   4.026   6.102  13.614  0.2787  0.0313  0.0709
18541TIP3    H177114   4.022   6.110  13.519  0.7687 -1.0109 -0.0478
18541TIP3    H277115   3.937   6.074  13.639 -0.1612  1.3308  0.0495
18542TIP3   OH277116   4.155   0.617  13.655 -0.3517 -0.0538  0.0577
18542TIP3    H177117   4.160   0.545  13.716 -1.3246  0.4297  0.7365
18542TIP3    H277118   4.218   0.682  13.688 -0.5931  0.0440  0.3277
18543TIP3   OH277119   3.691   3.802   2.469  0.0905 -0.2311 -0.1277
18543TIP3    H177120   3.637   3.870   2.429 -0.5522 -0.4780  0.2923
18543TIP3    H277121   3.645   3.781   2.551  0.8315 -0.4496  0.2373
18544TIP3   OH277122   6.463   3.895  14.396 -0.3597  0.0905  0.4958
18544TIP3    H177123   6.396   3.962  14.409 -0.5073 -0.0745  0.5864
18544TIP3    H277124   6.418   3.825  14.349 -0.6696 -0.6838  1.8753
18545TIP3   OH277125   4.307   3.165  15.461  0.1151 -0.3538 -0.2611
18545TIP3    H177126   4.239   3.224  15.428  0.4946 -0.7715 -1.8700
18545TIP3    H277127   4.259   3.095  15.504 -0.3663  0.5976  0.8360
18546TIP3   OH277128   6.157   2.108  15.246 -0.0809 -0.6780  0.3241
18546TIP3    H177129   6.112   2.082  15.166  1.5881  0.6291 -1.1237
18546TIP3    H277130   6.227   2.043  15.256  1.2832  0.5393 -0.7708
18547TIP3   OH277131   3.124   3.835   2.460  0.3224  0.2580 -0.2078
18547TIP3    H177132   3.097   3.761   2.405 -0.8440  1.0620 -0.7639
18547TIP3    H277133   3.092   3.812   2.547 -2.7425  1.3568 -0.9140
18548TIP3   OH277134   5.805   2.770  11.564 -0.1846  0.2288  0.1254
18548TIP3    H177135   5.780   2.767  11.471 -0.0283 -1.3377  0.1009
18548TIP3    H277136   5.803   2.678  11.591  0.4861  0.6033  1.4874
18549TIP3   OH277137   1.962   1.541   5.500 -0.0285 -0.5285 -0.2782
18549TIP3    H177138   1.965   1.628   5.458  0.3509  0.0866  0.9662
18549TIP3    H277139   1.874   1.510   5.483 -0.6560  0.7453  0.4481
18550TIP3   OH277140   0.015   5.020  15.330 -0.0717 -0.2770 -0.9047
18550TIP3    H177141   0.007   4.949  15.266 -1.1362 -0.5425 -0.5016
18550TIP3    H277142  -0.011   4.980  15.413 -0.2692  0.4741 -0.6001
18551TIP3   OH277143   1.018   6.133  13.165  0.4214  0.0747  0.1238
18551TIP3    H177144   1.095   6.161  13.116  0.3561 -1.7058 -1.0808
18551TIP3    H277145   1.052   6.075  13.232  0.3052  0.9277  0.9443
18552TIP3   OH277146   1.370   5.712  14.971  0.7581 -0.0075  0.2045
18552TIP3    H177147   1.434   5.781  14.953  0.1035  0.2764 -1.1485
18552TIP3    H277148   1.379   5.651  14.899  0.9841 -1.1072  1.1368
18553TIP3   OH277149   3.582   6.159   5.207  0.1123  0.5721  0.1373
18553TIP3    H177150   3.650   6.186   5.146  1.6079  0.6188  1.7290
18553TIP3    H277151   3.533   6.239   5.226 -0.9085  0.3917 -1.5818
18554TIP3   OH277152   0.289   4.303  15.620  0.0976  0.0312  0.5720
18554TIP3    H177153   0.195   4.304  15.638  0.3925  0.8251  2.2647
18554TIP3    H277154   0.321   4.224  15.663  0.5125  0.9314  1.9991
18555TIP3   OH277155   1.217   4.369   0.913  0.5831  0.3610 -0.4666
18555TIP3    H177156   1.292   4.427   0.900 -0.6448  2.2083  0.3315
18555TIP3    H277157   1.190   4.385   1.004  0.3851 -1.7386 -0.1021
18556TIP3   OH277158   0.693   2.501  11.105  0.3332 -0.0844  0.3634
18556TIP3    H177159   0.695   2.597  11.111  0.4282 -0.1141  0.8219
18556TIP3    H277160   0.639   2.484  11.028 -1.0547  0.3190  1.2004
18557TIP3   OH277161   6.756   5.372  11.360 -0.3024  0.3846  0.0343
18557TIP3    H177162   6.787   5.330  11.280  2.5438  0.1332  1.1466
18557TIP3    H277163   6.762   5.466  11.342 -0.8370  0.3325 -0.4308
18558TIP3   OH277164   4.983   3.483   2.951  0.5458  0.0405 -0.1478
18558TIP3    H177165   4.926   3.423   2.999  0.5620  0.3479  0.2580
18558TIP3    H277166   5.072   3.451   2.968  0.4867 -0.6386 -1.0512
18559TIP3   OH277167   4.960   0.681   2.243  0.0822  0.4624 -0.0448
18559TIP3    H177168   4.990   0.676   2.152  1.7627  0.3966  0.4870
18559TIP3    H277169   5.025   0.735   2.287 -0.2103 -0.2553  1.3207
18560TIP3   OH277170   4.763   1.082   5.276  0.2106 -0.0417 -0.1343
18560TIP3    H177171   4.761   1.154   5.338  0.6633  1.0024 -1.2950
18560TIP3    H277172   4.848   1.088   5.234  0.5312 -1.6884  0.2147
18561TIP3   OH277173   5.310   2.709   0.762 -0.0147 -0.1073 -0.1664
18561TIP3    H177174   5.274   2.785   0.716 -2.2242 -1.4294 -0.7864
18561TIP3    H277175   5.396   2.695   0.723  0.0431  1.5128 -0.6832
18562TIP3   OH277176   6.327   5.066   1.348  0.3600 -0.1237 -0.3667
18562TIP3    H177177   6.408   5.117   1.358  0.6295 -0.5210 -0.5191
18562TIP3    H277178   6.326   5.008   1.423 -1.2079  1.7923  1.2190
18563TIP3   OH277179   6.602   4.939   2.567  0.0121 -0.0938 -0.6760
18563TIP3    H177180   6.561   4.871   2.513 -0.9216  0.7171 -1.0235
18563TIP3    H277181   6.694   4.913   2.571 -0.3713 -1.5500 -0.5211
18564TIP3   OH277182   2.167   0.477   2.692 -0.7362  0.4751  0.0428
18564TIP3    H177183   2.151   0.561   2.734 -0.2140  0.6132 -0.0197
18564TIP3    H277184   2.244   0.442   2.737 -2.5102 -1.2619  1.9516
18565TIP3   OH277185   5.718   0.263  12.000  0.1077 -0.3557 -0.1691
18565TIP3    H177186   5.697   0.355  11.989 -1.0586 -0.6642 -0.6688
18565TIP3    H277187   5.680   0.220  11.922 -0.4047 -1.4018  0.6298
18566TIP3   OH277188   5.551   2.877  13.376 -0.0166 -0.2320  0.2500
18566TIP3    H177189   5.526   2.834  13.458 -1.5744 -0.0424 -0.0860
18566TIP3    H277190   5.470   2.918  13.346  0.9904  1.4313 -0.3503
18567TIP3   OH277191   0.591   0.297   4.012 -0.0678 -0.1784 -0.0895
18567TIP3    H177192   0.585   0.362   3.942 -0.5747 -1.5400 -1.3588
18567TIP3    H277193   0.530   0.328   4.079 -1.3421 -0.0521 -1.2766
18568TIP3   OH277194   1.298   6.251   2.944  0.0056 -0.2504  0.8380
18568TIP3    H177195   1.273   6.279   2.856  0.0010 -1.2858  0.4983
18568TIP3    H277196   1.377   6.301   2.963  0.3765 -0.4932 -0.0217
18569TIP3   OH277197   4.374   1.172  13.612 -0.4671 -0.6010 -0.1063
18569TIP3    H177198   4.412   1.260  13.613 -0.3970 -0.6229 -0.5451
18569TIP3    H277199   4.320   1.170  13.533  0.6090 -1.3972 -0.8568
18570TIP3   OH277200   0.066   0.707  13.758 -0.5939 -0.0601  0.4297
18570TIP3    H177201   0.071   0.769  13.686 -0.3091 -0.3906  0.1574
18570TIP3    H277202   0.061   0.761  13.837  1.1669  0.3327  0.3106
18571TIP3   OH277203   5.811   1.446  16.048  0.5219  0.4940  0.0707
18571TIP3    H177204   5.824   1.380  15.980  2.6857 -0.4608  1.2922
18571TIP3    H277205   5.820   1.530  16.003 -0.0346 -0.0603 -1.1235
18572TIP3   OH277206   6.546   6.311  11.223  0.6322  0.7396 -0.7122
18572TIP3    H177207   6.457   6.281  11.206  0.4581 -0.6441  2.0480
18572TIP3    H277208   6.546   6.404  11.200 -2.0063  1.1711  0.6651
18573TIP3   OH277209   0.445   2.720   4.751 -0.4070 -0.5665 -0.0849
18573TIP3    H177210   0.503   2.761   4.816  0.1739 -0.4758 -0.6533
18573TIP3    H277211   0.365   2.701   4.800 -0.8037  1.4556  0.1643
18574TIP3   OH277212   0.197   3.115   0.846  0.4645 -0.4105  0.4968
18574TIP3    H177213   0.138   3.093   0.774 -0.0040  0.7850  0.4936
18574TIP3    H277214   0.146   3.174   0.902  1.7309  0.8522  0.3596
18575TIP3   OH277215   2.473   6.406  14.332  0.4883 -0.4911  0.6681
18575TIP3    H177216   2.548   6.367  14.377  1.3940  1.0687  0.5668
18575TIP3    H277217   2.447   6.479  14.388  0.5344  0.4140 -0.4763
18576TIP3   OH277218   0.547   2.686   5.756 -0.5813  0.3287  0.0922
18576TIP3    H177219   0.521   2.777   5.737 -1.3128  0.0532 -0.2846
18576TIP3    H277220   0.570   2.650   5.670  0.1638  0.2921  0.3041
18577TIP3   OH277221   5.834   2.304   3.613  0.6709  0.1577  0.3640
18577TIP3    H177222   5.808   2.265   3.530 -2.4763 -0.6269  1.5825
18577TIP3    H277223   5.903   2.246   3.646 -0.2111 -1.3339 -0.3080
18578TIP3   OH277224   4.015   0.496  13.187 -0.3143  0.1435  0.3273
18578TIP3    H177225   3.994   0.403  13.198 -0.4271  0.3869  2.6735
18578TIP3    H277226   3.936   0.542  13.216 -0.2315  1.0042 -0.7321
18579TIP3   OH277227   5.666   1.032  13.028 -0.4278  0.4289 -0.5791
18579TIP3    H177228   5.607   1.019  12.953  0.7606 -0.0382 -1.4506
18579TIP3    H277229   5.662   1.126  13.045 -1.0022  0.4828 -0.9826
18580TIP3   OH277230   6.660   0.541   5.076 -0.3963  0.0740  0.5000
18580TIP3    H177231   6.731   0.520   5.136 -0.2879 -1.0374 -0.0111
18580TIP3    H277232   6.638   0.632   5.098  0.8507  0.2861  0.9837
18581TIP3   OH277233   2.490   0.585   5.829  0.2298 -0.2718 -0.3049
18581TIP3    H177234   2.403   0.594   5.790  1.1747  1.0275 -2.2872
18581TIP3    H277235   2.511   0.672   5.863  0.3733 -0.8270  1.1020
18582TIP3   OH277236   4.967   4.019   2.412 -0.5583  0.1602  0.0608
18582TIP3    H177237   4.960   4.020   2.316  0.3302  1.5061 -0.0264
18582TIP3    H277238   5.029   4.090   2.431 -0.3729 -0.3961  1.6085
18583TIP3   OH277239   3.494   1.180  11.488  0.3714  0.0481 -0.1915
18583TIP3    H177240   3.455   1.093  11.486 -1.2136  0.7214 -0.2328
18583TIP3    H277241   3.563   1.177  11.422 -0.2436 -0.9148 -0.8180
18584TIP3   OH277242   6.285   0.823  11.339  0.5561 -0.3831  0.4450
18584TIP3    H177243   6.381   0.826  11.336  0.5345 -0.5733 -1.7553
18584TIP3    H277244   6.257   0.861  11.256 -1.2272 -1.9833  0.2518
18585TIP3   OH277245   3.836   6.644   5.429 -0.9981 -0.1602  0.1754
18585TIP3    H177246   3.794   6.559   5.439 -0.0871 -0.5400  0.9101
18585TIP3    H277247   3.850   6.653   5.335  4.7981 -3.8654  0.1918
18586TIP3   OH277248   5.665   5.579   5.564  0.0617  0.0638 -0.3905
18586TIP3    H177249   5.759   5.568   5.578 -0.3527 -2.7036  0.9324
18586TIP3    H277250   5.658   5.637   5.489  2.7359  3.4238  1.6706
18587TIP3   OH277251   6.473   6.787  12.792  0.6733 -0.2187  0.0135
18587TIP3    H177252   6.531   6.775  12.716 -0.0102 -3.0778 -0.1794
18587TIP3    H277253   6.437   6.700  12.808 -1.0241  0.7977  2.2030
18588TIP3   OH277254   2.671   6.302   4.915  0.3159 -0.2150  0.2097
18588TIP3    H177255   2.677   6.275   5.007  1.7069 -0.5353  0.0420
18588TIP3    H277256   2.728   6.241   4.868  3.6589  2.9130 -0.1748
18589TIP3   OH277257   6.112   0.042  13.102 -0.1794 -0.9834 -0.0162
18589TIP3    H177258   6.045   0.054  13.170 -0.7285 -1.7253 -0.4048
18589TIP3    H277259   6.191   0.019  13.150 -0.0853  0.2659  0.4776
18590TIP3   OH277260   2.554   1.672  11.691  0.1815  0.5035  0.3851
18590TIP3    H177261   2.647   1.675  11.709  0.5340 -1.0147 -0.9184
18590TIP3    H277262   2.522   1.594  11.737 -0.7000  1.6031  1.7218
18591TIP3   OH277263   2.954   0.796  14.170  0.4661  0.3217  0.3343
18591TIP3    H177264   2.945   0.815  14.263  0.0766 -0.2377  0.4163
18591TIP3    H277265   2.927   0.877  14.126  1.7614  0.9822  0.7203
18592TIP3   OH277266   2.314   2.232   5.189  0.1874  0.0286 -0.7179
18592TIP3    H177267   2.357   2.169   5.132  0.6990 -1.1698  0.8980
18592TIP3    H277268   2.338   2.204   5.278 -0.3805  1.9372  0.0901
18593TIP3   OH277269   1.739   3.595  13.871  0.3327  0.0197 -0.2271
18593TIP3    H177270   1.799   3.592  13.797  2.7165  0.5991  1.5639
18593TIP3    H277271   1.685   3.673  13.856  0.9175  0.2476 -1.2277
18594TIP3   OH277272   4.973   5.774   0.936  0.7190 -0.7659 -0.1855
18594TIP3    H177273   5.020   5.858   0.938 -1.4990  0.7696 -3.6049
18594TIP3    H277274   5.019   5.720   1.001  4.3050  1.9862 -0.0798
18595TIP3   OH277275   5.999   1.210   3.250  0.7119 -0.3558 -0.0409
18595TIP3    H177276   5.936   1.280   3.270  0.7026 -1.1021  2.8868
18595TIP3    H277277   6.072   1.225   3.310  0.9412 -2.5328  0.2962
18596TIP3   OH277278   5.559   1.069  13.615 -0.0655 -0.1309  0.0587
18596TIP3    H177279   5.476   1.057  13.569 -0.4952  0.7610  0.5737
18596TIP3    H277280   5.593   1.152  13.581  0.9118 -0.7812 -0.5802
18597TIP3   OH277281   6.210   5.505  15.541 -0.6945  0.2704  0.2127
18597TIP3    H177282   6.213   5.540  15.630 -2.5072  1.2804 -0.0783
18597TIP3    H277283   6.230   5.412  15.551  0.8511  0.6871  1.4323
18598TIP3   OH277284   1.697   2.675   5.754  0.3668 -0.6390  0.6700
18598TIP3    H177285   1.748   2.603   5.717  3.4987  1.9583 -0.6051
18598TIP3    H277286   1.625   2.688   5.693  0.0141 -2.3439  0.6852
18599TIP3   OH277287   2.634   5.448   5.911 -0.7383  0.3536  0.1301
18599TIP3    H177288   2.658   5.533   5.948  1.1330 -0.3919  0.7668
18599TIP3    H277289   2.558   5.420   5.961 -1.8787  1.9844 -0.6237
18600TIP3   OH277290   6.527   0.310  15.582 -0.0582 -0.2789 -0.0776
18600TIP3    H177291   6.482   0.234  15.545  1.5434 -0.2887 -2.1664
18600TIP3    H277292   6.559   0.279  15.667  0.4577 -1.9317 -0.8362
18601TIP3   OH277293   3.884   1.959   1.223  0.7344 -0.0691 -0.2473
18601TIP3    H177294   3.794   1.931   1.210  1.0564 -0.5620 -1.5494
18601TIP3    H277295   3.878   2.054   1.232  0.0260 -0.1626  0.4364
18602TIP3   OH277296   6.262   1.133   0.079  0.4576 -0.1560 -0.3859
18602TIP3    H177297   6.304   1.100  -0.001  2.6285 -1.9774  1.3628
18602TIP3    H277298   6.327   1.191   0.118 -0.4502  0.4675  0.2525
18603TIP3   OH277299   2.189   0.821  12.887  0.1558 -0.2089  0.8313
18603TIP3    H177300   2.211   0.738  12.929 -1.9176 -1.0344  0.4401
18603TIP3    H277301   2.093   0.825  12.892  0.1671  1.8375  0.2100
18604TIP3   OH277302   0.482   2.354  16.087  0.5179 -0.0381  0.1335
18604TIP3    H177303   0.433   2.286  16.133  0.6857  0.8093  1.6261
18604TIP3    H277304   0.430   2.371  16.008 -0.1181 -1.0899  0.2966
18605TIP3   OH277305   3.966   4.643   5.704 -0.7534  0.4898 -0.1400
18605TIP3    H177306   3.946   4.709   5.638 -1.6393 -0.2482 -0.6213
18605TIP3    H277307   3.934   4.561   5.668  3.1073 -0.8401 -0.9362
18606TIP3   OH277308   1.380   5.494  13.544 -0.3634 -0.3765 -0.5101
18606TIP3    H177309   1.317   5.429  13.513 -1.2738 -0.2614  0.9970
18606TIP3    H277310   1.384   5.560  13.474 -0.0362 -1.6153 -1.6999
18607TIP3   OH277311   0.343   1.847   2.125 -0.0725  0.0191  0.2030
18607TIP3    H177312   0.420   1.823   2.178  0.4702 -0.0949 -0.6171
18607TIP3    H277313   0.309   1.926   2.166 -0.1562 -0.5264  1.2181
18608TIP3   OH277314   6.664   2.003   5.968 -0.4440 -0.5948 -0.1107
18608TIP3    H177315   6.730   2.024   6.034  0.2432 -0.3404 -0.8566
18608TIP3    H277316   6.587   2.055   5.992 -0.4304 -1.0012  0.8478
18609TIP3   OH277317   2.066   6.362   4.268  0.0349 -0.2141  0.7126
18609TIP3    H177318   2.086   6.270   4.282 -0.8615 -0.6168 -0.5381
18609TIP3    H277319   2.144   6.398   4.225  0.3443 -0.4002  1.1116
18610TIP3   OH277320   6.086   4.779   1.877 -0.1969 -0.2450  0.1766
18610TIP3    H177321   6.148   4.711   1.850 -0.9961 -0.9911  0.1984
18610TIP3    H277322   6.065   4.757   1.968 -0.6315 -0.0999  0.1130
18611TIP3   OH277323   4.181   0.218  17.161  0.3647 -0.0194  0.3005
18611TIP3    H177324   4.087   0.226  17.142  0.8477  0.1808 -2.4470
18611TIP3    H277325   4.222   0.287  17.108  2.0929 -0.3364  1.1568
18612TIP3   OH277326   3.694   5.612  14.384 -0.3100 -0.3269 -0.0305
18612TIP3    H177327   3.751   5.635  14.458 -1.8542 -0.3880  1.2553
18612TIP3    H277328   3.710   5.519  14.368 -0.8191 -0.6253  1.0743
18613TIP3   OH277329   0.940   6.246   1.584  1.0678  0.0854 -0.6018
18613TIP3    H177330   0.849   6.221   1.593  0.7479  1.7161  1.5629
18613TIP3    H277331   0.978   6.233   1.671  2.3922  1.2403 -0.9549
18614TIP3   OH277332   6.514   5.338  13.047  0.3846  0.2040  0.0454
18614TIP3    H177333   6.461   5.258  13.050  1.6703 -0.9700 -3.4323
18614TIP3    H277334   6.470   5.392  12.980  0.6593  1.5668  0.9316
18615TIP3   OH277335   4.909   5.268   2.239  0.0962  0.1893  0.2317
18615TIP3    H177336   4.902   5.328   2.165  1.7314  0.0731 -0.0592
18615TIP3    H277337   4.910   5.325   2.316 -0.4898  0.3823  0.1001
18616TIP3   OH277338   1.366   5.690  17.274  0.3264  0.0610 -0.2117
18616TIP3    H177339   1.359   5.775  17.229 -1.4980 -0.0834 -0.3018
18616TIP3    H277340   1.450   5.694  17.320  0.8941  1.3769 -1.2781
18617TIP3   OH277341   6.766   3.719  16.794  0.6773  0.5805  0.0466
18617TIP3    H177342   6.734   3.635  16.763  0.3006  1.0042 -0.7578
18617TIP3    H277343   6.853   3.701  16.829  1.2730  0.1080 -1.5694
18618TIP3   OH277344   0.713   2.272  12.880  0.1445  0.3150 -0.5253
18618TIP3    H177345   0.700   2.275  12.975  0.1196  0.3944 -0.5310
18618TIP3    H277346   0.711   2.179  12.858  2.7987  0.0885 -0.0899
18619TIP3   OH277347   2.263   4.247   5.299  0.6618 -0.1922  0.2463
18619TIP3    H177348   2.168   4.249   5.300  0.6659 -0.0134  0.3731
18619TIP3    H277349   2.288   4.283   5.214  0.6093 -0.5594  0.0747
18620TIP3   OH277350   3.146   2.062  15.291 -0.3000  0.1983 -0.1113
18620TIP3    H177351   3.205   1.989  15.273 -1.0051 -0.4568  0.1843
18620TIP3    H277352   3.176   2.096  15.376 -1.1393 -0.9622  0.6762
18621TIP3   OH277353   4.819   1.978  12.311 -0.2424  0.5565  0.3293
18621TIP3    H177354   4.807   1.944  12.399 -0.1865 -0.4735 -0.0539
18621TIP3    H277355   4.797   2.071  12.318 -0.0500  0.5246  1.4632
18622TIP3   OH277356   2.926   1.278  17.127  0.1599 -0.5210  0.4499
18622TIP3    H177357   2.945   1.371  17.113 -0.5807 -0.7158 -2.4474
18622TIP3    H277358   2.853   1.278  17.189 -0.1232  0.8566  0.1479
18623TIP3   OH277359   2.613   0.406   4.374 -0.1020 -0.5736 -0.0977
18623TIP3    H177360   2.694   0.456   4.377 -1.5688  2.0049 -0.8780
18623TIP3    H277361   2.616   0.360   4.290  1.4096 -2.1644  0.7769
18624TIP3   OH277362   0.866   5.558  10.693  0.0663  0.5920 -0.0173
18624TIP3    H177363   0.899   5.483  10.742 -0.0459  0.9218  0.5714
18624TIP3    H277364   0.936   5.623  10.699  0.3369  0.4056 -0.8697
18625TIP3   OH277365   3.034   5.244  14.962 -0.5639 -0.8122 -0.6869
18625TIP3    H177366   3.081   5.251  14.879  0.3233 -0.0628 -0.1540
18625TIP3    H277367   2.942   5.260  14.939 -0.2297  0.2034 -1.4201
18626TIP3   OH277368   2.035   2.013  16.855 -0.1938  0.1612 -0.2966
18626TIP3    H177369   2.056   1.984  16.943  1.6417  0.1810 -0.6923
18626TIP3    H277370   2.034   1.932  16.803 -3.0723 -0.0923  0.0062
18627TIP3   OH277371   4.737   0.974   0.411  0.5185  0.2406  0.1763
18627TIP3    H177372   4.815   1.013   0.451  1.3488 -0.8146 -0.3666
18627TIP3    H277373   4.771   0.903   0.356 -0.8064 -0.0561 -0.2988
18628TIP3   OH277374   5.424   0.354  11.178  0.1535 -0.8988  0.6649
18628TIP3    H177375   5.382   0.430  11.138  2.1976  0.5857  1.1553
18628TIP3    H277376   5.452   0.300  11.104 -1.4640 -1.3272  0.3145
18629TIP3   OH277377   6.070   1.407  12.294 -0.0601  0.1915  0.4167
18629TIP3    H177378   6.128   1.401  12.218  0.4308  0.8440  0.7266
18629TIP3    H277379   6.024   1.323  12.295 -2.2565  1.2154 -2.2822
18630TIP3   OH277380   5.105   4.590   5.677 -0.9844 -0.0616 -0.2781
18630TIP3    H177381   5.121   4.636   5.594  0.1337 -0.3767 -0.2509
18630TIP3    H277382   5.055   4.513   5.652  2.8101 -2.4489 -1.3710
18631TIP3   OH277383   4.971   2.935  15.495  0.4734 -0.3074 -0.1213
18631TIP3    H177384   5.040   2.870  15.503 -0.0542 -0.7196  1.3621
18631TIP3    H277385   4.934   2.920  15.408  1.5953 -0.7140 -0.5444
18632TIP3   OH277386   2.860   5.578   1.221  0.0181 -0.0448 -0.0524
18632TIP3    H177387   2.859   5.639   1.295  0.4288  0.0826 -0.1488
18632TIP3    H277388   2.939   5.525   1.234  0.3047  0.2394 -0.6058
18633TIP3   OH277389   3.307   6.684   0.377  0.2667 -0.2419  0.1478
18633TIP3    H177390   3.255   6.603   0.368  0.8549 -0.5033 -1.1440
18633TIP3    H277391   3.325   6.710   0.287  1.4162  0.4840  0.5778
18634TIP3   OH277392   4.905   0.800   0.289  0.4084 -0.2549  0.4709
18634TIP3    H177393   4.980   0.770   0.341  0.9952 -1.0360 -0.7547
18634TIP3    H277394   4.923   0.766   0.201 -0.6559  0.8227 -0.1861
18635TIP3   OH277395   0.305   2.305   0.866  0.1369 -0.1250 -0.4791
18635TIP3    H177396   0.333   2.270   0.782 -1.3596  0.7237 -1.3818
18635TIP3    H277397   0.386   2.322   0.914  1.0885  0.5533 -2.2458
18636TIP3   OH277398   6.080   0.949   4.599 -0.2757 -0.4626  0.4010
18636TIP3    H177399   6.175   0.953   4.594 -0.3184 -0.7380 -1.1933
18636TIP3    H277400   6.058   0.989   4.684  1.3198 -1.6997  1.4663
18637TIP3   OH277401   5.843   5.644  14.976 -0.3593 -0.6349 -0.0158
18637TIP3    H177402   5.818   5.665  15.066  0.8636 -1.7015  0.5911
18637TIP3    H277403   5.829   5.550  14.968 -0.9309 -0.4809 -1.1216
18638TIP3   OH277404   3.922   5.334   5.543  0.6353  0.0392  0.2182
18638TIP3    H177405   3.884   5.380   5.617 -0.0370  1.2661 -0.8607
18638TIP3    H277406   3.871   5.253   5.536  0.6301 -0.0370  0.9938
18639TIP3   OH277407   2.072   3.398  17.066 -0.0145 -0.1775 -0.3824
18639TIP3    H177408   2.124   3.361  16.994 -1.3685  0.8915 -2.0001
18639TIP3    H277409   1.994   3.342  17.069 -0.6135  0.6189 -0.7291
18640TIP3   OH277410   0.484   5.290  12.297  0.0071 -0.0505  0.2482
18640TIP3    H177411   0.577   5.287  12.320  0.3377  0.4912 -0.9011
18640TIP3    H277412   0.474   5.221  12.231 -0.3732 -0.0337  0.2892
18641TIP3   OH277413   4.321   1.482  12.052  0.2411  0.3118 -0.5039
18641TIP3    H177414   4.309   1.567  12.095 -2.0905  0.1024 -0.6319
18641TIP3    H277415   4.411   1.458  12.073  0.1911  1.6638  1.6167
18642TIP3   OH277416   3.403   2.246   1.597 -0.0730  0.8353 -0.5093
18642TIP3    H177417   3.330   2.199   1.638  0.3579 -0.2460 -0.9450
18642TIP3    H277418   3.463   2.266   1.669  1.0376 -1.7022 -0.6096
18643TIP3   OH277419   3.923   4.199  16.655  0.1755 -0.5972  0.4710
18643TIP3    H177420   3.924   4.107  16.629 -0.0587  0.1051 -2.2887
18643TIP3    H277421   4.008   4.233  16.627  0.5421 -0.0871  2.0959
18644TIP3   OH277422   5.853   4.244  11.605 -0.0502  0.1896 -0.2925
18644TIP3    H177423   5.904   4.306  11.657 -0.9209  2.2087 -1.6853
18644TIP3    H277424   5.896   4.159  11.619  0.9962  1.0077  1.9669
18645TIP3   OH277425   1.099   2.495   3.006  0.3596  0.3514  0.1730
18645TIP3    H177426   1.061   2.503   3.094 -0.1799 -0.6352  0.0484
18645TIP3    H277427   1.044   2.550   2.951  0.1863  0.3165  0.3107
18646TIP3   OH277428   4.211   5.741  15.064 -0.1217 -0.1787  0.6835
18646TIP3    H177429   4.263   5.794  15.003 -0.1745 -0.7351  0.1392
18646TIP3    H277430   4.255   5.656  15.065 -0.1297 -0.1829  1.4217
18647TIP3   OH277431   5.466   5.129  14.583  0.2885  0.0900 -0.6543
18647TIP3    H177432   5.392   5.093  14.534  0.5773 -0.6282 -0.5844
18647TIP3    H277433   5.473   5.220  14.554 -1.5404  0.6280  0.4099
18648TIP3   OH277434   2.288   3.636   4.980 -0.3200  0.4182 -0.1878
18648TIP3    H177435   2.302   3.697   4.907  0.8573  1.3820  0.7884
18648TIP3    H277436   2.212   3.672   5.027  0.8907  1.7071  0.8814
18649TIP3   OH277437   1.318   3.391  13.962  0.1247 -0.1958 -0.3654
18649TIP3    H177438   1.297   3.312  14.011 -0.6707 -0.4969 -1.1623
18649TIP3    H277439   1.402   3.420  13.997 -0.4540 -0.3531  1.2145
18650TIP3   OH277440   3.351   2.077  11.448  0.6945 -0.4239 -0.1435
18650TIP3    H177441   3.380   2.129  11.372 -0.2873  0.0715 -0.2023
18650TIP3    H277442   3.408   2.000  11.447  1.4309  0.1034 -0.7335
18651TIP3   OH277443   3.002   2.413  14.541 -0.2448 -0.0259  0.3010
18651TIP3    H177444   3.058   2.356  14.593  0.2353 -0.5970 -0.7939
18651TIP3    H277445   2.942   2.353  14.496 -1.5776  0.5616  1.2597
18652TIP3   OH277446   4.606   4.515  11.240 -0.1070 -0.0804  0.2155
18652TIP3    H177447   4.653   4.598  11.247 -1.2568  0.6455 -0.2440
18652TIP3    H277448   4.625   4.484  11.152 -0.2288  0.0475  0.1435
18653TIP3   OH277449   0.473   3.702  11.783 -0.3299 -0.6682  0.4902
18653TIP3    H177450   0.516   3.730  11.863  2.5272 -1.1427 -0.7776
18653TIP3    H277451   0.500   3.765  11.717 -1.0564 -1.3783 -0.5187
18654TIP3   OH277452   5.665   0.505   0.401 -0.4897 -0.4028  0.5393
18654TIP3    H177453   5.688   0.484   0.492  2.3189  1.3366  0.3336
18654TIP3    H277454   5.572   0.484   0.396 -0.5503 -1.4546  3.5439
18655TIP3   OH277455   2.600   3.412   5.709  0.4416 -0.3955 -0.0829
18655TIP3    H177456   2.539   3.482   5.732 -0.9048 -0.0088 -3.9822
18655TIP3    H277457   2.563   3.333   5.748  0.1690  0.5349  1.6283
18656TIP3   OH277458   5.424   4.790  16.184 -0.2494 -0.0341 -0.5737
18656TIP3    H177459   5.353   4.764  16.126  0.1008 -0.5268 -0.7869
18656TIP3    H277460   5.493   4.726  16.168  1.6649  2.3743 -3.0532
18657TIP3   OH277461   0.672   4.630   2.199  0.9973 -0.3422  0.2445
18657TIP3    H177462   0.632   4.685   2.133  1.1902 -0.3099  0.1532
18657TIP3    H277463   0.668   4.682   2.280  0.1742 -0.6410  0.4080
18658TIP3   OH277464   5.276   5.171  16.715 -0.1519  0.0029 -0.0458
18658TIP3    H177465   5.264   5.247  16.772 -1.3971 -1.3758  1.6412
18658TIP3    H277466   5.210   5.108  16.745  1.7494 -2.3063 -0.4072
18659TIP3   OH277467   1.778   4.417  17.270 -0.0473  0.1598  0.2240
18659TIP3    H177468   1.692   4.458  17.285 -0.3814 -0.9882  1.6627
18659TIP3    H277469   1.831   4.487  17.231 -0.9995  1.5574  1.3183
18660TIP3   OH277470   3.006   2.989  14.301  0.0334  0.3274 -0.2878
18660TIP3    H177471   2.968   3.075  14.284 -0.2474  0.1643 -0.5067
18660TIP3    H277472   3.029   2.990  14.394  0.8266  0.9426 -0.4833
18661TIP3   OH277473   1.670   5.954   1.877  0.4582 -0.5467 -0.0458
18661TIP3    H177474   1.743   5.919   1.826 -0.1477 -0.9657 -0.6363
18661TIP3    H277475   1.597   5.897   1.856  0.2621 -0.9352  1.5462
18662TIP3   OH277476   4.283   6.115  15.412  0.0747  0.2577 -0.1383
18662TIP3    H177477   4.315   6.025  15.398  1.1902  0.5491  0.3969
18662TIP3    H277478   4.327   6.167  15.345  0.5577  0.6268  0.4491
18663TIP3   OH277479   0.758   6.786  17.090  0.1840 -0.1951  0.9665
18663TIP3    H177480   0.764   6.865  17.037 -0.2921 -0.1362  0.9897
18663TIP3    H277481   0.674   6.748  17.066 -1.2644  1.1442  3.4125
18664TIP3   OH277482   0.263   2.831  15.604  0.0796  0.3130 -0.0651
18664TIP3    H177483   0.260   2.926  15.615  1.0752  0.2618  0.8768
18664TIP3    H277484   0.216   2.814  15.522  0.1329  1.6398 -0.3855
18665TIP3   OH277485   6.656   3.619   1.952  0.4217 -0.3496  0.4378
18665TIP3    H177486   6.747   3.639   1.976  0.5642 -0.1243 -0.2545
18665TIP3    H277487   6.631   3.690   1.893 -0.3852 -0.1306  1.0386
18666TIP3   OH277488   5.682   1.874  15.900 -0.1994 -0.1326 -0.4454
18666TIP3    H177489   5.683   1.942  15.833  0.5678 -0.5561 -0.8734
18666TIP3    H277490   5.736   1.908  15.971  0.6952 -0.5396 -0.9177
18667TIP3   OH277491   6.266   5.835  15.710  0.2916 -0.6158 -0.4090
18667TIP3    H177492   6.299   5.920  15.682  0.5217 -1.2582 -2.2320
18667TIP3    H277493   6.172   5.847  15.717  0.3725 -0.0915 -0.1141
18668TIP3   OH277494   3.416   3.048  12.780  0.0187 -0.7156 -0.1532
18668TIP3    H177495   3.500   3.020  12.818 -0.3282  0.4779  1.5884
18668TIP3    H277496   3.381   2.969  12.740  2.3980 -1.0582 -1.8425
18669TIP3   OH277497   6.559   5.933  15.332  0.2129  0.1751 -0.8258
18669TIP3    H177498   6.651   5.955  15.343  0.1498  0.3850 -0.7073
18669TIP3    H277499   6.537   5.962  15.243  0.1102  0.6683 -0.6442
18670TIP3   OH277500   0.305   0.630  14.581  0.3905 -0.0234 -0.2827
18670TIP3    H177501   0.378   0.606  14.638 -1.3824  0.5363  2.3892
18670TIP3    H277502   0.251   0.552  14.576  0.1591  0.1523 -0.5632
18671TIP3   OH277503   6.786   5.630  11.321  0.0276 -0.5094 -0.4990
18671TIP3    H177504   6.704   5.673  11.295 -0.3014 -0.5968  0.3703
18671TIP3    H277505   6.800   5.658  11.411  1.1158 -0.2652 -0.7331
18672TIP3   OH277506   4.579   4.818  14.208 -0.2360 -0.2077  0.4408
18672TIP3    H177507   4.506   4.806  14.147  0.4142 -1.2533 -0.1574
18672TIP3    H277508   4.639   4.746  14.188  0.5303  0.1038  1.5456
18673TIP3   OH277509   3.621   5.593  12.157 -0.2610  0.1546 -0.3288
18673TIP3    H177510   3.697   5.606  12.213 -1.0280  1.3890  0.4680
18673TIP3    H277511   3.546   5.609  12.215 -1.0807  1.1443 -1.6137
18674TIP3   OH277512   2.704   2.640   4.279  0.0369  0.0091  0.1524
18674TIP3    H177513   2.764   2.701   4.234 -0.4387 -0.7372 -1.5807
18674TIP3    H277514   2.702   2.671   4.370  0.9841  1.6501 -0.3414
18675TIP3   OH277515   5.010   3.585   4.513 -0.3205 -0.0299  0.0983
18675TIP3    H177516   4.939   3.547   4.461 -0.6472  2.1417 -1.1897
18675TIP3    H277517   4.966   3.638   4.580  0.0691  0.5884 -0.1216
18676TIP3   OH277518   3.060   1.134  12.715 -0.0050  0.1507  0.8309
18676TIP3    H177519   3.127   1.072  12.688  0.4173  1.1055 -0.4462
18676TIP3    H277520   3.013   1.090  12.786  0.5288 -1.4349  0.2430
18677TIP3   OH277521   0.255   5.485  12.833 -0.5019 -0.3294  0.1162
18677TIP3    H177522   0.165   5.484  12.800 -1.4178  2.9866  2.0041
18677TIP3    H277523   0.246   5.472  12.928  1.1144 -0.7363  0.2424
18678TIP3   OH277524   1.697   2.221  16.601  0.5238 -0.2340  0.0749
18678TIP3    H177525   1.704   2.265  16.685 -0.0010  1.2201 -0.6178
18678TIP3    H277526   1.703   2.128  16.622  0.5195  0.1119  1.6944
18679TIP3   OH277527   4.489   1.316  11.765  0.4515 -0.1147  0.1813
18679TIP3    H177528   4.414   1.372  11.788  0.2341 -0.4708  0.3458
18679TIP3    H277529   4.449   1.232  11.743  0.5810  0.3378 -2.0272
18680TIP3   OH277530   5.683   4.254  14.654  0.0143 -0.7378 -0.2362
18680TIP3    H177531   5.729   4.301  14.584  0.1647 -1.0655 -0.3562
18680TIP3    H277532   5.673   4.319  14.724  0.0215 -0.4600 -0.4896
18681TIP3   OH277533   3.040   6.602   3.221 -0.8826 -1.2039  0.5954
18681TIP3    H177534   2.996   6.678   3.182 -2.3745 -1.1433  2.2571
18681TIP3    H277535   3.059   6.544   3.147 -0.1587  0.5275 -0.6485
18682TIP3   OH277536   5.712   5.942   4.420  0.3914 -0.7249  0.9699
18682TIP3    H177537   5.718   5.968   4.512 -0.1872 -0.0065  0.8186
18682TIP3    H277538   5.706   5.846   4.422 -0.9468 -0.6485  1.7713
18683TIP3   OH277539   2.283   2.204   1.584 -0.1241 -1.0507 -0.3142
18683TIP3    H177540   2.365   2.184   1.628 -0.6300 -0.7675  0.7869
18683TIP3    H277541   2.309   2.251   1.504  0.8445 -2.2806 -0.7589
18684TIP3   OH277542   0.540   1.360   2.612  0.6365  0.0548  0.1743
18684TIP3    H177543   0.507   1.270   2.607 -1.4939  0.6660  2.0090
18684TIP3    H277544   0.628   1.351   2.651  0.1590 -1.2022  1.0199
18685TIP3   OH277545   4.081   6.356  11.367  0.1474  0.3474  0.1977
18685TIP3    H177546   4.149   6.422  11.383  1.0893 -0.0275 -1.8535
18685TIP3    H277547   4.054   6.372  11.276  1.4402 -2.9118 -0.9064
18686TIP3   OH277548   2.274   0.633  13.546 -0.2083  0.5801  0.9950
18686TIP3    H177549   2.256   0.546  13.512 -0.2506  0.7425  0.6026
18686TIP3    H277550   2.370   0.635  13.556 -0.2256  0.4191  1.1962
18687TIP3   OH277551   3.324   2.282  10.673 -0.2190  0.0846  0.0615
18687TIP3    H177552   3.401   2.234  10.642  1.3961  1.2121  2.0467
18687TIP3    H277553   3.276   2.219  10.726 -0.7677 -0.6773 -1.3239
18688TIP3   OH277554   2.007   0.758   3.747  0.4724  0.2126  0.3428
18688TIP3    H177555   2.054   0.834   3.714  0.3423 -0.2723 -1.0114
18688TIP3    H277556   2.048   0.683   3.704 -0.9242 -0.2871 -0.1806
18689TIP3   OH277557   2.052   0.981  12.575 -0.5857  0.0347 -0.4304
18689TIP3    H177558   2.096   1.063  12.549 -0.0537 -0.1274 -0.0667
18689TIP3    H277559   2.070   0.921  12.503 -1.5536  0.4247 -1.0227
18690TIP3   OH277560   5.213   4.643   0.737 -0.5542  0.4121 -0.0986
18690TIP3    H177561   5.183   4.582   0.669 -0.3743  0.4130 -0.1787
18690TIP3    H277562   5.132   4.672   0.780 -0.6291 -0.0591  0.0915
18691TIP3   OH277563   5.625   5.151  12.540 -0.2880 -0.6405 -0.1539
18691TIP3    H177564   5.656   5.144  12.630  0.8715 -1.7066 -0.6163
18691TIP3    H277565   5.704   5.161  12.487 -1.0154  3.4388 -0.8471
18692TIP3   OH277566   2.601   6.062   2.837  0.2816 -0.2765  0.0277
18692TIP3    H177567   2.671   6.047   2.900 -0.8145 -0.1468  1.3200
18692TIP3    H277568   2.529   6.007   2.867 -1.2699  1.9283  0.6066
18693TIP3   OH277569   3.114   4.529  14.411  0.3907  0.4422 -0.0629
18693TIP3    H177570   3.081   4.531  14.322 -0.0568  2.2984  0.0958
18693TIP3    H277571   3.180   4.599  14.414  0.3986  0.4179  1.0577
18694TIP3   OH277572   6.106   4.098  13.686  0.3258  0.7470  0.2160
18694TIP3    H177573   6.149   4.018  13.654 -0.1891  0.1190  1.0597
18694TIP3    H277574   6.013   4.082  13.674  0.2704  1.9194 -1.1656
18695TIP3   OH277575   0.841   0.987   0.839 -0.2013  0.1630 -0.1154
18695TIP3    H177576   0.909   1.039   0.880  0.3637 -1.1236  0.6551
18695TIP3    H277577   0.852   1.001   0.745 -1.5286  3.1710  0.0785
18696TIP3   OH277578   5.008   2.998  13.807  0.0849 -0.0453  0.2907
18696TIP3    H177579   5.090   2.949  13.798 -0.0867 -0.0205 -1.7364
18696TIP3    H277580   5.028   3.065  13.872  1.2085 -0.9642  0.9343
18697TIP3   OH277581   3.960   6.323   1.644  0.4816  0.0838  0.3200
18697TIP3    H177582   3.900   6.362   1.580  1.1227 -0.4920 -0.6427
18697TIP3    H277583   3.934   6.362   1.727 -0.5954  0.5788 -0.2319
18698TIP3   OH277584   5.582   2.522   0.853 -0.0493  0.1649  0.0660
18698TIP3    H177585   5.579   2.559   0.765  0.8694 -1.1544 -0.5434
18698TIP3    H277586   5.612   2.595   0.908  1.7691  0.3715 -1.1023
18699TIP3   OH277587   5.527   6.432   3.718  0.2793  0.0938  0.0602
18699TIP3    H177588   5.509   6.340   3.700  1.4886  0.1870 -1.9962
18699TIP3    H277589   5.441   6.473   3.726 -0.2763 -1.0680  0.1890
18700TIP3   OH277590   2.076   2.372  11.937  0.1293  0.3891 -0.5749
18700TIP3    H177591   2.144   2.305  11.936 -0.6686 -0.4429 -0.7686
18700TIP3    H277592   2.045   2.376  11.846  0.0777  0.9359 -0.5391
18701TIP3   OH277593   3.968   5.014   5.749 -0.0307  0.1736 -0.0094
18701TIP3    H177594   3.948   4.974   5.664 -2.2979 -0.8847  0.9724
18701TIP3    H277595   3.905   5.085   5.758  0.0860  0.1761  0.8749
18702TIP3   OH277596   2.114   0.808   2.595  0.9207 -0.1681 -0.3863
18702TIP3    H177597   2.067   0.778   2.673  1.4891  0.0971  0.0671
18702TIP3    H277598   2.126   0.902   2.609 -0.7896  0.2987 -1.7626
18703TIP3   OH277599   6.698   4.944   0.939 -0.6185 -0.2221 -0.1877
18703TIP3    H177600   6.739   4.858   0.929 -0.2729 -0.0106 -0.5869
18703TIP3    H277601   6.664   4.965   0.852 -0.3687  0.2164 -0.1825
18704TIP3   OH277602   1.221   4.882   2.306 -0.1980  0.7638  0.1635
18704TIP3    H177603   1.283   4.835   2.361 -1.0557 -0.5620  0.0540
18704TIP3    H277604   1.136   4.841   2.325 -1.1435  2.7965  0.6298
18705TIP3   OH277605   5.223   5.754   0.711 -0.0438  0.7735 -0.1826
18705TIP3    H177606   5.311   5.752   0.675 -0.3290 -0.3353 -0.8787
18705TIP3    H277607   5.233   5.718   0.800 -0.0578 -1.3125 -0.9683
18706TIP3   OH277608   6.267   5.863   5.213 -0.0869 -0.2316 -0.1957
18706TIP3    H177609   6.245   5.815   5.293 -1.3319  0.1905 -0.2721
18706TIP3    H277610   6.363   5.865   5.213  0.0609 -2.8345 -0.2628
18707TIP3   OH277611   1.739   1.195   3.769  0.4120 -0.0542  0.5873
18707TIP3    H177612   1.740   1.100   3.773  0.9742 -0.0757  0.0084
18707TIP3    H277613   1.809   1.218   3.709 -0.1427  0.7002  0.2019
18708TIP3   OH277614   5.256   4.137  12.888 -0.1866 -0.5261 -0.1981
18708TIP3    H177615   5.176   4.092  12.863 -0.3108 -0.1507 -0.4735
18708TIP3    H277616   5.254   4.139  12.984 -0.5573 -0.4170 -0.2091
18709TIP3   OH277617   0.356   4.585   2.185  0.4048 -0.1815  0.0504
18709TIP3    H177618   0.359   4.587   2.281 -1.2337 -0.5826  0.1552
18709TIP3    H277619   0.365   4.676   2.158  1.3002 -0.1155  0.5648
18710TIP3   OH277620   5.805   2.967  13.298  0.0791 -0.1130 -0.5586
18710TIP3    H177621   5.845   2.900  13.243 -1.5245 -0.1188 -1.7932
18710TIP3    H277622   5.725   2.926  13.331 -0.5195  0.9219 -0.6969
18711TIP3   OH277623   4.637   6.261   3.559 -0.7344  0.3944 -0.2305
18711TIP3    H177624   4.659   6.221   3.643  1.4204 -2.5528 -2.0248
18711TIP3    H277625   4.568   6.205   3.523  0.3412 -0.1274 -1.5724
18712TIP3   OH277626   4.370   4.612   1.007  0.3275  0.2731  0.0613
18712TIP3    H177627   4.408   4.646   1.088 -1.3475  1.6106  0.3442
18712TIP3    H277628   4.367   4.517   1.021 -0.0179  0.4753  1.6270
18713TIP3   OH277629   6.490   5.748  15.544 -0.1448 -0.0743  0.1196
18713TIP3    H177630   6.406   5.779  15.576  0.0386  0.7841 -0.2034
18713TIP3    H277631   6.521   5.817  15.486  0.1065 -1.0315 -0.9299
18714TIP3   OH277632   6.818   1.859  14.525  0.1542 -0.3156 -0.0678
18714TIP3    H177633   6.800   1.775  14.484  0.3394 -0.6693  0.5513
18714TIP3    H277634   6.841   1.917  14.453  0.4850 -0.9225 -0.4595
18715TIP3   OH277635   6.167   3.747   2.536  0.0004 -0.1254 -0.5216
18715TIP3    H177636   6.177   3.839   2.511  0.1538  0.0078  0.0323
18715TIP3    H277637   6.144   3.749   2.629  0.0156 -0.6475 -0.5026
18716TIP3   OH277638   5.778   2.682  16.999 -0.1809 -0.7531 -0.5167
18716TIP3    H177639   5.819   2.596  17.006  3.4048  0.7415 -1.2476
18716TIP3    H277640   5.780   2.718  17.088  2.0194  0.0228 -0.8182
18717TIP3   OH277641   2.509   4.534   4.407  0.5116 -0.5576  0.6735
18717TIP3    H177642   2.498   4.622   4.371 -1.1401 -1.1007 -0.2553
18717TIP3    H277643   2.597   4.508   4.380  0.3813  0.1709 -0.5539
18718TIP3   OH277644   5.577   4.385  11.602  0.1068 -0.5222  0.6428
18718TIP3    H177645   5.650   4.439  11.632 -0.6037  1.5553 -1.0884
18718TIP3    H277646   5.499   4.429  11.637 -0.4205 -1.4697  0.6863
18719TIP3   OH277647   1.867   6.445   2.728  0.1514 -0.4038 -0.1644
18719TIP3    H177648   1.891   6.470   2.818 -1.7087  0.9835  0.0060
18719TIP3    H277649   1.852   6.528   2.683 -2.0628 -1.0921 -0.8272
18720TIP3   OH277650   3.944   1.226   1.958 -0.4800 -0.2360  0.2032
18720TIP3    H177651   3.917   1.145   1.914  0.7105  0.3113 -1.6615
18720TIP3    H277652   4.003   1.268   1.896  2.8571 -0.2493  3.0717
18721TIP3   OH277653   1.076   3.469  14.052 -0.6176  0.7398 -0.4798
18721TIP3    H177654   1.166   3.438  14.041 -0.9808  0.2371 -2.5155
18721TIP3    H277655   1.083   3.541  14.115  0.9425 -0.3341  0.6467
18722TIP3   OH277656   3.016   6.145   0.485  0.7698 -0.3383 -0.0780
18722TIP3    H177657   3.051   6.060   0.511  1.0933 -0.9839 -2.3934
18722TIP3    H277658   2.942   6.160   0.544  1.0798 -1.9225  0.7663
18723TIP3   OH277659   0.896   5.281   5.225 -0.1156 -0.2323  0.1144
18723TIP3    H177660   0.944   5.203   5.253  0.7735  0.4266  0.4947
18723TIP3    H277661   0.929   5.299   5.137 -1.8864 -1.4931 -0.8594
18724TIP3   OH277662   4.005   3.350   0.647 -0.3779  0.2181 -0.3720
18724TIP3    H177663   4.010   3.416   0.578  1.5758  0.5729  0.0426
18724TIP3    H277664   3.974   3.397   0.724  0.2942  0.4971 -0.2676
18725TIP3   OH277665   4.358   3.375   6.445  0.0389  0.0370 -0.0341
18725TIP3    H177666   4.295   3.418   6.388 -1.2101 -0.3239  1.0132
18725TIP3    H277667   4.439   3.424   6.433 -0.5248  0.7234 -1.1737
18726TIP3   OH277668   2.358   3.207  17.078  0.0557  0.0531  0.3230
18726TIP3    H177669   2.411   3.129  17.098  0.8503  0.3499 -0.5740
18726TIP3    H277670   2.360   3.214  16.983 -0.0194  1.1758  0.3959
18727TIP3   OH277671   2.227   4.258  11.431  0.1654  0.0560  0.4508
18727TIP3    H177672   2.281   4.272  11.353  0.9479  1.0585  1.1491
18727TIP3    H277673   2.163   4.192  11.404 -0.3488  1.2339 -1.4147
18728TIP3   OH277674   0.734   4.321   2.460  0.3887 -0.0332  0.4440
18728TIP3    H177675   0.704   4.322   2.370  2.0232 -0.4345 -0.1483
18728TIP3    H277676   0.670   4.372   2.508  0.1402  1.2399 -1.1613
18729TIP3   OH277677   1.201   4.560   1.921 -0.4529  0.1763  0.3619
18729TIP3    H177678   1.241   4.644   1.944  1.3565 -0.8289  1.1541
18729TIP3    H277679   1.202   4.558   1.825 -0.0368  0.8359  0.3461
18730TIP3   OH277680   5.965   1.259  14.775 -0.1779  0.0922  0.3073
18730TIP3    H177681   5.874   1.258  14.806 -0.2089  1.9260  0.4018
18730TIP3    H277682   5.962   1.216  14.690 -0.8731 -1.1265  0.9313
18731TIP3   OH277683   2.275   5.736   5.517 -0.4104  0.0621 -0.3598
18731TIP3    H177684   2.239   5.683   5.447  1.7379  0.8268 -2.1807
18731TIP3    H277685   2.261   5.685   5.597 -1.1525 -1.7720 -1.6133
18732TIP3   OH277686   6.230   0.297   1.242  0.4978  0.5276 -0.3545
18732TIP3    H177687   6.296   0.325   1.305 -1.4734  0.7770  1.6918
18732TIP3    H277688   6.158   0.359   1.252 -0.2041  0.0963 -2.3093
18733TIP3   OH277689   2.286   2.171   0.871 -0.8788  0.5120  0.6984
18733TIP3    H177690   2.223   2.163   0.800 -2.0447  0.5649  1.6831
18733TIP3    H277691   2.287   2.264   0.892  0.6217  0.7339 -0.2334
18734TIP3   OH277692   0.947   4.171   1.499 -0.5931  0.4727  0.9103
18734TIP3    H177693   0.981   4.256   1.527 -1.6616  0.9867  0.7034
18734TIP3    H277694   0.953   4.172   1.403 -0.6268  0.3247  0.9056
18735TIP3   OH277695   4.151   2.946   4.954 -0.2620 -0.4382 -0.0305
18735TIP3    H177696   4.131   2.993   4.873  1.1807 -1.6058 -1.1054
18735TIP3    H277697   4.246   2.943   4.957 -0.2509 -4.1467 -0.5583
18736TIP3   OH277698   6.706   0.320  14.919 -0.0014  0.3885  0.5910
18736TIP3    H177699   6.670   0.355  15.001 -1.4705  2.5062 -0.8428
18736TIP3    H277700   6.643   0.253  14.892  0.3419 -0.1206  1.0320
18737TIP3   OH277701   5.061   4.090  12.102  0.2717  1.0992 -0.4787
18737TIP3    H177702   5.144   4.043  12.102 -0.0348  0.5544 -1.0040
18737TIP3    H277703   5.039   4.100  12.195 -0.1727 -0.7043 -0.3572
18738TIP3   OH277704   4.331   1.813   1.930  0.2812  1.1092  0.0247
18738TIP3    H177705   4.298   1.832   2.019 -0.5870  0.8923 -0.2363
18738TIP3    H277706   4.254   1.780   1.883  0.9573  0.2900 -0.5346
18739TIP3   OH277707   3.599   6.368   4.531  0.6915 -0.5137  0.2400
18739TIP3    H177708   3.606   6.425   4.607  0.6870 -3.1287  2.3378
18739TIP3    H277709   3.688   6.365   4.495  0.5976  1.0978 -0.1976
18740TIP3   OH277710   1.613   2.746  15.376 -0.2902 -0.0747 -0.0455
18740TIP3    H177711   1.562   2.684  15.429 -0.8002  0.6744  0.3465
18740TIP3    H277712   1.593   2.832  15.413 -0.7527  0.4868 -1.5294
18741TIP3   OH277713   1.050   0.869  13.748  0.2587  0.7892  0.1714
18741TIP3    H177714   1.055   0.846  13.841 -0.7759 -0.1420  0.0214
18741TIP3    H277715   1.132   0.916  13.730  1.3935 -0.7373  1.0911
18742TIP3   OH277716   1.422   6.821  17.130  0.0447 -0.3056  0.4373
18742TIP3    H177717   1.452   6.763  17.059  1.6069  2.0234 -0.9548
18742TIP3    H277718   1.369   6.887  17.086  2.5338  2.2747  0.9783
18743TIP3   OH277719   3.824   2.826   0.844  0.4956 -0.2501  0.5566
18743TIP3    H177720   3.788   2.896   0.898 -0.5229  1.2846 -1.9320
18743TIP3    H277721   3.919   2.829   0.861  0.5087  1.9313  0.3496
18744TIP3   OH277722   3.705   0.599   4.963 -0.6759  0.7302  0.4567
18744TIP3    H177723   3.783   0.544   4.959 -2.0842 -1.3061 -1.2656
18744TIP3    H277724   3.657   0.578   4.883 -2.3032  2.9972  0.7544
18745TIP3   OH277725   6.521   1.400  12.013 -0.6260 -0.2617 -0.5534
18745TIP3    H177726   6.597   1.425  12.066 -2.5846  2.6480  1.2142
18745TIP3    H277727   6.545   1.427  11.924  0.9928 -0.8947 -0.3384
18746TIP3   OH277728   0.427   6.456  11.466 -0.0019 -0.4907  0.3431
18746TIP3    H177729   0.409   6.544  11.497  0.8194  0.2285 -1.0968
18746TIP3    H277730   0.354   6.403  11.498 -0.4165  0.6652  1.3727
18747TIP3   OH277731   3.173   3.766  13.656  0.4296 -0.0335 -0.4885
18747TIP3    H177732   3.130   3.848  13.631  1.4927  0.5137 -0.5896
18747TIP3    H277733   3.107   3.719  13.707 -0.4436  0.5592 -1.0407
18748TIP3   OH277734   1.323   5.242   4.585 -0.4295 -0.0550 -0.1806
18748TIP3    H177735   1.328   5.244   4.680  0.4909  0.2441 -0.2234
18748TIP3    H277736   1.414   5.244   4.556 -0.6950 -0.2237 -1.0680
18749TIP3   OH277737   1.117   1.909   5.293 -0.4183 -0.1511  0.0641
18749TIP3    H177738   1.179   1.892   5.222  1.0734 -1.3542  1.5547
18749TIP3    H277739   1.151   1.987   5.337  0.7835 -1.4248  1.5438
18750TIP3   OH277740   4.502   6.376   2.034 -0.6543 -0.2315 -0.0736
18750TIP3    H177741   4.574   6.402   1.977 -0.2356 -2.5375 -0.7015
18750TIP3    H277742   4.515   6.426   2.114  0.9568  0.2674 -0.6091
18751TIP3   OH277743   0.353   5.361   2.697 -0.2850 -0.0317 -0.0968
18751TIP3    H177744   0.432   5.415   2.705 -1.2609  1.2142  1.5046
18751TIP3    H277745   0.281   5.421   2.713 -1.4977 -1.4734  0.0031
18752TIP3   OH277746   1.928   1.049  11.868  0.3642 -0.2030  0.5335
18752TIP3    H177747   1.876   0.969  11.869  1.3836 -0.9536  3.1811
18752TIP3    H277748   1.998   1.032  11.806 -0.3053 -0.7326 -0.0943
18753TIP3   OH277749   1.088   5.684  13.569  0.3014 -0.4093 -0.1829
18753TIP3    H177750   1.094   5.607  13.625 -1.0260 -0.5853 -0.2490
18753TIP3    H277751   1.009   5.728  13.597 -1.2632 -1.2910 -2.8263
18754TIP3   OH277752   2.760   5.951   1.361 -0.7825  0.3709 -0.4398
18754TIP3    H177753   2.763   6.042   1.391 -0.9502 -0.3564  2.0103
18754TIP3    H277754   2.801   5.953   1.275 -1.4773  2.8680 -0.8007
18755TIP3   OH277755   5.629   1.755  14.977 -0.3266  0.5795  0.0846
18755TIP3    H177756   5.635   1.849  14.961 -0.7248  0.4641 -0.7968
18755TIP3    H277757   5.623   1.747  15.072 -0.6569  1.4676  0.1467
18756TIP3   OH277758   5.741   2.762  11.127 -0.1086  0.1090 -0.0851
18756TIP3    H177759   5.729   2.833  11.190  2.0935  1.1976 -0.7999
18756TIP3    H277760   5.686   2.785  11.052 -0.8824  0.0381  0.4525
18757TIP3   OH277761   3.775   0.130   5.350  0.0452 -0.2100 -0.6394
18757TIP3    H177762   3.734   0.162   5.430 -0.4774 -0.4097 -0.8221
18757TIP3    H277763   3.846   0.191   5.333  0.3523 -0.3449  0.1461
18758TIP3   OH277764   2.056   0.387  16.170  0.3655 -0.2402  0.1833
18758TIP3    H177765   2.030   0.362  16.081  0.0060  5.5715 -1.7554
18758TIP3    H277766   1.974   0.395  16.218  0.4710 -2.1729  0.7611
18759TIP3   OH277767   6.202   2.188  14.018 -0.1869  0.3513  0.3898
18759TIP3    H177768   6.162   2.126  14.079 -1.1765  0.5706 -0.0309
18759TIP3    H277769   6.152   2.179  13.937  0.7631  0.4673 -0.2271
18760TIP3   OH277770   4.750   3.544  12.039  0.2806  0.3818 -0.1985
18760TIP3    H177771   4.776   3.502  11.957  0.7238 -1.1085  0.6835
18760TIP3    H277772   4.724   3.472  12.096 -0.4829  1.4349  0.8308
18761TIP3   OH277773   2.928   0.258   4.118 -0.4569  0.7564  0.4390
18761TIP3    H177774   2.958   0.322   4.183 -0.6445  0.6647  0.6183
18761TIP3    H277775   2.889   0.311   4.048  0.5574  0.9020 -0.0274
18762TIP3   OH277776   4.999   0.162   4.171  0.2731  0.3201  0.1415
18762TIP3    H177777   4.908   0.151   4.143  0.3575 -2.1084  0.5931
18762TIP3    H277778   5.050   0.137   4.094  0.7366  4.5059 -1.1588
18763TIP3   OH277779   4.715   5.674  11.991 -0.1625  0.1868 -0.4816
18763TIP3    H177780   4.683   5.686  11.902  0.2030 -2.8329 -1.1404
18763TIP3    H277781   4.810   5.688  11.985  0.5009 -3.5933 -1.5685
18764TIP3   OH277782   0.221   1.132  15.121 -0.5249 -0.3258  0.0471
18764TIP3    H177783   0.174   1.052  15.145 -1.0354  0.0614  0.3575
18764TIP3    H277784   0.313   1.106  15.120 -0.8008 -1.3596 -1.6138
18765TIP3   OH277785   3.495   0.699  11.553 -0.4369  0.3771  0.4221
18765TIP3    H177786   3.584   0.733  11.551 -0.8426  1.4561  0.0471
18765TIP3    H277787   3.505   0.604  11.542  0.6457  0.4985  0.2646
18766TIP3   OH277788   5.337   4.184  15.669 -0.4056 -0.1632 -0.0519
18766TIP3    H177789   5.335   4.233  15.586 -1.5051 -0.0172  0.0482
18766TIP3    H277790   5.323   4.093  15.643 -2.1176  0.0413  0.0666
18767TIP3   OH277791   5.779   2.723  12.611  0.0749  0.0032  0.6643
18767TIP3    H177792   5.688   2.730  12.582  0.8164  0.0367 -1.8932
18767TIP3    H277793   5.793   2.629  12.621  0.3665 -0.1983 -1.2775
18768TIP3   OH277794   1.237   2.485  12.866  0.2831  0.1085 -0.4327
18768TIP3    H177795   1.147   2.516  12.859  0.3418  0.4535  0.2295
18768TIP3    H277796   1.244   2.416  12.800  0.5344  2.3174 -2.8861
18769TIP3   OH277797   3.298   2.117  13.680  0.0904  0.3115  0.6214
18769TIP3    H177798   3.273   2.058  13.751 -0.2476  0.8579  0.9650
18769TIP3    H277799   3.215   2.154  13.649  0.2588  0.2853  0.1227
18770TIP3   OH277800   5.900   0.875  16.703  0.0690  0.3100  0.0791
18770TIP3    H177801   5.959   0.924  16.645  0.1125  2.7961  2.0446
18770TIP3    H277802   5.958   0.832  16.766 -0.1086  0.4067  0.3105
18771TIP3   OH277803   3.551   3.701   0.217  0.0854  0.4336 -0.2835
18771TIP3    H177804   3.603   3.637   0.168 -0.7134 -1.0351  0.7066
18771TIP3    H277805   3.531   3.770   0.153 -0.1215 -0.9423 -1.7681
18772TIP3   OH277806   4.677   1.299   1.696 -0.1166 -1.0395 -0.2570
18772TIP3    H177807   4.653   1.359   1.625 -0.1956 -0.6811  0.0715
18772TIP3    H277808   4.595   1.283   1.743  0.3187  0.5094  1.1130
18773TIP3   OH277809   2.277   3.213  14.088 -0.2136 -0.1146 -0.2663
18773TIP3    H177810   2.305   3.122  14.099  0.5492 -0.0948 -1.8561
18773TIP3    H277811   2.358   3.262  14.076 -0.6275  0.7808  0.4413
18774TIP3   OH277812   4.601   4.558  17.010  0.2593 -0.3466  0.6058
18774TIP3    H177813   4.521   4.518  17.043  0.3838  0.6980  2.3170
18774TIP3    H277814   4.613   4.521  16.923 -0.3510 -2.9219  1.5462
18775TIP3   OH277815   2.880   1.584   0.674  0.6652  0.1749 -0.3905
18775TIP3    H177816   2.844   1.578   0.763  4.2600  2.7879  1.5198
18775TIP3    H277817   2.923   1.500   0.659  0.6991 -0.0280  0.7452
18776TIP3   OH277818   6.078   0.805   3.104 -0.0658  0.1405  0.2495
18776TIP3    H177819   6.086   0.893   3.139  0.1823 -0.4189  1.6883
18776TIP3    H277820   6.009   0.764   3.156  2.1096 -1.5673  2.0343
18777TIP3   OH277821   6.040   4.363   5.722  0.4404 -0.0335  0.7789
18777TIP3    H177822   5.951   4.333   5.706  0.2601  0.3170  1.0915
18777TIP3    H277823   6.087   4.347   5.640 -0.1969  0.7923  0.2443
18778TIP3   OH277824   1.791   1.105  16.476  0.2531  0.1592  0.3590
18778TIP3    H177825   1.758   1.093  16.388 -0.4307  2.0774  0.3131
18778TIP3    H277826   1.756   1.031  16.526  0.3959 -0.7655 -0.8856
18779TIP3   OH277827   0.074   0.728  15.690  0.2566  0.1031  0.2932
18779TIP3    H177828   0.102   0.817  15.671 -0.6036  0.4017  0.3479
18779TIP3    H277829  -0.000   0.714  15.630 -1.1924  0.3224  1.9610
18780TIP3   OH277830   1.138   6.822   5.186 -0.3744 -0.4748  0.2123
18780TIP3    H177831   1.123   6.741   5.234  0.4146 -0.0227  1.2662
18780TIP3    H277832   1.227   6.848   5.210 -1.3796  1.9384  1.8447
18781TIP3   OH277833   6.787   0.035   3.427 -0.7509 -0.1459  0.5329
18781TIP3    H177834   6.766  -0.036   3.367  0.2702 -0.7820  0.9068
18781TIP3    H277835   6.788  -0.006   3.514 -1.8392  0.6801  0.9567
18782TIP3   OH277836   5.308   3.578   6.318 -0.4467 -0.2193  0.5566
18782TIP3    H177837   5.318   3.668   6.349  0.6682  0.7626 -2.3899
18782TIP3    H277838   5.397   3.547   6.306 -0.8179 -1.7870  1.5726
18783TIP3   OH277839   0.384   1.543   0.073  0.0533  0.2354  0.0217
18783TIP3    H177840   0.342   1.629   0.073  1.2916  0.8881 -1.3800
18783TIP3    H277841   0.312   1.481   0.080 -1.2167  1.3118 -2.2352
18784TIP3   OH277842   5.290   4.546  12.542 -0.0843  0.2121  0.3813
18784TIP3    H177843   5.206   4.592  12.548 -1.5552 -2.3513  1.1022
18784TIP3    H277844   5.294   4.494  12.622  0.4800 -2.3813 -1.2062
18785TIP3   OH277845   3.443   0.401  15.376  0.2250 -0.8306  0.2531
18785TIP3    H177846   3.406   0.320  15.410  0.3114  0.1500  2.8943
18785TIP3    H277847   3.384   0.470  15.408  1.9687  0.4089  0.9244
18786TIP3   OH277848   2.174   6.117   3.343  0.1084 -0.1988 -0.0186
18786TIP3    H177849   2.113   6.179   3.383  0.7173  0.3835  0.0317
18786TIP3    H277850   2.259   6.139   3.382  0.3128 -1.1614  0.1090
18787TIP3   OH277851   6.230   2.278   4.022 -0.1355 -0.2870 -0.6328
18787TIP3    H177852   6.291   2.348   3.998  0.3239 -0.2481  0.5980
18787TIP3    H277853   6.191   2.252   3.939  1.6829 -0.4395 -1.4918
18788TIP3   OH277854   2.941   3.457   5.409 -0.0538  0.7651 -0.0763
18788TIP3    H177855   2.860   3.407   5.407  1.7765 -2.4759 -0.1501
18788TIP3    H277856   2.929   3.520   5.481 -2.5186  0.3115 -0.0246
18789TIP3   OH277857   3.440   6.551   5.912 -0.6106  0.3564 -0.1950
18789TIP3    H177858   3.473   6.466   5.883  0.7552  1.4237 -1.9936
18789TIP3    H277859   3.356   6.531   5.954  1.0675 -2.2069  2.2716
18790TIP3   OH277860   4.420   0.531   3.741 -0.2202  0.1004  0.3623
18790TIP3    H177861   4.487   0.474   3.703  0.5385  0.5890  0.9228
18790TIP3    H277862   4.392   0.588   3.669 -0.1932 -0.2526  0.0722
18791TIP3   OH277863   4.205   6.663   0.856  0.1662 -0.2508  0.1282
18791TIP3    H177864   4.263   6.668   0.932  0.7302 -1.1117 -0.2252
18791TIP3    H277865   4.217   6.746   0.810  0.3609 -0.0178  0.5960
18792TIP3   OH277866   4.353   3.439  16.927  0.0710 -0.1602  0.1542
18792TIP3    H177867   4.353   3.459  16.833  0.6515  0.3923  0.2548
18792TIP3    H277868   4.418   3.370  16.936  0.9533  0.6576  0.2932
18793TIP3   OH277869   3.767   1.841   2.916  0.5259  0.5199 -0.1830
18793TIP3    H177870   3.807   1.832   3.003  1.6315 -0.2760 -0.7535
18793TIP3    H277871   3.683   1.796   2.924  0.9855 -0.2791  0.2414
18794TIP3   OH277872   3.010   4.361   1.825  0.4309 -0.4128  0.1807
18794TIP3    H177873   3.015   4.342   1.731  1.2676 -2.6457  0.6213
18794TIP3    H277874   3.095   4.401   1.845  0.3811 -0.2389  0.0467
18795TIP3   OH277875   6.187   6.802   6.546  0.2023  0.3933 -0.4685
18795TIP3    H177876   6.263   6.826   6.599  0.1163 -1.1553  0.4140
18795TIP3    H277877   6.112   6.817   6.604  0.0093 -0.1349 -0.5769
18796TIP3   OH277878   6.108   1.438   2.135  0.2671  0.5967 -0.3036
18796TIP3    H177879   6.088   1.379   2.208 -0.0450 -0.0326 -0.8867
18796TIP3    H277880   6.114   1.525   2.175 -0.1676  0.2963  0.4261
18797TIP3   OH277881   4.683   1.832   3.854  0.1330 -0.4020  0.2403
18797TIP3    H177882   4.637   1.904   3.897 -0.7765  0.0250 -1.3192
18797TIP3    H277883   4.766   1.869   3.826  0.0544 -0.2150  0.2546
18798TIP3   OH277884   1.932   2.246  12.155  0.1292 -0.3879  0.1666
18798TIP3    H177885   1.994   2.270  12.224  0.2638  0.3756 -0.2151
18798TIP3    H277886   1.975   2.269  12.073 -0.4930 -0.2250 -0.1249
18799TIP3   OH277887   0.338   4.310   5.096  0.0679  0.4572  0.3414
18799TIP3    H177888   0.265   4.249   5.099 -0.1728  0.7579  0.5924
18799TIP3    H277889   0.321   4.364   5.018  0.6739 -0.2803 -0.3206
18800TIP3   OH277890   4.638   0.766   2.559 -0.1958 -0.6119  0.3776
18800TIP3    H177891   4.720   0.756   2.608  0.4288  0.8092 -0.3249
18800TIP3    H277892   4.569   0.748   2.623  0.6053  0.5540  1.6212
18801TIP3   OH277893   5.347   3.321  14.767 -0.0506 -0.0328  0.2889
18801TIP3    H177894   5.422   3.274  14.731  1.4648  0.9690  1.9998
18801TIP3    H277895   5.284   3.325  14.694  1.9179 -0.0730 -1.4998
18802TIP3   OH277896   3.077   1.959  13.408 -0.1757 -0.5724 -0.2901
18802TIP3    H177897   2.984   1.939  13.399  0.2552 -2.6819 -0.4941
18802TIP3    H277898   3.090   2.037  13.354 -2.1378  0.8995  1.1965
18803TIP3   OH277899   3.433   6.340  16.910 -0.1720 -0.1272 -0.5927
18803TIP3    H177900   3.447   6.298  16.825 -0.0438 -0.0762 -0.5950
18803TIP3    H277901   3.406   6.269  16.968  1.8832 -0.5817 -0.1105
18804TIP3   OH277902   1.999   1.677   4.966  0.3223 -0.0261 -0.0033
18804TIP3    H177903   1.908   1.648   4.979  1.1135 -1.8298  2.0663
18804TIP3    H277904   2.022   1.643   4.879 -0.6797 -0.3559 -0.1599
18805TIP3   OH277905   1.161   1.420   2.781 -0.5347  0.0951  0.0790
18805TIP3    H177906   1.104   1.421   2.858 -1.0907  0.4099 -0.3279
18805TIP3    H277907   1.223   1.491   2.797  0.2670 -0.7407  0.8876
18806TIP3   OH277908   6.446   1.800   4.716  0.3462 -0.0375 -0.3144
18806TIP3    H177909   6.481   1.809   4.805 -0.6288 -0.7562  0.1551
18806TIP3    H277910   6.389   1.724   4.721 -0.2763  0.3505 -1.3939
18807TIP3   OH277911   1.308   0.964  16.176 -0.0713 -0.2969 -0.0680
18807TIP3    H177912   1.368   0.926  16.241 -0.8053 -2.4738 -0.5634
18807TIP3    H277913   1.252   1.023  16.225  0.2631 -0.8664  1.0200
18808TIP3   OH277914   2.992   6.065   2.751  0.1918 -0.0342  0.3803
18808TIP3    H177915   3.060   6.000   2.768 -0.0296  0.1491  2.1114
18808TIP3    H277916   2.910   6.019   2.767 -0.0254  0.2830  0.2002
18809TIP3   OH277917   4.714   5.779  14.078 -0.1487  0.5650  0.4938
18809TIP3    H177918   4.718   5.685  14.061 -1.3279  0.6705 -0.5006
18809TIP3    H277919   4.784   5.795  14.141  1.5392 -0.6161 -0.9785
18810TIP3   OH277920   1.588   3.949  10.862 -0.1487 -0.3948  0.0591
18810TIP3    H177921   1.629   4.020  10.911 -2.5133  1.9095 -1.0745
18810TIP3    H277922   1.643   3.938  10.785  1.3080 -1.2307  1.1534
18811TIP3   OH277923   2.951   4.514   2.503 -0.2512  0.0698 -0.6324
18811TIP3    H177924   2.890   4.588   2.513  0.8959  0.8869  0.6880
18811TIP3    H277925   2.937   4.461   2.581  2.1642  1.4318  0.8660
18812TIP3   OH277926   0.032   0.622   0.599  1.0713 -0.7013  0.3242
18812TIP3    H177927  -0.024   0.661   0.665  0.4914  1.2888 -1.2558
18812TIP3    H277928   0.062   0.696   0.545  0.8571 -2.2751 -2.1252
18813TIP3   OH277929   4.098   5.153   6.138  0.1887 -0.1116 -0.2773
18813TIP3    H177930   4.191   5.171   6.146  0.3622 -1.5040  1.8322
18813TIP3    H277931   4.075   5.110   6.221 -2.1429 -0.5420 -1.0673
18814TIP3   OH277932   2.761   4.486   0.184  0.0808 -0.1381  0.1852
18814TIP3    H177933   2.815   4.435   0.124  1.0652  0.2285  0.7390
18814TIP3    H277934   2.755   4.572   0.142  0.2153 -0.0759  0.2953
18815TIP3   OH277935   0.103   0.871   1.163  0.3245 -0.4333  0.2337
18815TIP3    H177936   0.166   0.929   1.120 -0.4585  0.3314  0.0890
18815TIP3    H277937   0.111   0.788   1.117  0.7970 -0.1645 -0.1759
18816TIP3   OH277938   0.457   6.272   4.515  0.2528  0.4199  0.2643
18816TIP3    H177939   0.363   6.260   4.531  0.4269  0.2598  1.1648
18816TIP3    H277940   0.464   6.362   4.483  0.1035  1.4428  2.8700
18817TIP3   OH277941   2.578   6.473   4.320 -0.0379 -0.5824  0.0901
18817TIP3    H177942   2.631   6.540   4.363 -0.0390  0.3372 -1.2862
18817TIP3    H277943   2.638   6.399   4.308  0.8908  0.3494 -1.2001
18818TIP3   OH277944   6.014   3.828   6.469  0.2976  0.0350 -0.1687
18818TIP3    H177945   5.963   3.903   6.440 -2.0731 -0.4715  2.2533
18818TIP3    H277946   6.082   3.865   6.526 -1.4947  0.4096  1.8587
18819TIP3   OH277947   6.258   2.777  15.378 -0.4131 -0.2345  0.0275
18819TIP3    H177948   6.259   2.864  15.340 -0.9205  0.4326  1.4621
18819TIP3    H277949   6.185   2.733  15.334  0.9097 -0.5691 -1.9472
18820TIP3   OH277950   4.790   3.381   6.165 -0.2428 -0.3561 -0.3249
18820TIP3    H177951   4.716   3.326   6.192 -1.1261  0.9394 -0.0404
18820TIP3    H277952   4.802   3.442   6.238  1.2954 -0.6901 -0.2509
18821TIP3   OH277953   5.361   5.597   3.138 -0.3929 -0.3866  0.0827
18821TIP3    H177954   5.391   5.681   3.173  1.1211 -0.9926  0.3077
18821TIP3    H277955   5.292   5.620   3.076  0.7043  1.1155 -0.6550
18822TIP3   OH277956   1.527   4.347   2.364 -0.4118 -0.0283 -0.0684
18822TIP3    H177957   1.550   4.428   2.411  0.5480 -0.2017 -0.2162
18822TIP3    H277958   1.463   4.375   2.299  0.8111  0.8761 -0.9522
18823TIP3   OH277959   1.843   2.556  10.644 -0.9387 -0.6619 -0.1971
18823TIP3    H177960   1.896   2.614  10.591 -0.6257 -1.5275 -0.8587
18823TIP3    H277961   1.836   2.600  10.729 -0.3745  0.1335 -0.5554
18824TIP3   OH277962   2.353   6.055  15.057 -0.1263 -0.1502 -0.1941
18824TIP3    H177963   2.307   6.118  15.112  0.8859 -0.1319  0.6689
18824TIP3    H277964   2.435   6.037  15.104 -0.3677 -2.0922 -0.4159
18825TIP3   OH277965   2.344   5.910  14.583 -0.5269 -0.3413 -0.5777
18825TIP3    H177966   2.354   5.826  14.628 -2.0483  0.5054  1.5212
18825TIP3    H277967   2.433   5.937  14.561  0.2789 -1.0327  1.6168
18826TIP3   OH277968   4.846   0.814  15.764 -0.0166  0.0999 -0.0620
18826TIP3    H177969   4.818   0.837  15.675  0.2931  2.0419  0.3016
18826TIP3    H277970   4.805   0.881  15.820  1.3602  0.0684  1.0278
18827TIP3   OH277971   0.475   3.098  15.458  0.1971  0.5013  0.0179
18827TIP3    H177972   0.526   3.158  15.404  0.1716  0.5438  0.0412
18827TIP3    H277973   0.411   3.153  15.502  0.2763  0.4806  0.1604
18828TIP3   OH277974   4.152   1.401  13.992 -0.1033  0.7215 -0.5433
18828TIP3    H177975   4.098   1.360  13.924 -1.8242  2.7089 -0.4995
18828TIP3    H277976   4.226   1.438  13.944  0.4181 -0.6639 -0.8466
18829TIP3   OH277977   4.709   2.173  16.080 -0.4598  0.2535  0.0245
18829TIP3    H177978   4.654   2.116  16.028 -0.3436  0.2668 -0.1129
18829TIP3    H277979   4.798   2.142  16.064 -0.0585  2.3059 -2.4600
18830TIP3   OH277980   6.493   0.952  11.207 -0.2545  0.0957  0.7406
18830TIP3    H177981   6.569   0.986  11.159  1.4772 -0.1580  3.1299
18830TIP3    H277982   6.438   0.914  11.139  1.3438  1.0271 -1.1984
18831TIP3   OH277983   5.167   6.599   2.857 -0.4268  0.4064  0.4984
18831TIP3    H177984   5.121   6.683   2.859  0.5498  0.9487  0.5455
18831TIP3    H277985   5.156   6.563   2.945 -0.5974  0.6164  0.5626
18832TIP3   OH277986   5.497   0.404   4.284  0.0733 -0.1308 -0.8044
18832TIP3    H177987   5.442   0.364   4.352  0.8780 -0.9099 -0.6010
18832TIP3    H277988   5.447   0.481   4.256 -0.2090  0.2914  0.7640
18833TIP3   OH277989   6.047   0.716  12.195  0.1901  0.4262  0.2472
18833TIP3    H177990   5.984   0.782  12.223 -0.4257  0.1820 -0.5303
18833TIP3    H277991   6.044   0.720  12.099  1.8161  0.8447  0.1911
18834TIP3   OH277992   6.205   6.713  13.832 -0.0892  0.2006 -0.0517
18834TIP3    H177993   6.259   6.635  13.819  0.4165  0.4097  0.7322
18834TIP3    H277994   6.257   6.769  13.890 -0.3235  1.2438 -0.8180
18835TIP3   OH277995   0.481   5.695  13.651  0.0790 -0.5562 -0.6151
18835TIP3    H177996   0.509   5.775  13.695  0.8838 -1.0895 -0.1093
18835TIP3    H277997   0.548   5.681  13.584 -0.0925 -0.7635 -0.7418
18836TIP3   OH277998   4.216   1.613   3.621  0.2486 -0.1571  0.1116
18836TIP3    H177999   4.250   1.527   3.598  2.4050  0.1736  1.6518
18836TIP3    H278000   4.146   1.596   3.683  0.6686 -0.8261  0.4108
18837TIP3   OH278001   5.574   0.701   5.028 -0.1631  0.0487  0.6280
18837TIP3    H178002   5.596   0.792   5.045  1.2807 -0.3721  1.1096
18837TIP3    H278003   5.598   0.654   5.108  0.0033 -0.8911  0.0487
18838TIP3   OH278004   4.450   4.355  14.853 -0.5310 -0.8003 -0.3957
18838TIP3    H178005   4.412   4.442  14.849  0.0199 -0.5603 -0.5440
18838TIP3    H278006   4.539   4.366  14.819 -0.3144 -1.3371 -0.0178
18839TIP3   OH278007   3.352   2.337  12.298 -0.1040  0.5910  0.3341
18839TIP3    H178008   3.440   2.373  12.313  0.6637 -0.8729 -0.4980
18839TIP3    H278009   3.365   2.269  12.232 -1.0746 -2.8063  3.3704
18840TIP3   OH278010   0.552   3.678   0.656 -0.0120 -0.2501  0.0953
18840TIP3    H178011   0.528   3.604   0.600 -0.5923  0.5445 -0.7175
18840TIP3    H278012   0.577   3.747   0.595  2.4333 -0.3667  0.8532
18841TIP3   OH278013   4.097   5.889   4.901  0.0667  0.8433 -0.2556
18841TIP3    H178014   4.097   5.819   4.836 -1.3888 -0.0350  0.6161
18841TIP3    H278015   4.142   5.850   4.977  2.1534  2.0042 -0.8181
18842TIP3   OH278016   5.466   4.760  14.420  0.4741  0.4218 -0.4972
18842TIP3    H178017   5.442   4.849  14.392 -0.5669 -0.4892 -2.7892
18842TIP3    H278018   5.423   4.749  14.505 -1.7954  1.1621 -1.4780
18843TIP3   OH278019   3.986   0.545   6.812  0.1456 -0.5878 -0.0891
18843TIP3    H178020   3.922   0.512   6.749  0.6078  0.0676 -0.9403
18843TIP3    H278021   3.934   0.583   6.883 -0.4813  1.0963 -1.3703
18844TIP3   OH278022   2.858   4.521  11.787 -0.2500  0.1194 -0.1048
18844TIP3    H178023   2.769   4.524  11.753 -0.2664  0.5148 -0.0278
18844TIP3    H278024   2.849   4.488  11.877 -0.4488  1.3427  0.3361
18845TIP3   OH278025   0.880   5.450   1.981  0.0652 -0.2416  0.1887
18845TIP3    H178026   0.882   5.546   1.975  1.4500 -0.2598  0.0939
18845TIP3    H278027   0.792   5.430   2.012 -0.9222  0.9446 -1.6830
18846TIP3   OH278028   4.715   0.264   5.347 -0.0179  0.1020  0.2197
18846TIP3    H178029   4.751   0.314   5.274  0.8255  1.9500  1.8025
18846TIP3    H278030   4.788   0.256   5.409 -1.1467  0.1042  1.6068
18847TIP3   OH278031   1.390   3.002   4.368 -0.9002 -0.2099  0.3868
18847TIP3    H178032   1.333   2.940   4.321  0.1299 -0.2464 -0.8691
18847TIP3    H278033   1.416   2.955   4.447  0.8256 -1.9425 -1.1017
18848TIP3   OH278034   1.080   1.524   3.997 -0.1686  0.3100  0.0405
18848TIP3    H178035   1.121   1.447   4.036  0.8646  1.5584  1.5540
18848TIP3    H278036   0.988   1.500   3.988  0.0450 -0.9356  0.9036
18849TIP3   OH278037   6.458   4.985  12.470 -0.3429 -0.3972  0.5116
18849TIP3    H178038   6.433   5.076  12.453 -0.6334 -0.8887 -2.2227
18849TIP3    H278039   6.375   4.937  12.465 -0.1173 -0.8809  1.3531
18850TIP3   OH278040   1.664   0.717   3.873  0.5837  0.8114  0.6945
18850TIP3    H178041   1.662   0.700   3.779 -0.7225  0.8525  0.7030
18850TIP3    H278042   1.642   0.633   3.914  1.9058  0.5913  1.0139
18851TIP3   OH278043   1.570   3.165  11.796  0.0235  0.2368 -0.1201
18851TIP3    H178044   1.559   3.083  11.843  2.5945 -0.0810  0.0417
18851TIP3    H278045   1.641   3.210  11.841  1.7637  0.4752 -2.8651
18852TIP3   OH278046   4.422   4.727  12.924 -0.4312  0.1543  0.1259
18852TIP3    H178047   4.361   4.769  12.984  1.1376  2.5612  0.1500
18852TIP3    H278048   4.407   4.770  12.840 -0.2604 -0.7853 -0.4036
18853TIP3   OH278049   6.411   4.566   4.655 -0.1210  0.2796  0.3130
18853TIP3    H178050   6.373   4.646   4.619 -1.4434 -0.3624  0.2033
18853TIP3    H278051   6.388   4.498   4.592  0.1819 -0.3405  0.8632
18854TIP3   OH278052   1.619   2.864  14.918  0.5946 -0.7763 -0.0526
18854TIP3    H178053   1.578   2.842  14.834  1.8539 -2.3593 -0.2978
18854TIP3    H278054   1.712   2.843  14.906  0.7734 -1.2234  1.7866
18855TIP3   OH278055   6.062   3.385   2.134  0.7335  0.1052 -0.3099
18855TIP3    H178056   6.124   3.411   2.066  1.3190 -1.1774 -0.2821
18855TIP3    H278057   6.074   3.450   2.203  2.1617 -0.1953 -0.2439
18856TIP3   OH278058   2.267   3.489  15.177  0.2023  0.1489 -0.4331
18856TIP3    H178059   2.312   3.567  15.210 -2.7157  2.4838 -1.4702
18856TIP3    H278060   2.268   3.500  15.082 -0.1090 -1.1726 -0.5982
18857TIP3   OH278061   4.717   1.209  13.484  0.0542  0.3414 -0.0763
18857TIP3    H178062   4.799   1.161  13.482  0.0285  0.1454  1.7904
18857TIP3    H278063   4.696   1.226  13.392  1.0881 -1.4402 -0.6770
18858TIP3   OH278064   4.284   2.484  12.553  0.3223 -0.5916 -0.2689
18858TIP3    H178065   4.234   2.495  12.472  0.6267 -0.8549 -0.4936
18858TIP3    H278066   4.272   2.392  12.577 -0.9882 -0.1769  0.7963
18859TIP3   OH278067   4.877   6.449   2.781  0.1819 -0.1079  0.3414
18859TIP3    H178068   4.953   6.412   2.735 -1.3186 -1.3958 -1.2114
18859TIP3    H278069   4.852   6.526   2.729 -0.0067 -0.0918  0.4549
18860TIP3   OH278070   5.093   5.593  16.242 -0.0832 -0.0831 -0.2588
18860TIP3    H178071   5.158   5.654  16.207 -1.3611  1.6226  0.2127
18860TIP3    H278072   5.015   5.609  16.190 -0.8770 -0.2416  0.8552
18861TIP3   OH278073   0.301   1.813   3.894 -0.0591  0.4160 -0.1676
18861TIP3    H178074   0.275   1.875   3.963  0.6060 -0.4658  0.9092
18861TIP3    H278075   0.218   1.776   3.863 -0.5744  2.6305 -1.6469
18862TIP3   OH278076   5.415   2.577  16.585  0.1959 -0.2240  0.2320
18862TIP3    H178077   5.392   2.659  16.542  0.4499  0.0926  0.6914
18862TIP3    H278078   5.488   2.600  16.643  0.8499 -0.9534 -0.2828
18863TIP3   OH278079   4.861   1.025   4.883  0.0074  0.9515  0.1843
18863TIP3    H178080   4.911   1.007   4.962  0.4950  0.0476 -0.3006
18863TIP3    H278081   4.887   1.113   4.857  0.7374  0.8042  0.3943
18864TIP3   OH278082   0.856   6.769  15.234  0.4617 -0.4148 -0.4013
18864TIP3    H178083   0.812   6.834  15.180 -1.7166 -0.8846  0.6773
18864TIP3    H278084   0.945   6.802  15.244 -0.1298  1.5688 -1.1838
18865TIP3   OH278085   3.993   1.205   0.549 -0.5015 -0.5906  0.1857
18865TIP3    H178086   3.947   1.235   0.470  0.1695 -0.6674 -0.2393
18865TIP3    H278087   4.063   1.148   0.516  0.3344  0.0726  0.7801
18866TIP3   OH278088   1.708   6.748  13.745 -0.0252 -1.0264  0.0411
18866TIP3    H178089   1.730   6.661  13.780 -1.0596 -1.1127  0.5081
18866TIP3    H278090   1.779   6.804  13.776  0.8976 -1.7764 -0.6418
18867TIP3   OH278091   1.203   5.626   2.214  0.3547  0.4611 -0.2436
18867TIP3    H178092   1.203   5.704   2.269 -0.5656  1.0047 -0.9760
18867TIP3    H278093   1.131   5.572   2.248 -0.0244  0.6633 -0.7042
18868TIP3   OH278094   1.175   3.361  12.932  0.1918 -0.0998  0.1792
18868TIP3    H178095   1.259   3.380  12.973 -1.4263  1.1495  3.2836
18868TIP3    H278096   1.166   3.427  12.863  2.1770 -0.9812 -0.9814
18869TIP3   OH278097   6.302   0.643   2.539  0.1039 -0.2267 -0.1635
18869TIP3    H178098   6.274   0.734   2.541  0.8507  0.0076  0.0862
18869TIP3    H278099   6.292   0.614   2.630 -0.1158 -0.3934 -0.2392
18870TIP3   OH278100   4.378   0.427  12.176 -0.3577 -0.6740  0.5228
18870TIP3    H178101   4.380   0.367  12.251 -0.6397 -0.7183  0.4983
18870TIP3    H278102   4.364   0.514  12.215 -0.4164 -0.6860  0.5296
18871TIP3   OH278103   2.637   1.168   3.057  0.2916 -0.3087 -0.0694
18871TIP3    H178104   2.657   1.250   3.012  0.5802 -0.6625 -0.5919
18871TIP3    H278105   2.587   1.117   2.993 -0.2588 -0.3718  0.4040
18872TIP3   OH278106   3.399   1.734   0.318 -0.2826 -1.0812 -0.0254
18872TIP3    H178107   3.490   1.754   0.340 -0.5532  1.4867 -0.8440
18872TIP3    H278108   3.366   1.687   0.394  1.2898 -0.5926  1.0090
18873TIP3   OH278109   1.524   5.269  16.914 -0.1456 -0.0539  0.3334
18873TIP3    H178110   1.532   5.197  16.850 -0.9796 -1.1391  1.4019
18873TIP3    H278111   1.438   5.256  16.953  1.0588 -0.5741  3.0206
18874TIP3   OH278112   1.907   0.133  13.736  0.2257 -0.4431  0.3979
18874TIP3    H178113   2.002   0.134  13.726  0.0819 -0.7144 -1.4360
18874TIP3    H278114   1.878   0.216  13.698 -0.2402  0.0294  1.7262
18875TIP3   OH278115   4.898   3.107  13.480 -0.0470 -0.3340  0.5343
18875TIP3    H178116   4.966   3.110  13.547  0.6984  1.1442 -0.2234
18875TIP3    H278117   4.869   3.016  13.478  2.4189 -1.1863  0.3910
18876TIP3   OH278118   2.400   5.428  15.421  0.2681  0.3479 -0.4133
18876TIP3    H178119   2.442   5.342  15.419  0.0429  0.1935  0.6788
18876TIP3    H278120   2.473   5.490  15.413  0.4698  0.0595 -0.8177
18877TIP3   OH278121   3.462   3.887   5.610  0.4616  0.3089 -0.2135
18877TIP3    H178122   3.456   3.983   5.615  3.0267  0.4969  0.8719
18877TIP3    H278123   3.398   3.856   5.675 -0.8224  1.2219 -0.9940
18878TIP3   OH278124   4.667   0.198   5.810 -0.6819 -0.2176 -0.2187
18878TIP3    H178125   4.761   0.214   5.816 -0.3693 -1.7016 -0.6941
18878TIP3    H278126   4.629   0.283   5.786  0.2737  0.9150  2.0040
18879TIP3   OH278127   5.697   3.987   1.024 -0.2886 -0.4149  0.2072
18879TIP3    H178128   5.741   4.068   1.049  0.5796 -0.8992  0.2690
18879TIP3    H278129   5.605   4.012   1.016  0.0334  0.6919 -0.2766
18880TIP3   OH278130   5.212   2.337  13.722  0.5027 -0.2433  0.0367
18880TIP3    H178131   5.183   2.409  13.778  2.4583  0.3725  0.3296
18880TIP3    H278132   5.266   2.282  13.779  0.3070 -1.0853 -0.5785
18881TIP3   OH278133   1.695   2.642   5.411 -0.2324 -0.3378 -0.1551
18881TIP3    H178134   1.722   2.560   5.369 -1.3640  0.1447 -1.9211
18881TIP3    H278135   1.606   2.624   5.442  0.4655 -0.5843  1.8918
18882TIP3   OH278136   0.315   4.587  15.050 -0.4271 -0.0364  0.2282
18882TIP3    H178137   0.323   4.672  15.094  0.0778 -0.1232  0.3155
18882TIP3    H278138   0.288   4.527  15.119  0.9838 -0.2975  0.5792
18883TIP3   OH278139   1.436   3.507   2.591 -0.2005  0.4949  0.7106
18883TIP3    H178140   1.472   3.582   2.638  1.0189  0.0278  0.5547
18883TIP3    H278141   1.399   3.451   2.659  1.4820 -0.1433  1.1363
18884TIP3   OH278142   0.519   6.717   2.268 -0.0398 -0.3315  0.4039
18884TIP3    H178143   0.457   6.741   2.199  1.2496  0.9500 -0.3602
18884TIP3    H278144   0.493   6.770   2.344 -0.3398 -0.3736  0.3312
18885TIP3   OH278145   1.041   5.409   4.884 -0.0594  0.1742 -0.5874
18885TIP3    H178146   0.957   5.450   4.867  0.7338  2.0485 -0.2073
18885TIP3    H278147   1.031   5.319   4.853 -2.4876  0.0679  0.3101
18886TIP3   OH278148   1.816   2.388  15.325  0.1739  0.5349 -0.3322
18886TIP3    H178149   1.758   2.323  15.365  0.1409  1.3439  0.9944
18886TIP3    H278150   1.758   2.460  15.301  0.5536  1.1808  0.6394
18887TIP3   OH278151   5.160   0.559  12.782  0.7873  0.2377 -0.1114
18887TIP3    H178152   5.241   0.511  12.763  0.9563  0.7630 -0.7426
18887TIP3    H278153   5.161   0.569  12.877  0.9726 -0.6156 -0.0103
18888TIP3   OH278154   0.794   3.802  12.203  0.1807 -0.1091 -0.9286
18888TIP3    H178155   0.840   3.809  12.286 -0.3899 -1.5036 -0.4555
18888TIP3    H278156   0.861   3.777  12.140  0.6317  1.0408 -0.9130
18889TIP3   OH278157   4.037   5.843   3.938  0.1688 -0.3639  0.3283
18889TIP3    H178158   4.022   5.805   3.851 -1.5751  0.2032  0.3427
18889TIP3    H278159   4.102   5.912   3.923 -0.0442 -0.3315 -0.5047
18890TIP3   OH278160   3.315   5.639   0.624  0.4747  0.4202  0.0751
18890TIP3    H178161   3.289   5.657   0.534 -0.5736 -0.1938  0.2425
18890TIP3    H278162   3.326   5.726   0.663 -2.0641  0.7891  0.1748
18891TIP3   OH278163   2.450   5.942   5.630  0.3189 -0.7423  0.6658
18891TIP3    H178164   2.381   5.879   5.605  0.5414 -0.3813 -0.9950
18891TIP3    H278165   2.443   5.949   5.725 -2.2391 -0.3964  0.5255
18892TIP3   OH278166   0.116   1.992  11.631  0.1775  0.9596 -0.3085
18892TIP3    H178167   0.158   1.908  11.612  0.0268  0.4096  1.5556
18892TIP3    H278168   0.140   2.048  11.557  0.9519 -0.4749 -1.1997
18893TIP3   OH278169   2.830   1.366  16.227 -0.0251 -0.8378 -0.3508
18893TIP3    H178170   2.773   1.407  16.293  0.2999 -0.2346 -0.4446
18893TIP3    H278171   2.769   1.328  16.164 -0.3795 -2.2426  0.7599
18894TIP3   OH278172   3.768   1.040  11.692  0.0951 -0.1435  0.6519
18894TIP3    H178173   3.773   1.103  11.620 -1.7265  0.3757  0.9318
18894TIP3    H278174   3.742   0.958  11.651 -0.2116 -0.0329  0.6265
18895TIP3   OH278175   5.333   1.263  13.206 -0.2933 -0.2663 -0.0273
18895TIP3    H178176   5.374   1.341  13.171 -2.5645  0.1304 -2.0783
18895TIP3    H278177   5.405   1.203  13.225  1.2842  0.7406 -2.4447
18896TIP3   OH278178   3.172   6.394   1.031 -0.1257 -0.0066 -0.0452
18896TIP3    H178179   3.189   6.418   0.940  0.6396 -0.5746 -0.0588
18896TIP3    H278180   3.133   6.307   1.026  1.6391 -0.8607  0.2400
18897TIP3   OH278181   3.189   5.517   3.150  0.2299  0.7690  0.0514
18897TIP3    H178182   3.159   5.515   3.241  1.8123  2.5844  0.6637
18897TIP3    H278183   3.265   5.458   3.148 -0.8781 -0.7090 -0.5736
18898TIP3   OH278184   1.769   2.489   0.216 -0.3699  0.7970 -0.1279
18898TIP3    H178185   1.761   2.400   0.183  0.2460  0.8853 -0.5254
18898TIP3    H278186   1.850   2.490   0.265 -0.2056  1.2186 -0.3976
18899TIP3   OH278187   2.592   1.988  12.146 -0.6760  0.8296 -0.6054
18899TIP3    H178188   2.641   2.062  12.113 -1.0570  1.0877 -0.6017
18899TIP3    H278189   2.507   2.024  12.171 -0.7866  0.4355 -0.3925
18900TIP3   OH278190   6.479   6.194   2.778 -0.3756  0.0639  0.8274
18900TIP3    H178191   6.427   6.117   2.800 -1.0377 -0.1015 -1.0836
18900TIP3    H278192   6.423   6.244   2.718  1.2387  0.3884 -0.4912
18901TIP3   OH278193   2.713   1.231  12.843  0.2233 -0.0872 -0.2360
18901TIP3    H178194   2.633   1.234  12.896 -0.6931  0.0575 -1.5719
18901TIP3    H278195   2.711   1.311  12.792  3.4338  2.1448  2.6467
18902TIP3   OH278196   0.583   0.639   1.791 -0.0196  0.1761 -0.1454
18902TIP3    H178197   0.545   0.596   1.867  0.7120 -1.5537 -0.7057
18902TIP3    H278198   0.673   0.606   1.788  0.5092  1.5997 -0.7478
18903TIP3   OH278199   6.597   3.316   1.042  0.6091 -0.3966  0.2726
18903TIP3    H178200   6.664   3.355   0.986 -0.2608 -0.4742 -0.8545
18903TIP3    H278201   6.613   3.221   1.035 -0.7571 -0.5212 -1.5028
18904TIP3   OH278202   1.215   3.796   5.897 -0.8335  0.2829  0.3048
18904TIP3    H178203   1.124   3.771   5.909 -1.1149  0.9244 -0.3609
18904TIP3    H278204   1.226   3.801   5.802  0.2365 -0.9570  0.3392
18905TIP3   OH278205   4.191   1.928   5.837 -0.4190  0.1327 -0.5047
18905TIP3    H178206   4.143   1.902   5.759 -0.1110 -0.3078 -0.5502
18905TIP3    H278207   4.188   2.024   5.836 -1.2324  0.1087 -0.5402
18906TIP3   OH278208   3.063   6.207  15.361  0.1877  0.4468 -0.1453
18906TIP3    H178209   2.977   6.189  15.398 -0.1021  1.8753 -0.0674
18906TIP3    H278210   3.045   6.253  15.280  0.8626  2.1672  0.6353
18907TIP3   OH278211   2.744   6.758  17.069  0.1796  0.1797 -0.0829
18907TIP3    H178212   2.654   6.726  17.065 -0.1759  0.8387  1.6813
18907TIP3    H278213   2.789   6.712  16.998 -1.5622 -0.0479 -1.0957
18908TIP3   OH278214   1.737   3.260  10.908  0.0579  0.4238  0.9339
18908TIP3    H178215   1.741   3.174  10.949  0.6562 -0.2294 -0.4122
18908TIP3    H278216   1.782   3.318  10.970  0.5967 -0.4436  1.3825
18909TIP3   OH278217   0.193   5.836   0.313  0.6601 -0.1198 -0.2659
18909TIP3    H178218   0.107   5.826   0.353  0.7626  1.0029  0.2905
18909TIP3    H278219   0.192   5.777   0.238 -1.0112  0.6740 -0.9103
18910TIP3   OH278220   4.018   4.471   1.635  0.7889  0.2188 -0.7368
18910TIP3    H178221   3.931   4.471   1.676  0.6466 -2.7999 -0.8166
18910TIP3    H278222   4.078   4.493   1.706  0.2786 -2.0750  0.5276
18911TIP3   OH278223   6.044   6.602  15.025  0.1020 -0.5495 -0.5507
18911TIP3    H178224   6.004   6.631  15.106 -0.4022  0.2846 -1.0851
18911TIP3    H278225   6.036   6.506  15.027 -0.5509 -0.4862  0.0411
18912TIP3   OH278226   5.796   4.217  12.604  0.9116 -0.1923  0.0849
18912TIP3    H178227   5.810   4.309  12.627  2.4949 -0.3847  0.0025
18912TIP3    H278228   5.773   4.175  12.687  0.8676  0.1553  0.2531
18913TIP3   OH278229   3.674   1.800   0.348 -0.2326  0.0247  0.4065
18913TIP3    H178230   3.702   1.850   0.425 -1.1350  0.4665  0.4632
18913TIP3    H278231   3.677   1.863   0.276  1.3710 -0.5869 -0.0948
18914TIP3   OH278232   6.752   5.084  13.928  0.6972  0.4132 -0.2967
18914TIP3    H178233   6.683   5.079  13.862  0.0401 -1.1350  0.4439
18914TIP3    H278234   6.808   5.008  13.910  1.1539  0.6186  0.2315
18915TIP3   OH278235   4.780   1.731   2.075 -0.4283 -0.4727 -0.4539
18915TIP3    H178236   4.812   1.727   1.984 -0.3430  0.0744 -0.4540
18915TIP3    H278237   4.829   1.663   2.121 -0.4785 -0.7617 -0.8198
18916TIP3   OH278238   4.679   2.989   2.109  0.1402 -1.1605  0.4754
18916TIP3    H178239   4.619   2.929   2.065  0.8602 -1.9547  0.5587
18916TIP3    H278240   4.709   2.942   2.187 -0.8338  0.0860  1.6591
18917TIP3   OH278241   0.678   6.059  12.013 -0.2555  0.1287  0.3485
18917TIP3    H178242   0.649   6.107  11.935 -1.9407 -0.8647  0.3020
18917TIP3    H278243   0.757   6.014  11.985  0.3592  1.4651 -0.1264
18918TIP3   OH278244   4.235   4.619   3.603 -0.6432 -0.0978 -0.6572
18918TIP3    H178245   4.139   4.628   3.604 -0.7941 -1.4164 -1.5934
18918TIP3    H278246   4.253   4.549   3.666 -0.3185 -0.0765 -0.7245
18919TIP3   OH278247   5.865   4.757  12.644 -0.2778  0.2050 -0.3785
18919TIP3    H178248   5.866   4.772  12.739 -0.5321  0.3478 -0.3961
18919TIP3    H278249   5.933   4.692  12.629  0.8671  1.3221 -0.2841
18920TIP3   OH278250   0.159   1.865  14.777  0.1632 -0.0601  0.5048
18920TIP3    H178251   0.221   1.806  14.735 -0.5311 -0.1457 -0.4221
18920TIP3    H278252   0.097   1.888  14.708 -1.5021 -0.8632  1.6547
18921TIP3   OH278253   2.390   2.095  11.158  0.4543 -0.4461  0.2418
18921TIP3    H178254   2.456   2.132  11.217  0.4772 -0.4034  0.1898
18921TIP3    H278255   2.439   2.068  11.080  0.3684 -0.1436  0.0811
18922TIP3   OH278256   6.608   4.936  12.678 -0.2931 -1.0143  0.4602
18922TIP3    H178257   6.541   4.926  12.611  0.5839 -0.3652 -0.5565
18922TIP3    H278258   6.651   5.018  12.656  2.4295 -2.5424 -0.4224
18923TIP3   OH278259   0.313   3.397   0.855 -0.4415 -0.3313 -0.1761
18923TIP3    H178260   0.297   3.491   0.851  2.0917  0.3143  2.0019
18923TIP3    H278261   0.394   3.384   0.806 -0.8020 -1.4176 -0.5071
18924TIP3   OH278262   2.508   3.683  16.503 -0.6067 -0.3159  0.3552
18924TIP3    H178263   2.499   3.587  16.507 -3.1626 -0.1667 -0.0347
18924TIP3    H278264   2.533   3.709  16.591 -0.1875 -1.3062  0.5465
18925TIP3   OH278265   5.630   0.885  10.614 -0.1288 -0.6391 -0.2965
18925TIP3    H178266   5.588   0.967  10.588 -1.5335 -1.8648 -2.1474
18925TIP3    H278267   5.653   0.842  10.532  3.0315 -0.9829  0.6169
18926TIP3   OH278268   5.579   4.865   1.282 -0.3191 -0.5434  0.0210
18926TIP3    H178269   5.613   4.888   1.368 -2.2278  1.0985  0.4083
18926TIP3    H278270   5.486   4.849   1.296 -1.0516  1.4641 -1.9781
18927TIP3   OH278271   1.691   0.326  17.145  0.0955 -0.3561  0.2412
18927TIP3    H178272   1.726   0.376  17.219  1.8461 -0.8936 -0.1962
18927TIP3    H278273   1.762   0.269  17.118 -1.3660 -2.0799 -0.2073
18928TIP3   OH278274   6.135   0.051   1.191  0.4681 -0.2455 -0.1759
18928TIP3    H178275   6.164   0.142   1.186  0.3174 -0.2630 -1.8640
18928TIP3    H278276   6.210   0.004   1.227  0.3336  0.6093  1.3169
18929TIP3   OH278277   4.538   4.824  11.420  0.1747  0.8988 -0.3594
18929TIP3    H178278   4.560   4.878  11.495 -1.3706 -0.1916  0.9652
18929TIP3    H278279   4.447   4.799  11.435  0.7342 -1.8498 -0.9849
18930TIP3   OH278280   2.837   3.429  15.804  0.5650 -0.3719 -0.2696
18930TIP3    H178281   2.756   3.462  15.766  0.5142 -1.3398 -1.0482
18930TIP3    H278282   2.848   3.479  15.884 -0.4374  0.2562 -0.5055
18931TIP3   OH278283   0.713   1.494  16.699 -0.1506  0.8036 -0.4430
18931TIP3    H178284   0.802   1.518  16.725  0.4366  0.0431 -1.6568
18931TIP3    H278285   0.683   1.569  16.647 -0.5119  1.3731  0.5540
18932TIP3   OH278286   6.801   0.503   4.255 -0.7701 -0.1634 -0.6462
18932TIP3    H178287   6.788   0.464   4.341 -1.2212  0.8095 -0.2552
18932TIP3    H278288   6.730   0.566   4.246 -0.8298 -0.3693 -1.8089
18933TIP3   OH278289   4.369   1.756   4.041  0.3981  0.6139 -0.0753
18933TIP3    H178290   4.332   1.844   4.051  0.4727  0.8065 -1.2826
18933TIP3    H278291   4.355   1.736   3.948  2.3537  0.2460 -0.3285
18934TIP3   OH278292   4.867   5.271   1.561 -0.1801  0.1476  0.2939
18934TIP3    H178293   4.795   5.335   1.568 -0.1265  0.1523  0.7852
18934TIP3    H278294   4.892   5.253   1.651 -0.2724 -0.6631  0.1635
18935TIP3   OH278295   6.413   5.158   2.533  0.2411  0.1184 -0.5112
18935TIP3    H178296   6.462   5.076   2.539  0.9589  0.5751  0.0598
18935TIP3    H278297   6.480   5.225   2.523 -0.1814  0.8536  1.2282
18936TIP3   OH278298   1.130   3.681  15.071 -0.2045  0.0705  0.2333
18936TIP3    H178299   1.134   3.605  15.129  0.5881  0.6641  0.9776
18936TIP3    H278300   1.156   3.647  14.985  2.9015 -0.0064  1.0920
18937TIP3   OH278301   1.377   6.006  10.748  0.0877 -0.2027 -0.0435
18937TIP3    H178302   1.295   6.056  10.748  1.5194  2.2670  0.4359
18937TIP3    H278303   1.382   5.968  10.661  0.0320  2.4509 -1.2824
18938TIP3   OH278304   2.522   0.046   3.704 -0.0864 -0.3484 -0.0455
18938TIP3    H178305   2.536  -0.038   3.661  1.6291 -1.3222  2.2332
18938TIP3    H278306   2.609   0.072   3.735 -0.7361  1.8351  0.1184
18939TIP3   OH278307   3.598   1.450   4.553 -0.1202  0.3412 -0.4823
18939TIP3    H178308   3.689   1.468   4.577 -0.4445  0.3939  0.7882
18939TIP3    H278309   3.549   1.524   4.588 -0.8929 -0.6803  0.6910
18940TIP3   OH278310   1.844   2.751   1.593 -0.8304 -0.0081  0.1635
18940TIP3    H178311   1.750   2.759   1.609 -0.8566  0.4983 -0.2213
18940TIP3    H278312   1.851   2.746   1.498 -0.3257  2.2755  0.0209
18941TIP3   OH278313   5.935   6.787  12.373  0.3107  0.0276  0.5684
18941TIP3    H178314   5.860   6.769  12.316  1.8855  0.8768 -1.9398
18941TIP3    H278315   5.940   6.883  12.376  2.1191  0.0104 -0.5336
18942TIP3   OH278316   4.542   2.069   2.630 -0.1439  0.1714  0.4086
18942TIP3    H178317   4.628   2.049   2.593 -0.2551  1.4637 -0.6281
18942TIP3    H278318   4.487   2.086   2.553 -1.2780 -0.4154  1.0678
18943TIP3   OH278319   4.142   6.641  15.599  0.2791  0.0923 -0.2208
18943TIP3    H178320   4.215   6.703  15.586  0.7700 -0.4552 -0.1366
18943TIP3    H278321   4.174   6.581  15.666  0.3122 -0.9900 -1.1663
18944TIP3   OH278322   1.794   0.022   4.755 -0.5665 -0.4979  0.6174
18944TIP3    H178323   1.843   0.007   4.836 -1.4710  2.5625  1.8694
18944TIP3    H278324   1.834   0.100   4.717 -2.4303  0.2224  0.0161
18945TIP3   OH278325   0.003   0.179  16.892 -0.1421 -0.5797 -0.4378
18945TIP3    H178326   0.076   0.234  16.861  0.2469 -0.0408  1.3210
18945TIP3    H278327  -0.065   0.241  16.917 -0.5064 -1.0028 -0.3735
18946TIP3   OH278328   2.110   2.879  17.110 -0.2841 -0.2607  0.0562
18946TIP3    H178329   2.035   2.837  17.068 -1.1060  0.1591  1.0743
18946TIP3    H278330   2.074   2.955  17.155  0.6465 -0.4049  1.1017
18947TIP3   OH278331   0.377   2.229  16.775 -0.8213  0.1030 -0.0565
18947TIP3    H178332   0.422   2.290  16.834  1.4548 -1.0194 -0.5251
18947TIP3    H278333   0.312   2.282  16.730 -1.1668  1.4470  1.9052
18948TIP3   OH278334   2.040   3.560   6.236  0.6251  0.7448 -0.3176
18948TIP3    H178335   2.111   3.535   6.295  0.4860  2.5220  0.6932
18948TIP3    H278336   1.967   3.580   6.294 -0.3165  0.1524 -1.2725
18949TIP3   OH278337   5.999   6.092   3.467 -0.1668 -0.2799 -0.0829
18949TIP3    H178338   5.908   6.062   3.475 -0.7690  1.1158 -1.2932
18949TIP3    H278339   5.992   6.185   3.447  1.6000  0.3107  1.7241
18950TIP3   OH278340   0.869   4.137  14.258  0.2609  0.2672 -0.6015
18950TIP3    H178341   0.873   4.190  14.178 -1.4890  0.8406 -0.3571
18950TIP3    H278342   0.826   4.194  14.322 -0.6538 -1.0456 -0.0028
18951TIP3   OH278343   5.507   3.898   3.833 -0.2246 -0.1295 -0.3080
18951TIP3    H178344   5.579   3.960   3.845 -0.5167  0.2187 -0.3349
18951TIP3    H278345   5.550   3.813   3.824  0.1035 -0.2058  1.5687
18952TIP3   OH278346   4.655   1.207  13.890  0.4738  0.4881  0.1479
18952TIP3    H178347   4.583   1.147  13.868  0.5789  0.7945 -1.0879
18952TIP3    H278348   4.632   1.241  13.976 -2.3571  2.7366 -1.3284
18953TIP3   OH278349   3.022   1.282  12.073 -0.0379 -0.3309  0.8914
18953TIP3    H178350   2.997   1.190  12.074 -1.4832  0.0273  0.9315
18953TIP3    H278351   2.962   1.322  12.009  0.7599  0.5303  0.6633
18954TIP3   OH278352   6.178   2.963  13.435 -0.0821 -0.1865  0.3735
18954TIP3    H178353   6.169   3.035  13.497 -0.5119 -0.2868  0.4247
18954TIP3    H278354   6.216   3.003  13.357 -0.2207  0.0756  0.4397
18955TIP3   OH278355   5.134   6.650  16.177  0.0754  0.3362 -0.0140
18955TIP3    H178356   5.107   6.740  16.193 -0.2434  0.5366 -1.5773
18955TIP3    H278357   5.077   6.619  16.107  0.0073 -1.1850  0.6629
18956TIP3   OH278358   1.834   6.405  10.215 -0.4711 -0.2163 -0.6195
18956TIP3    H178359   1.903   6.341  10.230  0.1549 -0.4645 -3.7814
18956TIP3    H278360   1.862   6.484  10.262  0.8438 -0.9876 -0.0838
18957TIP3   OH278361   3.353   0.966   5.053  0.1297 -0.2153  0.5743
18957TIP3    H178362   3.329   1.058   5.043  0.2053 -0.3804 -1.3817
18957TIP3    H278363   3.337   0.948   5.146  0.5218  1.8651  1.1113
18958TIP3   OH278364   1.154   2.083  15.247 -0.0208  0.1165 -0.2891
18958TIP3    H178365   1.149   2.168  15.289 -1.2645  0.0695 -0.3078
18958TIP3    H278366   1.096   2.090  15.170  0.2703 -0.5725 -0.5854
18959TIP3   OH278367   3.852   4.191   2.828 -0.3562 -0.2013 -0.5951
18959TIP3    H178368   3.825   4.147   2.909  0.7862  0.7424  0.3344
18959TIP3    H278369   3.923   4.136   2.795  1.2626  1.0152  0.7157
18960TIP3   OH278370   5.598   0.661   3.741 -0.0288 -0.0459 -0.5973
18960TIP3    H178371   5.678   0.711   3.729  0.1429  0.0033  0.6263
18960TIP3    H278372   5.589   0.651   3.836 -1.4308 -0.1182 -0.7042
18961TIP3   OH278373   6.653   1.004   0.620 -0.3783 -0.0073  0.3578
18961TIP3    H178374   6.593   0.930   0.625 -0.0712 -0.2720  0.1364
18961TIP3    H278375   6.657   1.025   0.527 -0.4892  0.3116  0.4231
18962TIP3   OH278376   6.649   0.525   0.946 -0.4084  0.6497 -0.3729
18962TIP3    H178377   6.702   0.590   0.991 -0.5147  0.0403  0.6691
18962TIP3    H278378   6.703   0.446   0.947 -1.4885 -0.1082  1.1179
18963TIP3   OH278379   6.659   5.749   0.832 -0.2411 -0.4008  0.3884
18963TIP3    H178380   6.747   5.746   0.796  0.0508  1.0595  0.9278
18963TIP3    H278381   6.634   5.841   0.827 -0.4774 -0.2337  3.1652
18964TIP3   OH278382   0.505   6.762  11.413 -0.2563  0.2268 -0.2776
18964TIP3    H178383   0.504   6.729  11.503  2.6825 -1.1818 -0.6437
18964TIP3    H278384   0.415   6.752  11.382 -0.8798 -1.1946  1.8346
18965TIP3   OH278385   1.870   0.125   0.453  0.0504 -0.4095 -0.0932
18965TIP3    H178386   1.903   0.195   0.510 -0.6676 -1.1529  1.2877
18965TIP3    H278387   1.865   0.048   0.510 -0.2615 -1.3026 -1.2875
18966TIP3   OH278388   1.546   2.218   3.002 -0.2765  0.7214 -0.0747
18966TIP3    H178389   1.460   2.180   2.982 -0.6456  2.8195 -3.1047
18966TIP3    H278390   1.609   2.153   2.970 -0.7992  0.3725 -0.4061
18967TIP3   OH278391   0.207   0.276  14.956  0.0188 -0.3969  0.1709
18967TIP3    H178392   0.152   0.276  15.034  1.3601  1.3845  1.2028
18967TIP3    H278393   0.152   0.313  14.887 -0.6184 -0.2704  0.7397
18968TIP3   OH278394   4.224   5.858   1.608  0.6272  0.8086  0.2522
18968TIP3    H178395   4.171   5.935   1.629  1.7506  1.2336  1.6648
18968TIP3    H278396   4.314   5.892   1.600  0.8461 -0.0299 -1.2671
18969TIP3   OH278397   5.023   0.918  14.052 -0.5918 -0.1366  0.2353
18969TIP3    H178398   5.056   0.903  14.141 -2.4066 -1.8950  0.7151
18969TIP3    H278399   5.010   0.830  14.017 -2.2506  0.4810 -0.8193
18970TIP3   OH278400   1.138   1.233   4.447 -0.0899 -0.0497  0.7280
18970TIP3    H178401   1.068   1.194   4.499  0.9906 -2.8636  0.2536
18970TIP3    H278402   1.204   1.258   4.512 -1.3377  2.4115  1.1572
18971TIP3   OH278403   4.989   5.405  11.818  0.1467  0.4169  0.0615
18971TIP3    H178404   4.915   5.364  11.773 -0.3084 -0.0241  1.1784
18971TIP3    H278405   4.967   5.398  11.911  1.0039  1.4230  0.3547
18972TIP3   OH278406   3.217   4.536   2.798 -0.1867 -0.2928 -0.3070
18972TIP3    H178407   3.216   4.617   2.747  0.3826  0.9980  1.6360
18972TIP3    H278408   3.278   4.479   2.750 -0.3188  0.5389 -1.5177
18973TIP3   OH278409   4.624   5.461   1.529 -0.3523  0.1665 -0.6349
18973TIP3    H178410   4.570   5.404   1.474 -1.0788  1.3846 -1.2348
18973TIP3    H278411   4.608   5.549   1.495 -0.3617  0.8978  1.1550
18974TIP3   OH278412   5.895   2.411  11.691  0.4676 -0.3445 -0.0844
18974TIP3    H178413   5.967   2.351  11.710  0.3858 -0.7115 -0.8508
18974TIP3    H278414   5.842   2.364  11.626  1.0988  1.0721 -1.6914
18975TIP3   OH278415   5.617   3.179  16.420  0.2973 -0.9266 -0.2626
18975TIP3    H178416   5.669   3.201  16.498  0.2643 -0.9495 -0.2329
18975TIP3    H278417   5.588   3.264  16.386  0.3738 -0.9123 -0.2925
18976TIP3   OH278418   2.174   2.926   1.664 -0.6562 -0.9291  0.3284
18976TIP3    H178419   2.219   2.985   1.725  0.0355 -1.4046  0.2827
18976TIP3    H278420   2.175   2.971   1.580 -0.9744 -0.5908  0.5028
18977TIP3   OH278421   4.596   6.579   6.195  0.2677 -0.0310  0.7140
18977TIP3    H178422   4.554   6.602   6.277 -2.2306 -0.1436 -0.4592
18977TIP3    H278423   4.591   6.483   6.191  0.0053 -0.0038  0.2671
18978TIP3   OH278424   0.423   1.803  13.604  0.1846 -0.3623 -0.4943
18978TIP3    H178425   0.493   1.857  13.642 -1.4839  0.1619  2.0405
18978TIP3    H278426   0.382   1.860  13.539  1.5613 -0.4094 -1.4545
18979TIP3   OH278427   4.438   5.777   2.146 -0.8565 -0.0879 -0.7565
18979TIP3    H178428   4.516   5.721   2.150 -1.0512 -0.2788  2.3403
18979TIP3    H278429   4.403   5.776   2.234 -3.7749  0.9286 -1.7931
18980TIP3   OH278430   1.177   2.830  12.953  0.2625  0.3204 -0.0765
18980TIP3    H178431   1.141   2.908  12.994  0.5408  0.8695 -0.8409
18980TIP3    H278432   1.119   2.759  12.980  0.9222  0.5004  1.9345
18981TIP3   OH278433   5.178   4.365   1.151  0.4920 -0.0005  0.6090
18981TIP3    H178434   5.091   4.404   1.141  0.0804 -1.0931 -0.1704
18981TIP3    H278435   5.195   4.322   1.068  1.8266  0.2625  0.7234
18982TIP3   OH278436   0.457   0.901  11.407 -0.8928  0.0713 -0.1146
18982TIP3    H178437   0.519   0.849  11.458  0.8390  0.1534 -2.0162
18982TIP3    H278438   0.380   0.845  11.398 -0.1187 -1.0741  0.1842
18983TIP3   OH278439   6.140   2.769   5.292 -0.2930 -0.4836 -1.0729
18983TIP3    H178440   6.097   2.846   5.330 -0.2947 -1.0954  0.2022
18983TIP3    H278441   6.218   2.804   5.250 -0.3108  0.2241 -0.5429
18984TIP3   OH278442   0.859   4.827  15.363 -0.1497 -0.1540  0.2182
18984TIP3    H178443   0.948   4.820  15.328 -0.7984 -1.3984 -1.2671
18984TIP3    H278444   0.815   4.891  15.307 -0.1276  0.7034  1.1482
18985TIP3   OH278445   3.688   5.778  11.049  0.2443  0.1178 -0.3089
18985TIP3    H178446   3.657   5.840  11.115 -0.5861  0.2595 -0.8088
18985TIP3    H278447   3.705   5.831  10.972 -0.9415 -0.3088 -0.8975
18986TIP3   OH278448   4.633   6.360  14.158 -0.5511 -0.1359 -0.1370
18986TIP3    H178449   4.685   6.348  14.238 -0.5460 -1.3530 -0.2996
18986TIP3    H278450   4.601   6.272  14.137  0.4708 -0.0803 -2.1541
18987TIP3   OH278451   5.244   6.640  14.622 -0.0072 -0.1177 -0.4386
18987TIP3    H178452   5.258   6.718  14.568  1.6215 -0.1029 -0.0629
18987TIP3    H278453   5.296   6.572  14.580 -1.8204 -1.1857 -1.0583
18988TIP3   OH278454   5.070   4.768   2.044  0.6216  0.0447  0.7478
18988TIP3    H178455   5.115   4.788   1.962 -1.4729  1.9629 -0.0641
18988TIP3    H278456   5.034   4.853   2.072 -1.5283 -1.1356  1.8464
18989TIP3   OH278457   2.854   1.133  11.814 -0.5712  0.5049 -0.6261
18989TIP3    H178458   2.813   1.179  11.887 -1.1583 -0.8999 -0.0238
18989TIP3    H278459   2.830   1.183  11.737 -1.3811  1.0715 -0.0199
18990TIP3   OH278460   2.291   3.325   4.195  0.3141  0.5687  0.0563
18990TIP3    H178461   2.384   3.307   4.189  0.3352  0.1010  1.4831
18990TIP3    H278462   2.249   3.239   4.192  0.1083  0.5708  1.9303
18991TIP3   OH278463   0.708   3.340   0.242  0.0005  0.5513 -0.4621
18991TIP3    H178464   0.661   3.348   0.158 -0.2143 -2.4075 -0.7506
18991TIP3    H278465   0.639   3.323   0.306  0.3052  1.1416  0.0313
18992TIP3   OH278466   0.961   2.010   3.893  0.2396 -0.3803 -0.3903
18992TIP3    H178467   0.916   1.945   3.839  0.6321 -1.0203  0.0451
18992TIP3    H278468   0.933   1.991   3.982  3.1618 -2.3626  0.2307
18993TIP3   OH278469   4.767   4.615  14.136 -0.7094  0.1506 -0.1121
18993TIP3    H178470   4.850   4.617  14.088 -1.1359  0.7970 -0.8571
18993TIP3    H278471   4.717   4.545  14.094 -1.2433  0.9872 -0.9305
18994TIP3   OH278472   3.534   4.000   0.546  0.4111  0.3937 -0.0942
18994TIP3    H178473   3.544   4.053   0.625  1.1159 -1.3731  1.0644
18994TIP3    H278474   3.621   3.962   0.531 -0.1777 -0.8373 -0.5572
18995TIP3   OH278475   6.581   3.822   1.785 -0.4578 -0.3874 -0.3743
18995TIP3    H178476   6.664   3.856   1.752 -0.3199 -0.7743 -0.4216
18995TIP3    H278477   6.525   3.900   1.794  1.0365  0.4930  3.1182
18996TIP3   OH278478   2.863   1.230   1.886 -0.2222  0.8539 -0.0437
18996TIP3    H178479   2.912   1.150   1.869 -0.8981  0.1749  1.0583
18996TIP3    H278480   2.929   1.297   1.900  0.3542  0.5097 -1.0209
18997TIP3   OH278481   1.885   1.628  11.751  0.5003  0.0141 -0.6648
18997TIP3    H178482   1.793   1.615  11.728  0.0360  1.7467  0.0411
18997TIP3    H278483   1.931   1.556  11.709 -0.7398  0.9273 -3.8599
18998TIP3   OH278484   4.472   2.052  17.281 -0.8568  0.4268  0.1961
18998TIP3    H178485   4.417   2.047  17.203  0.3092  2.3587 -0.8491
18998TIP3    H278486   4.437   2.126  17.330 -0.8637 -0.0476  0.9199
18999TIP3   OH278487   5.570   3.488   3.725 -0.0162  0.1979  0.5777
18999TIP3    H178488   5.623   3.555   3.767 -0.5989  1.7257 -1.0136
18999TIP3    H278489   5.483   3.528   3.717 -0.4100 -0.7871 -0.3113
19000TIP3   OH278490   1.018   5.501   1.033 -0.2681  0.0628 -0.2648
19000TIP3    H178491   1.010   5.596   1.034  0.0556  0.1009 -0.9061
19000TIP3    H278492   1.040   5.480   0.943  0.3882 -0.5625  0.0361
19001TIP3   OH278493   2.305   6.517  11.177 -0.5462  0.0737 -0.3741
19001TIP3    H178494   2.354   6.457  11.121  0.2518  0.3737 -0.0171
19001TIP3    H278495   2.231   6.546  11.124  2.0372  3.1453 -2.7107
19002TIP3   OH278496   6.226   2.862  13.031 -0.2476  0.1524 -0.7523
19002TIP3    H178497   6.252   2.821  12.948  1.2601  0.1945 -0.3386
19002TIP3    H278498   6.296   2.925  13.049  0.0686 -0.6531  1.1015
19003TIP3   OH278499   4.412   3.742  12.114  0.7116 -0.0774  0.2664
19003TIP3    H178500   4.383   3.657  12.079 -0.8690  0.8622 -0.8386
19003TIP3    H278501   4.336   3.775  12.162  0.7163  1.4031 -0.6690
19004TIP3   OH278502   0.667   2.237   4.005  0.4531 -0.4639 -0.0016
19004TIP3    H178503   0.582   2.278   4.021  0.3621 -1.1069  1.3104
19004TIP3    H278504   0.658   2.148   4.040  1.2551 -0.9772 -1.0347
19005TIP3   OH278505   2.484   2.197   3.562  0.4149  0.1685  0.3964
19005TIP3    H178506   2.420   2.228   3.498  0.6789  1.6560  0.8083
19005TIP3    H278507   2.568   2.203   3.517  0.4818  0.1424  0.5169
19006TIP3   OH278508   3.533   4.165   2.192 -0.4178  0.5997  0.0585
19006TIP3    H178509   3.583   4.197   2.117 -0.7895  0.8108 -0.0990
19006TIP3    H278510   3.529   4.070   2.178 -1.5259  0.7576 -0.8372
19007TIP3   OH278511   0.141   5.397   3.285 -0.4155 -0.1952  0.1225
19007TIP3    H178512   0.147   5.426   3.376  0.5500 -0.1719  0.0612
19007TIP3    H278513   0.059   5.347   3.281  0.1860 -1.3303  1.3262
19008TIP3   OH278514   2.116   0.308   1.916  0.0231 -0.0072  0.1915
19008TIP3    H178515   2.105   0.306   2.011 -0.9293  0.0099  0.0958
19008TIP3    H278516   2.089   0.396   1.891  1.3234  0.3482  0.0135
19009TIP3   OH278517   6.796   0.320  15.722  0.0648  0.0381  0.6332
19009TIP3    H178518   6.847   0.260  15.777 -0.8492  0.3554  1.8786
19009TIP3    H278519   6.828   0.407  15.745 -1.2579  0.2724  1.7205
19010TIP3   OH278520   1.749   1.927  16.668  0.0535 -0.0886 -0.0665
19010TIP3    H178521   1.825   1.899  16.719  1.9055  0.8254 -2.1652
19010TIP3    H278522   1.742   1.862  16.598  0.2317  0.9727 -1.0904
19011TIP3   OH278523   5.176   0.460   1.315 -0.4734 -0.6979  0.0016
19011TIP3    H178524   5.176   0.512   1.396 -1.3359 -0.6397 -0.0284
19011TIP3    H278525   5.123   0.383   1.337  2.2683 -2.5538  0.6422
19012TIP3   OH278526   4.899   4.893  15.956  0.4383 -0.0125 -0.1386
19012TIP3    H178527   4.939   4.858  16.035  1.1439 -1.4697 -1.0906
19012TIP3    H278528   4.816   4.846  15.949 -0.3646  1.2486  0.5370
19013TIP3   OH278529   6.568   4.126   2.958  0.0091  1.0675 -0.0996
19013TIP3    H178530   6.605   4.038   2.958 -0.3768  0.8831 -1.2308
19013TIP3    H278531   6.638   4.182   2.990 -0.0347  0.2522  1.5224
19014TIP3   OH278532   6.534   2.080   3.503 -0.0240  0.4200  0.4200
19014TIP3    H178533   6.481   2.141   3.452  1.0776  0.7316 -0.4013
19014TIP3    H278534   6.596   2.135   3.550 -0.2492  0.0452  1.1777
19015TIP3   OH278535   0.220   5.161   4.535  0.4328  0.4958  0.0447
19015TIP3    H178536   0.171   5.080   4.549  2.1326 -0.4582  0.7453
19015TIP3    H278537   0.152   5.227   4.518 -1.1114 -0.6934  1.2544
19016TIP3   OH278538   2.242   0.606   3.668 -1.1607  0.6955  0.7523
19016TIP3    H178539   2.299   0.612   3.745 -0.8484  2.7959  0.4288
19016TIP3    H278540   2.208   0.517   3.670  0.8205 -0.0985  1.9005
19017TIP3   OH278541   4.805   2.883   1.116  0.0234 -0.1780  0.1416
19017TIP3    H178542   4.821   2.858   1.025 -1.0784  0.6557 -0.3018
19017TIP3    H278543   4.890   2.870   1.159  0.1960 -2.0006 -0.6416
19018TIP3   OH278544   3.087   6.534  10.308 -0.2436  0.5220  0.6293
19018TIP3    H178545   3.026   6.462  10.326  0.0224  0.1547  0.0721
19018TIP3    H278546   3.044   6.587  10.241 -0.0965  0.4525  0.4805
19019TIP3   OH278547   1.892   0.358   3.813  0.9796 -0.0216 -0.3302
19019TIP3    H178548   1.893   0.405   3.897 -0.4988 -0.3778 -0.0714
19019TIP3    H278549   1.805   0.377   3.777  1.8186  0.6164 -2.0931
19020TIP3   OH278550   5.927   1.372  13.048  0.3902 -0.3012  0.3522
19020TIP3    H178551   5.895   1.348  12.961 -1.2176  0.2717  0.7612
19020TIP3    H278552   5.988   1.444  13.032  2.7113 -2.3368 -0.5667
19021TIP3   OH278553   5.640   4.765  13.553 -0.0030  0.1500  0.4002
19021TIP3    H178554   5.648   4.670  13.558 -0.3070 -0.1714 -3.0050
19021TIP3    H278555   5.545   4.781  13.546  0.1438  0.2934 -2.5900
19022TIP3   OH278556   6.528   3.283   0.400 -0.6867 -0.4465 -0.1752
19022TIP3    H178557   6.549   3.195   0.370  2.5744  0.0963  0.1653
19022TIP3    H278558   6.539   3.338   0.322  0.1686  0.0037  0.2571
19023TIP3   OH278559   4.177   6.486   2.058  0.0220  0.0779  0.2715
19023TIP3    H178560   4.248   6.485   1.994  0.8425  0.5091  1.1359
19023TIP3    H278561   4.130   6.567   2.041 -0.6407 -0.4927 -0.6870
19024TIP3   OH278562   6.785   0.812   4.275 -0.0415 -0.1878 -0.2160
19024TIP3    H178563   6.841   0.754   4.223  1.9071  1.9672 -0.6434
19024TIP3    H278564   6.801   0.786   4.366  1.2096  0.0061 -0.3676
19025TIP3   OH278565   2.858   2.669   3.246  0.5756  0.5141 -0.1420
19025TIP3    H178566   2.898   2.652   3.161  1.4400  0.4961  0.2500
19025TIP3    H278567   2.826   2.759   3.240 -1.5076 -0.2264 -1.2684
19026TIP3   OH278568   3.565   1.781  13.329 -0.1587 -0.4743  0.1255
19026TIP3    H178569   3.658   1.756  13.333  0.0400  0.3656  1.9450
19026TIP3    H278570   3.554   1.842  13.402 -2.3526 -1.2296  0.4824
19027TIP3   OH278571   5.621   2.375   2.725 -0.0983  0.1544  0.0440
19027TIP3    H178572   5.612   2.432   2.801  1.7281 -0.4027  0.7261
19027TIP3    H278573   5.531   2.356   2.698 -0.8780 -0.8859  3.0271
19028TIP3   OH278574   2.162   6.225   4.743  0.1793 -0.2729  0.3340
19028TIP3    H178575   2.082   6.260   4.704 -0.0914 -1.5925 -0.3566
19028TIP3    H278576   2.190   6.292   4.805 -0.6819  0.8345 -0.4396
19029TIP3   OH278577   0.275   2.713   6.881 -0.3609  0.1495  0.3738
19029TIP3    H178578   0.252   2.803   6.856 -1.6297  0.0640  1.1323
19029TIP3    H278579   0.200   2.661   6.855  0.4328 -0.7394 -0.1986
19030TIP3   OH278580   6.114   2.630   0.749  0.1376  0.1191  0.4693
19030TIP3    H178581   6.096   2.562   0.684 -0.7202 -0.1680  0.9893
19030TIP3    H278582   6.050   2.699   0.731 -0.6101 -0.2966  1.4760
19031TIP3   OH278583   2.278   3.247  16.525  0.5545  0.1750 -0.2618
19031TIP3    H178584   2.191   3.280  16.549  0.4600 -0.7236  0.6847
19031TIP3    H278585   2.285   3.266  16.431 -1.3062 -1.0856 -0.7254
19032TIP3   OH278586   0.543   5.462   4.207  0.1311 -0.2062  0.1208
19032TIP3    H178587   0.562   5.516   4.283  1.6408 -0.6332  0.0818
19032TIP3    H278588   0.618   5.475   4.149 -0.1348 -1.2831 -0.4880
19033TIP3   OH278589   6.376   3.072  15.703  0.0066  0.3625 -0.6819
19033TIP3    H178590   6.423   3.056  15.622 -0.5261  0.7691 -1.0795
19033TIP3    H278591   6.442   3.066  15.772  0.2252 -1.4039 -0.9894
19034TIP3   OH278592   4.061   3.790  11.017 -0.2979  0.1299  0.1652
19034TIP3    H178593   4.064   3.714  10.959  2.1336  0.7085 -0.5522
19034TIP3    H278594   3.997   3.849  10.977  0.6716  0.1252 -1.4548
19035TIP3   OH278595   2.016   0.066   3.147 -0.2085  0.6664 -1.0163
19035TIP3    H178596   2.095   0.077   3.094  0.1898  1.4435 -0.2797
19035TIP3    H278597   2.048   0.067   3.237 -0.6707 -2.0924 -0.7302
19036TIP3   OH278598   5.237   0.943  16.887  0.8410  0.1547 -0.1200
19036TIP3    H178599   5.284   0.975  16.964 -0.0204 -0.4285  0.6777
19036TIP3    H278600   5.294   0.963  16.813  1.0595  2.0056  0.5122
19037TIP3   OH278601   4.478   5.665   4.819  0.3191 -0.1449  0.2017
19037TIP3    H178602   4.573   5.663   4.827  0.4356  1.5014 -0.4978
19037TIP3    H278603   4.447   5.694   4.905  0.2912 -2.3872  1.0199
19038TIP3   OH278604   5.526   0.576  13.920  0.4705  0.2860  0.8004
19038TIP3    H178605   5.567   0.574  13.833 -0.9541  0.7159  0.0739
19038TIP3    H278606   5.521   0.484  13.946  0.1293  0.0639  0.0082
19039TIP3   OH278607   4.256   0.635   3.530 -0.2375 -0.0099 -0.0897
19039TIP3    H178608   4.163   0.655   3.539 -0.5775 -1.4161 -0.2883
19039TIP3    H278609   4.288   0.699   3.467 -0.9693  0.7629  0.2972
19040TIP3   OH278610   5.439   0.963   4.798 -0.0537  0.5881  0.6992
19040TIP3    H178611   5.510   0.989   4.857 -0.0153  1.4287  0.2932
19040TIP3    H278612   5.470   0.989   4.711  0.0486 -0.9462  0.2330
19041TIP3   OH278613   6.062   6.701   4.283 -0.2613  0.0206  0.9444
19041TIP3    H178614   6.056   6.777   4.225  1.6319 -0.0169  0.6299
19041TIP3    H278615   6.004   6.636   4.243  1.0745 -0.0539 -1.0154
19042TIP3   OH278616   5.937   5.319   0.164 -0.2083  0.4728 -0.5531
19042TIP3    H178617   5.911   5.240   0.116  0.2098  0.4432 -0.7305
19042TIP3    H278618   6.017   5.293   0.210 -0.7255  0.4288  0.3412
19043TIP3   OH278619   0.524   2.014  12.989 -0.2683  0.0922  0.0253
19043TIP3    H178620   0.580   1.993  12.914  0.5148  1.9137  0.0290
19043TIP3    H278621   0.436   2.019  12.952  0.1785  1.5331 -0.9407
19044TIP3   OH278622   5.282   5.292  10.708 -0.0647 -0.1204 -0.3905
19044TIP3    H178623   5.265   5.386  10.707 -0.2044 -0.0852  1.4832
19044TIP3    H278624   5.338   5.279  10.785  1.2384 -1.3838 -1.4864
19045TIP3   OH278625   1.455   0.858   0.041  0.0620 -0.0203 -0.2366
19045TIP3    H178626   1.407   0.865   0.123 -1.6572  2.3051 -1.3335
19045TIP3    H278627   1.520   0.789   0.057 -0.9807 -0.4676  2.6384
19046TIP3   OH278628   5.134   3.116  14.763  0.7250  0.1519  0.4888
19046TIP3    H178629   5.121   3.193  14.709 -1.0193  0.4258  1.2255
19046TIP3    H278630   5.072   3.052  14.729  0.4344 -0.0731  1.4007
19047TIP3   OH278631   3.480   1.192  16.931 -0.1380  0.3169 -0.1561
19047TIP3    H178632   3.525   1.152  17.006  1.2584  0.8072 -0.7230
19047TIP3    H278633   3.451   1.277  16.963 -1.8433 -0.4839  0.5968
19048TIP3   OH278634   3.529   5.482   2.560 -0.4690 -0.3686 -0.3087
19048TIP3    H178635   3.446   5.460   2.517 -0.1646 -1.4709 -0.3642
19048TIP3    H278636   3.535   5.421   2.633 -0.4912  0.8208  0.7403
19049TIP3   OH278637   4.058   1.392  12.654 -0.2789 -0.8280 -0.1655
19049TIP3    H178638   4.082   1.413  12.564 -1.0487  1.2400  0.0535
19049TIP3    H278639   3.994   1.459  12.678 -0.2319 -1.4403  1.8588
19050TIP3   OH278640   2.420   3.243   5.861  1.0013  0.0282  0.9543
19050TIP3    H178641   2.404   3.309   5.929  2.6622 -2.6510  4.2331
19050TIP3    H278642   2.394   3.160   5.901  0.7014 -1.6048 -2.3115
19051TIP3   OH278643   3.740   3.197   5.802  0.4234 -0.2422 -0.3323
19051TIP3    H178644   3.660   3.162   5.841  0.3619 -1.7142 -1.6659
19051TIP3    H278645   3.712   3.277   5.757 -0.6264 -1.3750 -1.8374
19052TIP3   OH278646   0.011   1.695  16.778 -0.5271  0.4955 -0.2075
19052TIP3    H178647  -0.042   1.700  16.699  0.3349  0.5038 -0.7974
19052TIP3    H278648  -0.040   1.640  16.838 -0.1941 -1.3592 -1.5624
19053TIP3   OH278649   2.488   0.478  10.802 -0.1199 -0.4254  0.4731
19053TIP3    H178650   2.505   0.400  10.750  0.0957  0.0637 -0.2074
19053TIP3    H278651   2.574   0.503  10.836  0.0701  0.3679 -0.5511
19054TIP3   OH278652   2.816   3.044   5.473  0.0051 -0.6434  0.3546
19054TIP3    H178653   2.773   3.092   5.543  1.4352 -1.4531  1.8874
19054TIP3    H278654   2.770   2.960   5.470 -1.0991 -0.0218 -0.8326
19055TIP3   OH278655   1.834   3.329  11.327 -0.3401 -0.6126  0.2311
19055TIP3    H178656   1.759   3.349  11.383  0.2844  1.1158  0.5060
19055TIP3    H278657   1.861   3.241  11.354  1.0212  0.7620  3.9611
19056TIP3   OH278658   3.199   0.523  16.885 -0.0997  0.4475 -0.6896
19056TIP3    H178659   3.180   0.529  16.978  1.3203 -1.9672 -0.1227
19056TIP3    H278660   3.292   0.545  16.878  0.0916 -0.4544 -1.3129
19057TIP3   OH278661   0.546   4.923  15.060 -0.2318  0.3649  0.4986
19057TIP3    H178662   0.463   4.956  15.096  0.5542  2.1306  0.7983
19057TIP3    H278663   0.613   4.961  15.117  0.8463 -0.0371 -0.4751
19058TIP3   OH278664   1.577   3.585   3.166 -0.1134  0.4226  0.5715
19058TIP3    H178665   1.487   3.573   3.197 -0.8834  2.3553 -0.7152
19058TIP3    H278666   1.568   3.607   3.073  1.8965 -1.7787 -0.2419
19059TIP3   OH278667   4.285   0.421   4.148 -0.7990  0.2155 -0.1686
19059TIP3    H178668   4.254   0.409   4.059  0.5957  1.1130 -0.8157
19059TIP3    H278669   4.217   0.472   4.192 -0.2390  2.3092 -1.5841
19060TIP3   OH278670   0.878   6.118  11.738 -0.2694  0.2492  0.1602
19060TIP3    H178671   0.784   6.130  11.750 -0.0377  1.1801  1.1756
19060TIP3    H278672   0.898   6.164  11.657 -0.8440 -0.8470 -0.6317
19061TIP3   OH278673   4.328   0.319   5.591 -0.1009 -0.2212 -0.0314
19061TIP3    H178674   4.376   0.245   5.553 -1.7489 -1.5140  0.2745
19061TIP3    H278675   4.338   0.390   5.528  1.3877 -0.7432 -0.4137
19062TIP3   OH278676   4.713   2.395  11.137  0.1179  0.3654  0.5267
19062TIP3    H178677   4.639   2.350  11.097 -0.9691  2.8791 -0.4816
19062TIP3    H278678   4.684   2.414  11.226 -0.9774  2.3299 -0.2030
19063TIP3   OH278679   0.661   4.208  14.446  0.1480  1.1643 -0.0581
19063TIP3    H178680   0.688   4.181  14.534 -1.2127  0.4316  0.1730
19063TIP3    H278681   0.569   4.181  14.441 -0.0116  1.8986 -1.4305
19064TIP3   OH278682   6.420   5.666   1.083  0.3052 -0.4362  0.1448
19064TIP3    H178683   6.414   5.575   1.109  0.5557 -0.3046  0.6747
19064TIP3    H278684   6.469   5.665   1.001 -1.4775 -0.9565 -0.9653
19065TIP3   OH278685   5.111   3.182  15.666 -0.2334 -0.1131  0.1057
19065TIP3    H178686   5.132   3.233  15.744  0.9652  0.2452 -0.4383
19065TIP3    H278687   5.016   3.195  15.654 -0.7787 -1.4511  2.3747
19066TIP3   OH278688   0.308   5.167   0.000  0.7858  0.2598  0.0347
19066TIP3    H178689   0.401   5.180   0.015  0.9437 -1.0852  0.3348
19066TIP3    H278690   0.281   5.102   0.066  0.1296 -1.0141 -1.4157
19067TIP3   OH278691   3.893   0.042   1.799  0.3688 -0.4100  0.2128
19067TIP3    H178692   3.874   0.127   1.838 -2.3717  1.1071 -3.7014
19067TIP3    H278693   3.812  -0.008   1.810  0.0066 -0.4219 -1.9939
19068TIP3   OH278694   5.745   2.401  15.539 -0.0906  0.3234 -0.0848
19068TIP3    H178695   5.660   2.440  15.516 -0.9791 -1.4514  0.0132
19068TIP3    H278696   5.808   2.472  15.524 -1.5530  1.6563 -0.2912
19069TIP3   OH278697   4.491   0.076   5.064  0.2212  0.1232  0.1542
19069TIP3    H178698   4.539   0.026   5.130 -1.4583 -1.2766  0.4139
19069TIP3    H278699   4.417   0.020   5.042  0.2171  0.9741 -2.2559
19070TIP3   OH278700   5.324   6.152  11.528  0.3533  0.5549 -0.0167
19070TIP3    H178701   5.230   6.155  11.547  0.0511 -1.1988 -1.0221
19070TIP3    H278702   5.364   6.211  11.592 -1.5606  2.4822 -0.5001
19071TIP3   OH278703   1.198   0.574  15.613  0.0326 -0.1884 -0.2232
19071TIP3    H178704   1.161   0.486  15.603  0.6062 -0.3714 -0.8404
19071TIP3    H278705   1.166   0.605  15.697 -0.0919 -1.0321  0.0450
19072TIP3   OH278706   6.728   1.039   3.260 -0.4127 -0.5686 -0.0451
19072TIP3    H178707   6.676   1.028   3.339 -0.0581 -0.1102  0.2542
19072TIP3    H278708   6.710   0.960   3.209  1.0880 -1.9844  1.4830
19073TIP3   OH278709   5.238   4.944   5.133  0.1525 -0.6885 -0.2959
19073TIP3    H178710   5.296   4.981   5.067  0.5225  0.1609  0.4887
19073TIP3    H278711   5.181   5.017   5.158  1.3171 -0.4107  1.7517
19074TIP3   OH278712   1.013   0.477  13.076  0.1313 -0.6133 -0.2462
19074TIP3    H178713   1.097   0.435  13.055  0.4343 -0.3031  0.3286
19074TIP3    H278714   0.978   0.426  13.149 -0.9301 -1.6963 -1.4521
19075TIP3   OH278715   0.497   1.805  11.620  0.0419  0.0300  0.6089
19075TIP3    H178716   0.523   1.827  11.709  2.7755 -0.8088  0.1025
19075TIP3    H278717   0.557   1.855  11.564 -0.5205 -0.7338 -0.7261
19076TIP3   OH278718   6.062   2.989   5.115  0.2677 -0.7133  0.0941
19076TIP3    H178719   5.967   2.995   5.111  0.2526  0.6634  1.4456
19076TIP3    H278720   6.089   2.973   5.025 -1.1958 -0.2875 -0.4462
19077TIP3   OH278721   2.828   0.533   2.166  0.1481  0.0769  0.1764
19077TIP3    H178722   2.890   0.554   2.096  0.9693  0.8499  1.1151
19077TIP3    H278723   2.854   0.446   2.196 -0.6253 -0.5516 -0.8977
19078TIP3   OH278724   0.638   6.089   1.868  0.2904  0.8126 -0.2237
19078TIP3    H178725   0.681   6.015   1.825 -3.2585 -1.3771 -0.3974
19078TIP3    H278726   0.625   6.153   1.798  1.5101  0.6901 -0.5782
19079TIP3   OH278727   1.643   1.159   5.402 -0.0216  0.3401 -0.0227
19079TIP3    H178728   1.622   1.252   5.401 -1.0319  0.1352 -0.9783
19079TIP3    H278729   1.724   1.152   5.351  0.1064  0.7094  0.1281
19080TIP3   OH278730   6.345   5.214  11.245  0.2021  0.6847  0.2753
19080TIP3    H178731   6.438   5.234  11.235  0.4117  0.2101  1.1332
19080TIP3    H278732   6.344   5.122  11.274 -0.6094  0.1884 -1.2489
19081TIP3   OH278733   4.917   4.401   5.637  0.6276 -0.0625  0.5527
19081TIP3    H178734   4.833   4.366   5.666  0.2853 -0.0510 -0.3979
19081TIP3    H278735   4.932   4.361   5.551  0.2012  2.1065 -0.6058
19082TIP3   OH278736   0.142   0.642   1.041  0.0971 -0.2827 -0.0506
19082TIP3    H178737   0.163   0.550   1.054  2.5712  0.4131  1.4788
19082TIP3    H278738   0.166   0.659   0.950  0.9908 -0.8198  0.0800
19083TIP3   OH278739   4.119   3.936   4.007 -0.2236  0.1116 -0.0381
19083TIP3    H178740   4.078   3.987   4.077 -1.5567 -1.5567  0.4608
19083TIP3    H278741   4.210   3.926   4.035 -0.1527  1.4144  0.2785
19084TIP3   OH278742   5.985   6.783  11.162 -0.2354 -0.0589  0.2308
19084TIP3    H178743   5.926   6.755  11.091  1.3294  0.6214 -1.4200
19084TIP3    H278744   6.058   6.721  11.158  0.7326  1.0681  0.0369
19085TIP3   OH278745   0.756   1.898  16.411 -0.0040  0.3534  0.0875
19085TIP3    H178746   0.708   1.978  16.393 -0.1100  0.0437 -1.0995
19085TIP3    H278747   0.690   1.836  16.442 -0.1341  0.3347 -0.2317
19086TIP3   OH278748   1.604   4.734   0.722  0.0225  0.1968  0.1394
19086TIP3    H178749   1.602   4.826   0.697 -0.4874  0.4171  0.9434
19086TIP3    H278750   1.534   4.694   0.670  0.9030  0.0559 -0.9517
19087TIP3   OH278751   2.854   1.826  14.235  0.0433 -0.4918 -0.3104
19087TIP3    H178752   2.802   1.895  14.195  0.6444 -0.2338 -0.6702
19087TIP3    H278753   2.939   1.832  14.191 -0.0796 -1.8532 -0.7796
19088TIP3   OH278754   0.482   4.542  14.839  0.5898 -0.5552  0.1607
19088TIP3    H178755   0.416   4.554  14.907  0.1237 -0.0385 -0.3795
19088TIP3    H278756   0.555   4.598  14.866 -0.1513  0.7420 -0.4864
19089TIP3   OH278757   5.162   6.449   0.162 -0.0657  0.2948  0.3501
19089TIP3    H178758   5.127   6.394   0.232  2.1061  1.1256  2.2116
19089TIP3    H278759   5.085   6.491   0.123 -1.3139  1.3574  3.6074
19090TIP3   OH278760   5.054   2.520   1.566  0.1056 -0.2938  0.1806
19090TIP3    H178761   5.013   2.437   1.543 -0.3822 -0.0345  0.1218
19090TIP3    H278762   4.988   2.586   1.548 -0.0794 -0.0149  1.7089
19091TIP3   OH278763   4.228   4.522   3.107 -0.0619  0.4466  0.0394
19091TIP3    H178764   4.285   4.532   3.184 -1.7345  0.6151  1.3141
19091TIP3    H278765   4.154   4.470   3.139 -1.6171  1.9249 -1.0139
19092TIP3   OH278766   5.300   1.265  11.181  0.3444 -0.4356  0.8707
19092TIP3    H178767   5.393   1.244  11.178  0.7075  1.1613 -1.3300
19092TIP3    H278768   5.262   1.215  11.108 -0.4140 -0.5456  1.3293
19093TIP3   OH278769   3.398   6.329   3.791  0.0706  0.0984 -0.5303
19093TIP3    H178770   3.363   6.352   3.705  0.4888  1.9013 -0.2740
19093TIP3    H278771   3.325   6.290   3.838 -0.9524  1.5834 -0.8142
19094TIP3   OH278772   2.517   2.081   1.271  0.0230  0.4689  0.4803
19094TIP3    H178773   2.551   2.062   1.184  0.6503  1.7149  0.4296
19094TIP3    H278774   2.443   2.021   1.282  1.7632 -1.8366  0.2930
19095TIP3   OH278775   0.398   4.455   4.310 -0.3408 -0.2219  0.3282
19095TIP3    H178776   0.461   4.526   4.304  0.3209 -0.7124  1.2715
19095TIP3    H278777   0.417   4.412   4.394 -1.0398 -1.2149  0.0017
19096TIP3   OH278778   6.487   4.691  13.006 -0.1602  0.1136 -0.2356
19096TIP3    H178779   6.566   4.740  12.986  1.3324 -1.1367  2.1696
19096TIP3    H278780   6.505   4.602  12.974  0.8038 -0.9775  3.0140
19097TIP3   OH278781   3.915   4.601  16.688 -0.7085  0.3532  0.0544
19097TIP3    H178782   3.885   4.669  16.627  1.3743  0.2172 -1.1989
19097TIP3    H278783   3.956   4.651  16.760 -0.7290  0.4614 -0.0074
19098TIP3   OH278784   6.463   6.487   4.199 -0.2018  0.3223  0.2546
19098TIP3    H178785   6.558   6.490   4.192 -0.2752  2.5085 -0.5477
19098TIP3    H278786   6.431   6.522   4.116 -1.7196 -0.0141  0.6505
19099TIP3   OH278787   1.529   4.042  16.593  0.5352  0.8444  0.2085
19099TIP3    H178788   1.569   4.096  16.661 -1.0135  0.3079  1.6118
19099TIP3    H278789   1.439   4.028  16.623  0.7055 -2.1065 -0.3074
19100TIP3   OH278790   3.194   4.846  12.217 -0.0036 -0.1337  0.0053
19100TIP3    H178791   3.259   4.784  12.248  0.6513 -0.1738 -1.3895
19100TIP3    H278792   3.213   4.857  12.124 -0.5415  1.6200  0.0626
19101TIP3   OH278793   3.443   2.789   6.278 -0.5510  0.3846  0.0107
19101TIP3    H178794   3.376   2.818   6.215  0.3710 -0.9487 -1.6803
19101TIP3    H278795   3.522   2.837   6.254  0.4642 -1.8916 -1.5524
19102TIP3   OH278796   2.224   4.246   4.475  0.0977 -0.0716 -0.6093
19102TIP3    H178797   2.187   4.158   4.469 -1.3181  0.5450 -1.4619
19102TIP3    H278798   2.197   4.278   4.561  1.1909 -0.6853 -0.0116
19103TIP3   OH278799   3.634   1.965   4.131 -0.0485  0.9665 -0.2724
19103TIP3    H178800   3.692   2.029   4.172  1.2536  1.1643 -2.2832
19103TIP3    H278801   3.665   1.880   4.161 -0.5124  1.1624  0.8215
19104TIP3   OH278802   3.491   1.667  13.660 -0.2080  0.0138  0.2324
19104TIP3    H178803   3.501   1.605  13.587  2.5617 -1.0294  1.3380
19104TIP3    H278804   3.412   1.639  13.705  0.2132 -1.8650 -0.1162
19105TIP3   OH278805   0.800   4.947   5.444  0.3197 -0.7435  0.0336
19105TIP3    H178806   0.859   4.925   5.372  1.5371  2.0622  0.0208
19105TIP3    H278807   0.713   4.944   5.405  0.8360 -0.7795 -1.1560
19106TIP3   OH278808   4.411   0.940   3.893 -0.5163  0.1346  0.0564
19106TIP3    H178809   4.356   0.878   3.942 -1.1820  0.2400 -0.5400
19106TIP3    H278810   4.419   1.016   3.950 -0.5676 -0.0871  0.3590
19107TIP3   OH278811   5.859   1.258   6.283 -0.1466 -0.1184 -0.0065
19107TIP3    H178812   5.929   1.281   6.345 -0.1509  1.4366 -0.5468
19107TIP3    H278813   5.778   1.277   6.330 -0.1596  0.4740 -0.2649
19108TIP3   OH278814   0.788   5.792   5.159 -0.5677  0.1523  0.5379
19108TIP3    H178815   0.867   5.738   5.167 -1.3476 -1.4895 -1.9111
19108TIP3    H278816   0.731   5.743   5.100 -3.2513  1.5452  1.8152
19109TIP3   OH278817   6.798   6.142   3.850 -0.2818  0.5428 -0.2431
19109TIP3    H178818   6.842   6.100   3.924 -0.4446  1.1096  0.1855
19109TIP3    H278819   6.866   6.152   3.784 -0.7132 -2.3432 -1.2241
19110TIP3   OH278820   2.842   0.877  11.960  0.5214 -0.0166 -0.2543
19110TIP3    H178821   2.840   0.959  11.910  2.5151  0.2304 -0.0241
19110TIP3    H278822   2.863   0.903  12.049  0.6117 -0.7417 -0.0547
19111TIP3   OH278823   0.769   4.679  16.195  0.8172  0.3549  0.1777
19111TIP3    H178824   0.719   4.754  16.227 -0.8097  0.4644 -2.2865
19111TIP3    H278825   0.807   4.709  16.112  0.5333 -1.3480 -0.6215
19112TIP3   OH278826   2.743   5.016   0.492  0.4918  0.1351  0.4985
19112TIP3    H178827   2.742   5.064   0.575  0.2933 -0.9763  1.1606
19112TIP3    H278828   2.831   4.979   0.486  1.8507  3.2367 -1.6540
19113TIP3   OH278829   1.745   4.471   0.971 -0.1235 -0.1945  0.0354
19113TIP3    H178830   1.793   4.501   1.048 -1.0187  1.5039 -0.0261
19113TIP3    H278831   1.674   4.533   0.961 -0.3421 -0.6757 -1.8700
19114TIP3   OH278832   3.076   5.783   0.055 -0.5627  0.2445 -0.2906
19114TIP3    H178833   3.132   5.860   0.045  0.5788 -0.3527  1.0961
19114TIP3    H278834   3.076   5.766   0.150 -0.4884 -1.6538 -0.5929
19115TIP3   OH278835   2.415   0.010  12.805 -0.0239 -0.0867  0.1909
19115TIP3    H178836   2.380   0.064  12.876 -1.5753  0.8855 -1.2456
19115TIP3    H278837   2.498  -0.023  12.839  1.0479  3.2200  1.1785
19116TIP3   OH278838   0.566   5.511  14.838 -0.0597 -0.2748  0.5398
19116TIP3    H178839   0.591   5.567  14.911 -1.1109 -0.3406  0.9786
19116TIP3    H278840   0.648   5.472  14.808  0.3998 -0.2206  1.6639
19117TIP3   OH278841   1.970   5.885   6.381 -0.1241 -0.0150 -0.0042
19117TIP3    H178842   1.894   5.920   6.428  0.3283 -0.7258  1.3251
19117TIP3    H278843   1.937   5.865   6.294 -0.7029  2.4924 -0.4436
19118TIP3   OH278844   1.319   5.151  14.717  0.2581 -0.2090  0.2168
19118TIP3    H178845   1.313   5.056  14.717  0.4019 -0.2298 -0.7253
19118TIP3    H278846   1.391   5.170  14.656 -1.4042  0.5688 -1.5888
19119TIP3   OH278847   2.714   6.366   5.841 -0.0425  0.5299 -0.0741
19119TIP3    H178848   2.683   6.443   5.888 -2.3223  0.6199 -1.5730
19119TIP3    H278849   2.646   6.300   5.856  0.7748 -0.4587 -0.6310
19120TIP3   OH278850   4.568   0.252  10.931  0.2218  0.1330 -0.4795
19120TIP3    H178851   4.551   0.332  10.883  1.2382  1.0955  0.6890
19120TIP3    H278852   4.617   0.197  10.871 -0.8175  0.2145 -1.4235
19121TIP3   OH278853   5.668   2.279  10.929 -0.8069  0.4114  0.1438
19121TIP3    H178854   5.711   2.213  10.875 -0.7958 -1.8608  2.7075
19121TIP3    H278855   5.575   2.260  10.921 -0.7462 -0.9267  1.9325
19122TIP3   OH278856   2.228   0.346  13.491  0.3621 -0.4534 -0.1895
19122TIP3    H178857   2.261   0.295  13.417  0.8915 -2.4752  1.3415
19122TIP3    H278858   2.147   0.385  13.459  0.3536 -1.6117 -1.7111
19123TIP3   OH278859   5.107   0.017  15.874 -0.2344 -0.2541 -0.3821
19123TIP3    H178860   5.057   0.086  15.917  1.6583  0.1754  1.3240
19123TIP3    H278861   5.194   0.056  15.859  0.7414 -2.0694  0.2172
19124TIP3   OH278862   3.242   2.624  14.240  0.4952 -0.3388 -0.1213
19124TIP3    H178863   3.254   2.561  14.312 -0.6486  1.4951  1.8133
19124TIP3    H278864   3.309   2.691  14.256 -0.9602  1.0498  0.4385
19125TIP3   OH278865   3.914   1.295   0.985 -0.4682 -0.2502 -0.3973
19125TIP3    H178866   3.846   1.350   0.947  0.7992 -0.2682 -2.8655
19125TIP3    H278867   3.883   1.205   0.972 -0.1504 -0.2477 -1.2363
19126TIP3   OH278868   5.150   2.858   2.602  0.2235 -0.0417  0.5038
19126TIP3    H178869   5.206   2.916   2.654 -1.0163  1.4824  0.1897
19126TIP3    H278870   5.184   2.866   2.513  1.2111 -1.2735  0.7338
19127TIP3   OH278871   2.426   5.570  16.629  0.4916 -0.1666  0.0648
19127TIP3    H178872   2.506   5.552  16.679  0.4722 -0.7646 -0.1055
19127TIP3    H278873   2.443   5.534  16.542  0.6912  1.2722 -0.5193
19128TIP3   OH278874   2.151   0.484   0.453 -0.0618 -0.4400 -0.7709
19128TIP3    H178875   2.204   0.446   0.383 -0.3179 -0.8619 -0.7421
19128TIP3    H278876   2.107   0.558   0.411  0.6247 -0.0213 -0.7662
19129TIP3   OH278877   5.342   6.387   0.451  0.3369 -0.3589 -0.1309
19129TIP3    H178878   5.360   6.438   0.372 -0.3902 -0.1652 -0.1796
19129TIP3    H278879   5.424   6.341   0.469  0.4016 -0.6769 -1.1937
19130TIP3   OH278880   0.434   4.353  13.555  0.8010  0.7071 -0.2336
19130TIP3    H178881   0.442   4.378  13.463 -0.0845  0.4040 -0.3975
19130TIP3    H278882   0.462   4.261  13.557  0.2963  0.5526 -0.2919
19131TIP3   OH278883   2.863   0.339  13.638 -0.2994 -0.0771 -0.0845
19131TIP3    H178884   2.806   0.281  13.587 -0.8400 -1.2115  1.7234
19131TIP3    H278885   2.918   0.280  13.689  0.2146  1.0187  0.6746
19132TIP3   OH278886   5.917   0.837  15.305 -0.3959 -0.3497  0.3494
19132TIP3    H178887   5.829   0.835  15.343 -0.0487 -2.4441  1.1518
19132TIP3    H278888   5.957   0.754  15.331  2.4842  1.2625  1.5586
19133TIP3   OH278889   4.365   1.790  14.672 -0.3372 -0.3243  0.1866
19133TIP3    H178890   4.443   1.773  14.620 -1.0645 -2.0912 -0.3806
19133TIP3    H278891   4.394   1.853  14.739  1.6082 -1.1190  0.1473
19134TIP3   OH278892   0.101   3.053   1.585 -0.0068 -0.2037 -0.1204
19134TIP3    H178893   0.194   3.066   1.601 -0.0425 -1.6170  1.5681
19134TIP3    H278894   0.060   3.137   1.606  0.9596  0.8826 -2.2512
19135TIP3   OH278895   1.939   3.767  11.857 -0.0441 -0.3794 -0.3590
19135TIP3    H178896   2.025   3.785  11.894 -0.4929  0.0684  0.4866
19135TIP3    H278897   1.880   3.827  11.903 -0.6482  0.0845 -1.6839
19136TIP3   OH278898   0.788   6.690  13.459  0.1499  0.4151 -0.2913
19136TIP3    H178899   0.811   6.683  13.366 -0.5429  0.8759 -0.5135
19136TIP3    H278900   0.705   6.643  13.467  0.4515 -0.0448  0.2035
19137TIP3   OH278901   4.374   2.048  12.395 -0.1103  0.8428  0.3414
19137TIP3    H178902   4.286   2.013  12.379 -0.3888  1.8444 -0.4217
19137TIP3    H278903   4.362   2.143  12.400  1.0756  1.1024 -0.9984
19138TIP3   OH278904   3.819   4.512   3.343  0.1684 -0.1696  0.0434
19138TIP3    H178905   3.881   4.455   3.297 -1.2311 -0.2930 -1.7897
19138TIP3    H278906   3.808   4.587   3.285 -0.2323  0.5940  1.0794
19139TIP3   OH278907   4.428   6.722   1.920  0.4041 -0.3932 -0.8211
19139TIP3    H178908   4.440   6.715   2.015  1.2557 -2.2994 -1.0192
19139TIP3    H278909   4.371   6.798   1.909  1.8149  1.0604  1.0826
19140TIP3   OH278910   0.083   6.430   2.784  0.0783 -0.2332  0.2927
19140TIP3    H178911   0.068   6.354   2.841  0.7419  2.0394  3.7841
19140TIP3    H278912   0.175   6.422   2.759  0.2594 -0.4067  0.9734
19141TIP3   OH278913   0.365   1.598  13.338  0.2403 -0.4104  0.5615
19141TIP3    H178914   0.341   1.675  13.390  1.8240 -0.0796  0.8480
19141TIP3    H278915   0.443   1.563  13.381  0.5055 -1.2141 -0.5361
19142TIP3   OH278916   2.087   4.038   4.666 -0.2727 -0.0906 -0.1572
19142TIP3    H178917   2.159   3.975   4.667  0.1237  0.3561 -0.0982
19142TIP3    H278918   2.122   4.115   4.711 -0.8114  0.1065 -0.0713
19143TIP3   OH278919   4.252   6.059  10.983  0.3300 -0.4645 -0.1103
19143TIP3    H178920   4.262   6.012  10.900 -2.4584  0.7309 -1.2342
19143TIP3    H278921   4.230   6.148  10.958 -4.0074 -0.7959  1.6829
19144TIP3   OH278922   5.235   6.199   3.114  0.4508  0.2314 -0.0584
19144TIP3    H178923   5.230   6.246   3.197  1.8543  0.4973 -0.0961
19144TIP3    H278924   5.163   6.234   3.062 -0.2222  0.3186  0.9149
19145TIP3   OH278925   0.199   5.472   1.406 -0.3953 -0.0335  0.1102
19145TIP3    H178926   0.128   5.442   1.463  0.0815  0.0732  0.7778
19145TIP3    H278927   0.211   5.564   1.429  2.1065 -0.7955  2.4012
19146TIP3   OH278928   2.593   2.305   5.782  0.6858 -0.0262  0.2840
19146TIP3    H178929   2.686   2.320   5.765  0.6385  0.5386  0.5244
19146TIP3    H278930   2.582   2.323   5.875  0.2755  0.1833  0.1983
19147TIP3   OH278931   5.174   0.254  15.101 -0.2999  0.2049  0.3484
19147TIP3    H178932   5.176   0.341  15.061 -0.7977 -0.4133 -1.0967
19147TIP3    H278933   5.084   0.225  15.090  0.1932 -1.0663 -0.5160
19148TIP3   OH278934   4.239   0.750   0.768  0.6570  0.1479  0.2369
19148TIP3    H178935   4.266   0.819   0.829  1.8169 -0.3851  0.3554
19148TIP3    H278936   4.239   0.670   0.820 -2.5401  0.2543  0.5955
19149TIP3   OH278937   3.993   6.597  13.913  0.7561 -0.1264 -0.3646
19149TIP3    H178938   4.028   6.678  13.951 -0.9942 -0.1628  1.4534
19149TIP3    H278939   3.908   6.622  13.876  0.7948 -0.8794 -1.0086
19150TIP3   OH278940   6.549   5.898  17.003 -0.0048 -0.1521  0.3678
19150TIP3    H178941   6.593   5.835  17.060  0.0000 -1.5590 -1.1517
19150TIP3    H278942   6.600   5.898  16.922  0.2557  2.1497  0.4417
19151TIP3   OH278943   1.738   2.679  11.646  0.6566 -0.0499  0.2567
19151TIP3    H178944   1.809   2.661  11.584  0.6244  1.9257 -0.4259
19151TIP3    H278945   1.685   2.746  11.602 -0.8877 -0.5353  1.3171
19152TIP3   OH278946   4.810   0.761  13.892  0.4783  0.2357 -0.3610
19152TIP3    H178947   4.801   0.840  13.839 -1.0840 -0.6128 -1.4617
19152TIP3    H278948   4.852   0.698  13.833 -0.9127 -0.5959 -0.5224
19153TIP3   OH278949   1.788   1.766   5.680  0.7470 -0.4349 -0.5622
19153TIP3    H178950   1.853   1.804   5.620 -1.5568  2.5853 -1.4348
19153TIP3    H278951   1.739   1.704   5.625  0.4985  0.1491 -1.0154
19154TIP3   OH278952   6.006   1.618   0.421  0.2536 -0.3645 -0.1762
19154TIP3    H178953   6.086   1.593   0.375  0.0613 -0.9745 -0.1960
19154TIP3    H278954   5.938   1.564   0.381 -0.1333 -0.0005 -0.0172
19155TIP3   OH278955   4.416   4.869  15.618  0.2496  0.3050 -0.0273
19155TIP3    H178956   4.451   4.948  15.658 -0.5883  1.0338 -0.7024
19155TIP3    H278957   4.407   4.807  15.691  1.6765  0.5356  0.3642
19156TIP3   OH278958   3.009   1.067  14.882  0.5329  0.1805 -0.1093
19156TIP3    H178959   2.955   1.006  14.833  0.3725 -0.2166  0.5384
19156TIP3    H278960   2.947   1.128  14.923  0.7151  1.0449 -1.0837
19157TIP3   OH278961   4.158   4.927   5.201 -0.4526 -0.0613  0.0242
19157TIP3    H178962   4.169   4.902   5.293  0.8038 -0.0670 -0.1144
19157TIP3    H278963   4.156   4.843   5.154  0.0644 -0.0278 -0.0639
19158TIP3   OH278964   1.637   6.626  15.203 -0.4190  0.2049 -0.9170
19158TIP3    H178965   1.614   6.685  15.275  1.1938  0.4209 -0.5406
19158TIP3    H278966   1.576   6.553  15.212 -1.1465  0.8785 -0.1788
19159TIP3   OH278967   2.599   1.236  16.899 -0.3283  0.7086 -0.5648
19159TIP3    H178968   2.685   1.196  16.885  0.3921  2.2810 -0.9466
19159TIP3    H278969   2.614   1.330  16.883 -2.0764  1.0416 -0.4343
19160TIP3   OH278970   1.811   6.817   0.082  0.4772 -0.0779  0.0286
19160TIP3    H178971   1.845   6.731   0.107  0.6344  0.1195  0.4987
19160TIP3    H278972   1.887   6.876   0.088  0.2437  0.2026  0.2522
19161TIP3   OH278973   0.732   5.940   4.892 -0.2226  0.4480 -0.3542
19161TIP3    H178974   0.724   5.997   4.968 -1.2154 -1.0895  0.7563
19161TIP3    H278975   0.781   5.864   4.925 -0.7900 -0.3078 -1.2121
19162TIP3   OH278976   6.440   3.397  11.405 -0.7152 -0.4653  0.2621
19162TIP3    H178977   6.440   3.308  11.441 -0.6176 -0.4625  0.2719
19162TIP3    H278978   6.449   3.385  11.311 -0.2276 -0.4582  0.3005
19163TIP3   OH278979   0.839   1.963  13.406 -0.3915 -0.1341 -0.5581
19163TIP3    H178980   0.744   1.976  13.416 -0.3191  0.6059 -0.7342
19163TIP3    H278981   0.868   1.930  13.491 -0.9306 -1.1440 -0.7594
19164TIP3   OH278982   3.132   1.185  15.875 -0.4407  0.2513 -0.0949
19164TIP3    H178983   3.151   1.188  15.781 -1.7399 -0.4960 -0.3920
19164TIP3    H278984   3.096   1.271  15.895 -2.5118 -0.4009 -0.8276
19165TIP3   OH278985   5.331   2.544   1.480  0.3130  0.3883 -0.1798
19165TIP3    H178986   5.298   2.567   1.393 -0.7964 -1.1013 -0.1948
19165TIP3    H278987   5.254   2.514   1.528  1.3265 -1.6116  0.3338
19166TIP3   OH278988   5.599   3.380   3.216  0.5666 -0.6369 -0.0630
19166TIP3    H178989   5.612   3.473   3.237 -2.5019  0.1606 -0.9926
19166TIP3    H278990   5.554   3.344   3.292  0.4839 -0.9667 -0.2644
19167TIP3   OH278991   6.152   0.797  13.231 -0.0045 -0.1417 -0.1739
19167TIP3    H178992   6.191   0.723  13.185 -0.9494 -0.4320 -0.5198
19167TIP3    H278993   6.089   0.758  13.291 -0.1215  0.3535  0.0334
19168TIP3   OH278994   6.653   1.356  16.603 -0.6179 -0.1015  0.5803
19168TIP3    H178995   6.608   1.349  16.687 -0.4244 -1.5759  0.5780
19168TIP3    H278996   6.639   1.271  16.561  0.7170  0.0185 -0.1542
19169TIP3   OH278997   2.086   4.134  17.280 -0.6815 -0.3560  0.1356
19169TIP3    H178998   2.118   4.214  17.239  4.2644 -1.8374  0.3497
19169TIP3    H278999   2.040   4.163  17.359 -2.9789  2.2433 -1.9709
19170TIP3   OH279000   1.599   0.512  12.502 -0.3447  0.5328  0.2250
19170TIP3    H179001   1.659   0.581  12.530  0.6370 -1.1158  2.5479
19170TIP3    H279002   1.519   0.528  12.552 -0.2727  0.2662  0.4290
19171TIP3   OH279003   3.503   6.219  10.413 -0.1996 -0.5404  0.5732
19171TIP3    H179004   3.571   6.278  10.381 -0.5186 -0.5981 -0.2144
19171TIP3    H279005   3.424   6.273  10.417 -0.8468 -1.2320 -1.5490
19172TIP3   OH279006   0.411   5.768  11.982 -0.7088 -0.0157 -0.3080
19172TIP3    H179007   0.462   5.817  11.918  0.6557 -0.0953  0.6680
19172TIP3    H279008   0.355   5.710  11.930  0.4880 -0.2172 -1.4135
19173TIP3   OH279009   1.964   4.009  13.432 -0.1542  0.2190  1.0301
19173TIP3    H179010   2.013   3.942  13.384 -1.9403  0.5103 -1.3557
19173TIP3    H279011   2.006   4.091  13.409 -0.7676  0.3191  0.2100
19174TIP3   OH279012   4.694   4.518   1.068  0.0992  0.0142  0.0151
19174TIP3    H179013   4.700   4.585   1.000 -1.0016  1.2167  1.0520
19174TIP3    H279014   4.784   4.499   1.093  0.4137  1.3215 -0.1027
19175TIP3   OH279015   6.183   6.432  16.283 -0.1283  0.0396 -0.6102
19175TIP3    H179016   6.150   6.506  16.334 -0.4102 -1.6747  1.9099
19175TIP3    H279017   6.277   6.430  16.303 -0.3216 -0.9247  0.3359
19176TIP3   OH279018   1.081   4.149  13.342  0.2353 -0.3156  0.2323
19176TIP3    H179019   1.131   4.213  13.293  0.8454 -1.5721 -0.8564
19176TIP3    H279020   1.039   4.199  13.412 -0.7481  1.5617 -1.5949
19177TIP3   OH279021   4.198   0.100   5.391 -0.1920  0.0998  1.3494
19177TIP3    H179022   4.196   0.019   5.341 -2.2305 -0.3836  2.1192
19177TIP3    H279023   4.291   0.117   5.405  0.3528 -0.9133 -0.6811
19178TIP3   OH279024   5.758   2.139  14.139 -0.1126  0.1965 -0.1517
19178TIP3    H179025   5.763   2.069  14.203  2.3786 -1.5564 -2.0443
19178TIP3    H279026   5.668   2.172  14.146 -1.6483 -3.6083  0.4398
19179TIP3   OH279027   0.909   3.375  15.078  0.4835 -0.2904  0.4877
19179TIP3    H179028   0.945   3.435  15.143  0.1503 -0.1523  0.5497
19179TIP3    H279029   0.828   3.417  15.049  1.1631  0.1760 -0.8170
19180TIP3   OH279030   2.652   2.490  11.965  0.0222  0.0779 -0.9544
19180TIP3    H179031   2.574   2.521  11.919 -0.4432  1.1813  0.5218
19180TIP3    H279032   2.723   2.547  11.935 -0.5429  1.7079  0.6364
19181TIP3   OH279033   3.656   0.361  13.987 -0.1306 -0.1571  0.1868
19181TIP3    H179034   3.736   0.398  14.024 -0.3368  0.3301  0.1467
19181TIP3    H279035   3.688   0.294  13.926  0.2526  0.1020  0.0966
19182TIP3   OH279036   5.655   4.035  13.180  0.0061  0.3264 -0.2983
19182TIP3    H179037   5.676   3.949  13.143 -2.2294 -0.3812 -0.0785
19182TIP3    H279038   5.708   4.096  13.129  0.5625 -1.0429 -1.4525
19183TIP3   OH279039   5.548   3.244  16.026  0.7419  0.5647 -0.2130
19183TIP3    H179040   5.526   3.156  15.997 -1.0661  0.4583  1.3132
19183TIP3    H279041   5.643   3.243  16.038  0.9034 -0.7870 -1.3547
19184TIP3   OH279042   4.349   2.299  15.173 -0.8738 -0.8542  0.5124
19184TIP3    H179043   4.271   2.325  15.126  0.3092  1.2279 -0.4233
19184TIP3    H279044   4.420   2.306  15.109  0.3159 -1.1451  1.7451
19185TIP3   OH279045   6.257   1.411   0.901 -0.3655 -0.4041  0.0048
19185TIP3    H179046   6.243   1.318   0.916 -0.5452 -0.1682  1.4950
19185TIP3    H279047   6.289   1.444   0.986  0.7517  0.6853 -0.8048
19186TIP3   OH279048   6.430   1.096  12.094  0.3967  0.2594  0.1835
19186TIP3    H179049   6.376   1.022  12.122 -0.3515  0.6569 -0.1833
19186TIP3    H279050   6.478   1.064  12.018  0.8064 -0.1428  0.6038
19187TIP3   OH279051   0.139   3.985   1.500 -0.5954 -0.2193 -0.2446
19187TIP3    H179052   0.142   4.043   1.424  1.1468 -1.0114 -0.8187
19187TIP3    H279053   0.185   3.906   1.472 -1.8653 -1.4393  0.9100
19188TIP3   OH279054   5.934   4.833   1.405  0.0586 -0.1727  0.3522
19188TIP3    H179055   5.946   4.779   1.483 -0.6832 -0.4676  0.2690
19188TIP3    H279056   5.905   4.772   1.337 -0.1931  0.2282  0.0917
19189TIP3   OH279057   4.513   6.105   6.021  0.3036  0.2700 -0.7034
19189TIP3    H179058   4.559   6.179   6.062 -0.1222  0.9708 -1.4664
19189TIP3    H279059   4.532   6.031   6.079 -0.6289  1.3027  1.0282
19190TIP3   OH279060   6.171   6.256  15.547  0.3800  0.1196  0.1244
19190TIP3    H179061   6.238   6.285  15.609 -1.7586  2.1763  1.6880
19190TIP3    H279062   6.156   6.332  15.491 -1.5781  0.2443  0.7502
19191TIP3   OH279063   3.026   0.028   5.049 -0.5401  0.3377 -0.1732
19191TIP3    H179064   3.020  -0.011   5.136  0.5155 -0.6631 -0.5332
19191TIP3    H279065   2.960  -0.018   4.997 -2.8959  2.5520  0.6116
19192TIP3   OH279066   2.155   2.729  14.956 -0.0359 -0.1565 -0.2026
19192TIP3    H179067   2.151   2.771  15.042 -0.1566 -1.3100  0.3751
19192TIP3    H279068   2.170   2.637  14.976  0.3543 -0.3724 -1.4444
19193TIP3   OH279069   2.817   0.792   1.913  0.0097  0.1335  0.4022
19193TIP3    H179070   2.877   0.718   1.921 -0.2113 -0.2517 -1.1373
19193TIP3    H279071   2.737   0.762   1.957  0.6165  0.2977  1.6524
19194TIP3   OH279072   3.336   5.011   5.060  0.3015 -0.1721 -0.3839
19194TIP3    H179073   3.402   5.081   5.053 -1.1227  1.1711 -0.9310
19194TIP3    H279074   3.317   5.006   5.154  1.0714 -0.4822 -0.2349
19195TIP3   OH279075   2.476   5.916   1.928  0.8087 -0.3270  0.3091
19195TIP3    H179076   2.461   5.983   1.861  0.7388 -0.3579  0.2932
19195TIP3    H279077   2.539   5.955   1.988 -1.5661  1.0221  2.1102
19196TIP3   OH279078   4.626   3.795   1.941  0.6229  0.1467 -0.0165
19196TIP3    H179079   4.594   3.720   1.890  2.6745 -1.8737  1.4902
19196TIP3    H279080   4.560   3.806   2.010  0.4967 -0.5202 -0.0239
19197TIP3   OH279081   4.641   2.002   1.494  0.1692 -0.9153  0.0140
19197TIP3    H179082   4.686   2.000   1.579 -0.7384  0.1398  0.5582
19197TIP3    H279083   4.709   2.025   1.432  0.4853  0.3213  0.7742
19198TIP3   OH279084   3.685   4.159  15.368 -0.0841 -0.0417  0.5251
19198TIP3    H179085   3.720   4.093  15.428  0.7671 -0.8541 -0.8098
19198TIP3    H279086   3.612   4.115  15.325  0.3510 -0.0482 -0.2155
19199TIP3   OH279087   0.557   5.847  13.220 -0.0006 -0.0000  0.5980
19199TIP3    H179088   0.545   5.882  13.131 -1.4349 -0.8795  0.4276
19199TIP3    H279089   0.490   5.779  13.229  0.1047  0.0845  2.3664
19200TIP3   OH279090   1.902   0.722  13.371  0.2360  0.0228  0.6077
19200TIP3    H179091   1.972   0.738  13.434  0.3647  0.8120  0.2785
19200TIP3    H279092   1.920   0.635  13.336 -0.5668 -0.9783  2.5734
19201TIP3   OH279093   0.613   1.078  13.096 -0.3005  1.0388 -0.3289
19201TIP3    H179094   0.524   1.075  13.130  0.6236  2.0305  2.4505
19201TIP3    H279095   0.616   1.158  13.044 -0.6446  1.8925  0.9152
19202TIP3   OH279096   4.042   1.730  13.755 -0.2101 -0.1232 -0.3449
19202TIP3    H179097   3.960   1.779  13.765 -0.1794 -0.3013  0.8995
19202TIP3    H279098   4.061   1.697  13.843  0.0499 -1.9276 -1.0469
19203TIP3   OH279099   6.700   0.374   3.047  0.1290 -0.1982  0.0273
19203TIP3    H179100   6.786   0.344   3.018  0.5015 -0.4653  1.3589
19203TIP3    H279101   6.668   0.426   2.973  1.4312 -0.0781 -0.4927
19204TIP3   OH279102   4.533   4.760   1.201  0.7856 -0.4683  0.1396
19204TIP3    H179103   4.541   4.834   1.262 -1.0069 -0.3027  0.2169
19204TIP3    H279104   4.549   4.683   1.255 -0.9147 -0.3317  0.8901
19205TIP3   OH279105   1.920   0.462   1.607  0.2682  0.2334  0.3192
19205TIP3    H179106   1.853   0.397   1.628 -0.1918  0.9520  1.1446
19205TIP3    H279107   1.870   0.540   1.583  0.8158  0.5347  0.1564
19206TIP3   OH279108   1.855   5.064  16.614 -0.4320  0.3467  0.0989
19206TIP3    H179109   1.763   5.085  16.598 -0.9997 -0.5259  2.0097
19206TIP3    H279110   1.872   4.990  16.556 -0.4137  1.5248 -1.4738
19207TIP3   OH279111   4.913   3.712   0.181  0.2053 -0.3572 -0.2552
19207TIP3    H179112   4.900   3.739   0.090 -1.5194 -0.5128 -0.0837
19207TIP3    H279113   4.995   3.663   0.179 -0.8032 -2.1375 -2.1649
19208TIP3   OH279114   6.128   0.900   2.032 -0.0028 -0.1552  0.2435
19208TIP3    H179115   6.089   0.984   2.008  0.6178 -0.1710 -0.9238
19208TIP3    H279116   6.217   0.923   2.062 -0.2452 -0.2916  1.0969
19209TIP3   OH279117   3.345   2.226   0.499  0.2358  0.6485 -0.1001
19209TIP3    H179118   3.374   2.311   0.466 -1.6112  1.3635  0.0055
19209TIP3    H279119   3.375   2.163   0.434 -0.0204  1.6079 -1.1757
19210TIP3   OH279120   3.483   3.305  14.029 -0.2280 -0.1689 -0.5462
19210TIP3    H179121   3.392   3.274  14.029 -0.3211  0.0986 -1.0815
19210TIP3    H279122   3.531   3.239  13.980  0.1794 -1.1680  1.1074
19211TIP3   OH279123   3.637   0.521  11.320 -0.5879 -0.2022 -0.3336
19211TIP3    H179124   3.717   0.549  11.365 -0.7791 -1.6395  0.9801
19211TIP3    H279125   3.637   0.571  11.238  2.8431 -1.7762 -1.4750
19212TIP3   OH279126   0.818   0.690  13.949 -0.2101  0.0064  0.3945
19212TIP3    H179127   0.913   0.704  13.957  0.1973 -1.4337 -1.1519
19212TIP3    H279128   0.792   0.656  14.035  1.3998 -2.8079 -0.0817
19213TIP3   OH279129   1.179   2.379  15.149  0.1752 -0.3644  0.3492
19213TIP3    H179130   1.255   2.421  15.189 -0.7997  3.0528 -0.9939
19213TIP3    H279131   1.106   2.398  15.209 -0.0494 -1.5107  0.4560
19214TIP3   OH279132   2.914   0.393   0.090 -0.1832 -0.1096  0.3405
19214TIP3    H179133   2.993   0.340   0.077 -1.3944 -1.3766 -3.1865
19214TIP3    H279134   2.904   0.442   0.008 -3.0619 -0.0709  0.6047
19215TIP3   OH279135   4.592   0.673  15.044 -0.3679 -0.6625  0.2782
19215TIP3    H179136   4.583   0.588  15.087  0.4311 -0.6261  0.5414
19215TIP3    H279137   4.685   0.679  15.023 -0.1454  0.7229  1.4969
19216TIP3   OH279138   2.022   1.712  13.242 -0.3402 -0.4248 -0.2636
19216TIP3    H179139   1.977   1.758  13.171  0.0343 -0.7827 -0.7397
19216TIP3    H279140   1.999   1.620  13.228  1.1268 -0.7045 -0.9499
19217TIP3   OH279141   0.707   4.570  15.243  0.3535 -0.4921 -0.6241
19217TIP3    H179142   0.719   4.648  15.190 -0.2909 -0.6715 -1.0454
19217TIP3    H279143   0.767   4.582  15.317  0.2763  0.3808 -0.6930
19218TIP3   OH279144   1.476   0.305  15.218 -0.1599 -0.1777  0.3807
19218TIP3    H179145   1.457   0.214  15.197  2.1244 -0.9012  1.1314
19218TIP3    H279146   1.544   0.300  15.285  0.5261  2.0913 -0.0672
19219TIP3   OH279147   5.244   1.805   5.794  0.0643  0.3565 -0.3752
19219TIP3    H179148   5.281   1.841   5.875 -1.6508  1.0542  0.1503
19219TIP3    H279149   5.159   1.847   5.786 -0.4770 -0.9034 -1.7038
19220TIP3   OH279150   4.147   5.489  11.608 -0.0559 -0.0832 -0.4320
19220TIP3    H179151   4.104   5.461  11.689  0.3155 -2.0322 -0.8658
19220TIP3    H279152   4.224   5.538  11.637  0.1068 -0.8065  0.3894
19221TIP3   OH279153   5.312   3.676   3.224 -0.3040 -0.1423  0.1061
19221TIP3    H179154   5.228   3.719   3.243 -0.0902  0.7037 -0.7812
19221TIP3    H279155   5.358   3.676   3.308 -1.3088 -0.9046  0.6834
19222TIP3   OH279156   6.547   2.486  12.476  0.1276  0.4090 -0.5103
19222TIP3    H179157   6.537   2.444  12.391  0.9478 -2.0681  0.5390
19222TIP3    H279158   6.568   2.577  12.455  0.5717 -0.1884 -2.9452
19223TIP3   OH279159   4.333   0.061   2.391  0.2354  0.5207  0.3866
19223TIP3    H179160   4.291  -0.020   2.363  0.9282  0.6978 -1.2612
19223TIP3    H279161   4.265   0.107   2.442 -0.0666 -1.1835  1.5957
19224TIP3   OH279162   2.871   6.131  14.859 -0.2806  0.7922 -0.0627
19224TIP3    H179163   2.919   6.187  14.798 -0.4500  0.3782 -0.5820
19224TIP3    H279164   2.810   6.082  14.804  0.7632 -0.8739  0.1977
19225TIP3   OH279165   2.153   4.739   4.686 -0.4192 -0.3084 -0.2602
19225TIP3    H179166   2.072   4.790   4.690  0.1704  0.5903  1.2907
19225TIP3    H279167   2.142   4.680   4.611 -2.6467 -0.4719  0.1515
19226TIP3   OH279168   1.395   5.306   1.173  0.8093  0.3677  0.5110
19226TIP3    H179169   1.403   5.270   1.262 -1.9876  1.3790  1.3000
19226TIP3    H279170   1.387   5.400   1.186 -0.2170  0.4849 -0.7360
19227TIP3   OH279171   5.543   3.161  15.340 -0.2036  0.2665 -0.3246
19227TIP3    H179172   5.474   3.137  15.402  1.7125 -2.1834  1.0561
19227TIP3    H279173   5.573   3.247  15.368 -0.4160 -0.1507  1.2564
19228TIP3   OH279174   6.686   5.244  16.811  0.0806 -0.1910 -0.5776
19228TIP3    H179175   6.638   5.261  16.892  3.2101 -0.1658  1.4504
19228TIP3    H279176   6.722   5.329  16.785 -0.7371 -0.2336 -1.9328
19229TIP3   OH279177   4.545   6.267  15.239 -0.0092 -0.3416  0.0828
19229TIP3    H179178   4.501   6.327  15.300  0.2764  0.1263 -0.1682
19229TIP3    H279179   4.615   6.319  15.200  0.6381 -1.0231  0.3212
19230TIP3   OH279180   4.794   5.876   6.702  0.1562  0.1819 -0.1125
19230TIP3    H179181   4.781   5.861   6.609 -1.3101  0.8618 -0.0446
19230TIP3    H279182   4.871   5.824   6.724  0.0987 -0.5552 -1.5431
19231TIP3   OH279183   0.011   1.939   5.033  0.1026 -0.1460 -0.0880
19231TIP3    H179184   0.056   1.863   5.072 -0.0764 -0.5243 -0.6043
19231TIP3    H279185   0.050   2.015   5.077  1.4997 -0.4403 -0.7403
19232TIP3   OH279186   0.577   2.165   2.795  0.3315 -0.3909 -0.0559
19232TIP3    H179187   0.482   2.158   2.792 -0.1116  3.6282 -2.3320
19232TIP3    H279188   0.595   2.201   2.882 -0.7236  2.0487 -0.7551
19233TIP3   OH279189   0.258   1.259   3.693  0.5276  0.2543  0.0663
19233TIP3    H179190   0.342   1.214   3.707  1.1697  0.5724 -2.2455
19233TIP3    H279191   0.254   1.325   3.762  2.1285  0.1337  0.3163
19234TIP3   OH279192   0.429   2.417   1.946  0.2405 -0.0893 -0.3352
19234TIP3    H179193   0.406   2.407   1.853  0.2666  0.6623 -0.4351
19234TIP3    H279194   0.359   2.372   1.993  0.5636 -1.0166 -0.7340
19235TIP3   OH279195   3.106   3.179   1.843  0.0095 -0.0748 -0.0566
19235TIP3    H179196   3.120   3.120   1.769  0.9314  1.8174 -1.4363
19235TIP3    H279197   3.125   3.125   1.920  0.0060 -1.8043 -1.2140
19236TIP3   OH279198   1.785   0.125  16.539  0.4858  0.8299  0.5184
19236TIP3    H179199   1.833   0.111  16.457  2.4051  0.5310  1.6484
19236TIP3    H279200   1.839   0.084  16.606 -1.2735  0.6636  1.9084
19237TIP3   OH279201   2.951   3.413   2.684  0.0939  0.0107 -0.3597
19237TIP3    H179202   2.871   3.377   2.647  0.2188 -0.6415 -0.0173
19237TIP3    H279203   2.994   3.337   2.724  0.3183  0.5698  0.4648
19238TIP3   OH279204   4.104   2.240  11.686 -0.3249 -0.2020  0.0572
19238TIP3    H179205   4.055   2.180  11.742  2.3364 -1.2992  1.3646
19238TIP3    H279206   4.117   2.191  11.605 -0.8323 -0.1470 -0.0604
19239TIP3   OH279207   4.952   1.017   2.815  0.1173 -0.5898  0.4763
19239TIP3    H179208   4.938   1.111   2.805 -1.5203 -0.9975 -2.0236
19239TIP3    H279209   4.998   1.008   2.898  0.3594  2.4066  0.7712
19240TIP3   OH279210   5.679   1.987   4.048  0.0087  0.7101  0.4371
19240TIP3    H179211   5.676   1.974   4.142 -0.3127  0.7407  0.4327
19240TIP3    H279212   5.675   1.899   4.011 -0.5625  0.7337  0.4391
19241TIP3   OH279213   3.298   2.568   0.700  0.2153 -0.1099  0.6099
19241TIP3    H179214   3.382   2.590   0.658 -0.6137  2.0431 -0.0880
19241TIP3    H279215   3.232   2.593   0.635 -1.0026 -1.0528  1.4473
19242TIP3   OH279216   2.506   3.092   4.877  0.1547  0.7043 -0.3514
19242TIP3    H179217   2.480   3.120   4.789 -0.0197  0.3028 -0.4292
19242TIP3    H279218   2.523   3.174   4.924  3.4010  0.9291 -1.6473
19243TIP3   OH279219   6.137   1.911  15.488  0.0110  0.2620 -0.0976
19243TIP3    H179220   6.053   1.892  15.530  1.0722  0.1536  2.0922
19243TIP3    H279221   6.119   1.989  15.434 -1.2608  0.9149  1.1812
19244TIP3   OH279222   1.685   6.167   3.236  0.8068 -0.0859 -0.0314
19244TIP3    H179223   1.642   6.091   3.195  1.8538 -0.6125 -0.1763
19244TIP3    H279224   1.708   6.137   3.324 -2.0062  1.2421  1.2789
19245TIP3   OH279225   2.840   6.414  12.643 -0.4180  0.5799  0.1947
19245TIP3    H179226   2.930   6.437  12.618 -0.6537  4.5597  2.2077
19245TIP3    H279227   2.785   6.473  12.593 -1.5214  1.3455  2.1985
19246TIP3   OH279228   1.726   6.490   6.567  0.5004 -0.3950  0.2040
19246TIP3    H179229   1.720   6.582   6.591  2.7222  0.0106 -0.6209
19246TIP3    H279230   1.637   6.467   6.539  0.1755  1.8454 -0.8139
19247TIP3   OH279231   3.129   0.543   4.881  0.2145  0.6687  0.1039
19247TIP3    H179232   3.214   0.579   4.906  0.6954  0.6916 -1.4743
19247TIP3    H279233   3.140   0.448   4.889  0.2639  0.6845  0.2309
19248TIP3   OH279234   4.775   4.411   4.676 -0.3331 -0.1784  0.5062
19248TIP3    H179235   4.816   4.463   4.746 -0.1635 -0.8436  0.9178
19248TIP3    H279236   4.721   4.348   4.723 -0.6174 -0.3003  0.0106
19249TIP3   OH279237   2.621   3.361  16.027  0.1370  0.2734  0.0385
19249TIP3    H179238   2.564   3.423  16.072 -1.2416  0.1339 -1.4249
19249TIP3    H279239   2.702   3.410  16.012 -1.0667  1.9420 -1.4683
19250TIP3   OH279240   0.546   0.452   2.326  0.3477  0.2786  0.0296
19250TIP3    H179241   0.610   0.517   2.298  0.4352  0.4917  0.6896
19250TIP3    H279242   0.597   0.386   2.372 -0.0366  1.2986  2.0723
19251TIP3   OH279243   0.095   5.034  16.663 -0.0561  0.5412 -0.2861
19251TIP3    H179244   0.019   4.982  16.689 -1.1416  1.2799 -1.8610
19251TIP3    H279245   0.115   5.088  16.740 -3.0007  2.4659 -0.7193
19252TIP3   OH279246   1.137   0.192   6.774 -0.4779  0.0578  0.3824
19252TIP3    H179247   1.090   0.250   6.714 -1.2685 -0.5865  0.3597
19252TIP3    H279248   1.189   0.251   6.829  0.6925  0.6417 -1.2663
19253TIP3   OH279249   5.046   0.972  17.135  0.2938  0.1646 -0.0255
19253TIP3    H179250   4.969   1.010  17.093 -0.9868 -1.7231  0.4855
19253TIP3    H279251   5.105   0.949  17.063  0.3630  1.5064 -0.4263
19254TIP3   OH279252   5.942   3.380  11.065 -0.1037  0.2922  0.1478
19254TIP3    H179253   5.971   3.321  10.995 -0.6711  0.1363  0.0391
19254TIP3    H279254   5.862   3.418  11.032 -0.9293 -0.5383  1.1155
19255TIP3   OH279255   5.322   5.785   5.818 -0.2866 -0.9337  0.1285
19255TIP3    H179256   5.248   5.742   5.775  0.0630 -0.6435 -0.7870
19255TIP3    H279257   5.367   5.713   5.863 -0.7303 -1.2287  0.1102
19256TIP3   OH279258   4.388   3.245   5.468  0.3796 -0.8474  0.5019
19256TIP3    H179259   4.297   3.214   5.462  0.6876 -1.7903  0.6819
19256TIP3    H279260   4.380   3.341   5.464 -0.4291 -0.9332 -2.2176
19257TIP3   OH279261   2.003   4.429  11.497  0.1826 -0.6511  0.0503
19257TIP3    H179262   1.913   4.401  11.515 -0.6195 -0.2659 -2.8359
19257TIP3    H279263   2.049   4.347  11.477  0.3062 -0.7816  0.8488
19258TIP3   OH279264   0.908   2.288   3.877  0.2338  0.0304  0.6849
19258TIP3    H179265   0.919   2.193   3.873 -0.4606 -0.1758  2.5447
19258TIP3    H279266   0.814   2.301   3.890  0.3235  0.9729  0.4578
19259TIP3   OH279267   2.217   3.165  13.236  0.1796  0.1899 -0.2197
19259TIP3    H179268   2.201   3.139  13.145  1.0010 -1.0396 -0.0311
19259TIP3    H279269   2.306   3.200  13.235  0.5737 -0.7620  0.2784
19260TIP3   OH279270   4.998   6.667  11.756 -0.1395  0.5455  0.2623
19260TIP3    H179271   5.066   6.725  11.790  1.6765 -1.4797  0.2858
19260TIP3    H279272   4.947   6.642  11.833  1.3189 -0.6668  0.8886
19261TIP3   OH279273   6.169   1.912  12.440  0.2907  0.8473 -0.6353
19261TIP3    H179274   6.107   1.839  12.441 -0.4821  1.4765  0.0819
19261TIP3    H279275   6.255   1.871  12.431 -0.2217 -0.0549 -1.5854
19262TIP3   OH279276   4.315   6.574  13.909 -0.2292  0.3483 -0.1982
19262TIP3    H179277   4.233   6.594  13.955  0.5378  1.2251  0.8581
19262TIP3    H279278   4.293   6.582  13.816 -1.6543 -0.7525  0.0121
19263TIP3   OH279279   6.585   6.594   4.514 -0.3633  0.2361  0.2898
19263TIP3    H179280   6.649   6.634   4.573 -0.2129 -0.3277  0.5070
19263TIP3    H279281   6.500   6.628   4.543 -0.0414  2.5871 -1.2303
19264TIP3   OH279282   3.846   3.835   1.835 -0.5379  0.4970 -0.3614
19264TIP3    H179283   3.858   3.823   1.741 -0.6330 -1.7444 -0.1571
19264TIP3    H279284   3.885   3.920   1.854 -0.7820  1.1431 -2.4575
19265TIP3   OH279285   1.629   5.490  12.829 -0.2541 -0.4205  0.2977
19265TIP3    H179286   1.621   5.548  12.753  2.0101  0.4336  0.6250
19265TIP3    H279287   1.601   5.543  12.903 -0.2694 -0.4774  0.3328
19266TIP3   OH279288   0.487   3.931  17.038 -0.0925 -1.0563 -0.4529
19266TIP3    H179289   0.529   4.016  17.051  0.1779 -1.5599  2.4871
19266TIP3    H279290   0.398   3.952  17.011 -0.8352  0.3143  2.7023
19267TIP3   OH279291   6.349   3.632   6.246 -0.5097 -0.1491  0.1948
19267TIP3    H179292   6.334   3.676   6.162 -2.1540 -0.0686  0.5072
19267TIP3    H279293   6.430   3.671   6.279 -0.2954  0.4255 -0.9635
19268TIP3   OH279294   1.453   4.648  13.219 -0.0020  0.0251 -0.0804
19268TIP3    H179295   1.547   4.638  13.205 -0.4728 -3.3354 -1.7686
19268TIP3    H279296   1.440   4.627  13.312  0.8603  0.5780  0.1817
19269TIP3   OH279297   1.458   1.117  17.177  0.1609 -0.2243  0.2284
19269TIP3    H179298   1.447   1.024  17.198 -0.1640  0.2800  2.5062
19269TIP3    H279299   1.407   1.163  17.243  1.4739  1.6291  0.0366
19270TIP3   OH279300   2.265   2.170   5.487  0.1910  0.3281 -0.2399
19270TIP3    H179301   2.353   2.161   5.525 -0.4562  0.9038  1.5062
19270TIP3    H279302   2.224   2.240   5.538 -1.4095 -0.1694 -0.7800
19271TIP3   OH279303   5.710   3.190  11.107  0.2044  0.5269 -0.4270
19271TIP3    H179304   5.741   3.269  11.064  2.4041 -0.0239  0.0134
19271TIP3    H279305   5.705   3.124  11.038  0.0466  0.6139 -0.4974
19272TIP3   OH279306   2.358   1.941   2.326 -0.0782  0.1209  0.4118
19272TIP3    H179307   2.442   1.919   2.287  0.0592  0.6888  0.3814
19272TIP3    H279308   2.370   2.029   2.361 -0.1632 -0.3958  1.8164
19273TIP3   OH279309   3.673   5.683   1.811 -0.4375 -0.5837  0.3513
19273TIP3    H179310   3.585   5.676   1.773 -0.0157  0.0304 -0.7901
19273TIP3    H279311   3.731   5.691   1.736  0.4360  0.7546  1.1221
19274TIP3   OH279312   0.538   3.790   2.189  0.3912 -0.1821  0.1040
19274TIP3    H179313   0.460   3.738   2.173 -1.5336  2.5508  0.0837
19274TIP3    H279314   0.582   3.745   2.262 -0.1090 -2.8063 -1.1033
19275TIP3   OH279315   4.587   2.693   0.678  0.1613  0.1725  0.2032
19275TIP3    H179316   4.544   2.775   0.652  1.8666  0.6990 -1.1368
19275TIP3    H279317   4.569   2.633   0.605  1.4108  0.3183 -0.2497
19276TIP3   OH279318   1.060   1.729   5.736 -0.0540 -0.4916  0.6524
19276TIP3    H179319   1.025   1.817   5.749  0.1786 -0.5500  1.7278
19276TIP3    H279320   0.995   1.685   5.681 -0.1151  0.3749  0.0133
19277TIP3   OH279321   5.369   4.056  16.785 -0.1026  0.0418  0.0170
19277TIP3    H179322   5.428   3.981  16.777  1.2528  1.0632 -0.0605
19277TIP3    H279323   5.410   4.111  16.852 -0.4258  1.2607 -0.7574
19278TIP3   OH279324   1.473   4.477   0.610  0.2665  0.0188  0.1877
19278TIP3    H179325   1.533   4.435   0.549  1.7919  1.3385  0.7044
19278TIP3    H279326   1.400   4.507   0.556  1.7475  1.4797 -1.0853
19279TIP3   OH279327   2.019   2.456  11.287  0.3882 -0.3081  0.6736
19279TIP3    H179328   2.101   2.407  11.290  0.1108 -0.7697  0.8287
19279TIP3    H279329   1.960   2.402  11.234 -0.4223 -0.9368  2.1275
19280TIP3   OH279330   4.384   2.491  16.405  1.0482  0.0687 -0.7161
19280TIP3    H179331   4.355   2.480  16.495 -1.4379 -1.6577 -1.6197
19280TIP3    H279332   4.463   2.439  16.399  0.1005 -1.5274 -0.0025
19281TIP3   OH279333   1.772   1.179   0.614  0.2570 -0.4097  0.2823
19281TIP3    H179334   1.741   1.126   0.542 -1.5943  1.4539 -0.3895
19281TIP3    H279335   1.868   1.173   0.609  0.1353 -1.6842 -1.2270
19282TIP3   OH279336   5.598   4.785   1.564 -0.9880 -0.2646 -0.4895
19282TIP3    H179337   5.648   4.767   1.644 -0.2004 -0.6502 -1.0480
19282TIP3    H279338   5.529   4.719   1.562 -1.5461  0.2826  0.3019
19283TIP3   OH279339   0.622   2.333  16.601  0.7557  0.1780 -0.0436
19283TIP3    H179340   0.604   2.374  16.686 -0.8948  0.3061 -0.4325
19283TIP3    H279341   0.648   2.406  16.545 -0.1792  0.4021 -0.1924
19284TIP3   OH279342   4.956   3.730  15.892 -0.6636 -0.0320 -0.0416
19284TIP3    H179343   4.967   3.748  15.798 -1.1309  1.2978  0.1281
19284TIP3    H279344   5.035   3.683  15.917  0.5865  1.6233 -0.6411
19285TIP3   OH279345   3.692   3.607  15.601 -0.6857 -0.0515  0.2884
19285TIP3    H179346   3.636   3.533  15.624 -2.4040  1.1402  0.1825
19285TIP3    H279347   3.724   3.640  15.685  0.3432 -1.0783  0.3147
19286TIP3   OH279348   4.478   3.926   5.564 -0.2981 -0.1261 -0.3115
19286TIP3    H179349   4.427   4.006   5.558  0.2769  0.4635  1.9261
19286TIP3    H279350   4.451   3.886   5.646 -0.7659 -2.4198 -1.4894
19287TIP3   OH279351   2.553   4.413   0.717  0.4850  0.8517  0.4255
19287TIP3    H179352   2.606   4.443   0.644 -1.1660 -0.3872 -1.3664
19287TIP3    H279353   2.501   4.489   0.743  3.9877  2.6164  3.2899
19288TIP3   OH279354   4.715   4.013  13.000 -0.2492 -0.3480  0.6188
19288TIP3    H179355   4.624   4.044  13.006  0.1666  0.9371  0.5079
19288TIP3    H279356   4.714   3.950  12.928 -0.9541 -0.0041  0.3196
19289TIP3   OH279357   2.391   3.092  16.110  0.0840 -0.3402 -0.3143
19289TIP3    H179358   2.362   3.015  16.061  0.0890 -0.3012 -0.3790
19289TIP3    H279359   2.310   3.140  16.130  0.0974 -0.2674 -0.4347
19290TIP3   OH279360   5.824   3.940  16.941 -0.3944 -0.8337 -0.1413
19290TIP3    H179361   5.851   3.913  17.028 -1.8130  0.3867  0.7253
19290TIP3    H279362   5.870   3.880  16.882 -0.1301 -2.2809  1.4611
19291TIP3   OH279363   5.049   5.462   4.148 -0.2667 -0.2258  0.1173
19291TIP3    H179364   5.120   5.491   4.205 -0.9876  0.9813  0.4463
19291TIP3    H279365   5.029   5.373   4.177  1.7014 -0.9596 -0.6064
19292TIP3   OH279366   0.794   5.514   0.581  0.3860  0.3192  0.5186
19292TIP3    H179367   0.865   5.553   0.529  0.9226  0.2395  1.1757
19292TIP3    H279368   0.778   5.578   0.651  0.4889 -0.1154  0.9425
19293TIP3   OH279369   1.779   0.622  11.260  0.1590  0.2859 -0.4141
19293TIP3    H179370   1.770   0.609  11.166 -1.7715  0.7336 -0.3245
19293TIP3    H279371   1.721   0.557  11.299  0.2422  0.7118  0.4420
19294TIP3   OH279372   3.012   4.366  16.667 -0.7706 -0.0107 -0.1819
19294TIP3    H179373   2.969   4.404  16.744 -0.1520 -1.4144  0.8975
19294TIP3    H279374   2.993   4.272  16.674  0.1666 -0.2844 -1.1863
19295TIP3   OH279375   0.604   3.858   6.099  0.3048  0.6466  0.2192
19295TIP3    H179376   0.657   3.922   6.147 -0.3538  1.4809 -0.1196
19295TIP3    H279377   0.521   3.856   6.146  0.2840  0.1125  0.1621
19296TIP3   OH279378   6.305   1.445   1.461 -0.1992 -0.5220  0.3897
19296TIP3    H179379   6.219   1.485   1.473 -1.4147 -2.4763 -1.1609
19296TIP3    H279380   6.350   1.503   1.399 -0.5670  0.2622  0.8454
19297TIP3   OH279381   0.064   2.384   3.080  0.4124 -0.3212  0.4418
19297TIP3    H179382   0.020   2.327   3.143  2.8495 -2.0627  0.6894
19297TIP3    H279383   0.026   2.360   2.995 -0.3549 -0.4874  0.8184
19298TIP3   OH279384   5.633   4.310   5.947 -0.1880  0.2894  0.1398
19298TIP3    H179385   5.647   4.380   6.010  1.6487  0.4008 -0.3416
19298TIP3    H279386   5.544   4.280   5.964  0.5113 -0.2836  3.3746
19299TIP3   OH279387   5.111   1.625  13.089 -0.0164 -0.3930 -0.3385
19299TIP3    H179388   5.124   1.590  13.178 -1.6811 -1.2620 -0.4112
19299TIP3    H279389   5.066   1.708  13.103  0.1286 -0.3075 -0.3690
19300TIP3   OH279390   5.061   4.132   4.000  0.4501 -0.0475 -0.5185
19300TIP3    H179391   5.153   4.111   4.012  0.3998 -0.6386 -1.1091
19300TIP3    H279392   5.015   4.076   4.063  0.5231  0.7866  0.3126
19301TIP3   OH279393   1.702   1.692   4.102  0.0723 -0.5923  0.0882
19301TIP3    H179394   1.655   1.636   4.040 -0.2925 -0.0388 -0.1399
19301TIP3    H279395   1.642   1.764   4.120  0.2371 -0.6684  0.9730
19302TIP3   OH279396   2.576   0.492  15.575 -0.1364 -0.6083 -0.2206
19302TIP3    H179397   2.564   0.417  15.633 -1.0078 -0.2168  0.1189
19302TIP3    H279398   2.488   0.512  15.543  0.4763 -1.6366 -2.7375
19303TIP3   OH279399   6.423   6.798   3.894  0.2580 -0.6090  0.2135
19303TIP3    H179400   6.333   6.770   3.908 -0.3579  0.3522 -1.4793
19303TIP3    H279401   6.416   6.890   3.867  1.9642  0.3073  2.5450
19304TIP3   OH279402   3.474   5.346  16.981  0.1504  0.5871  0.2810
19304TIP3    H179403   3.568   5.332  16.990 -0.0142  0.0146  1.2331
19304TIP3    H279404   3.447   5.288  16.910  0.4490  0.4341  0.2940
19305TIP3   OH279405   4.655   6.133  11.752 -0.3433 -0.4572  0.4059
19305TIP3    H179406   4.709   6.199  11.710  1.4605 -1.2263  1.4249
19305TIP3    H279407   4.565   6.158  11.729  0.4256  0.4120 -1.9905
19306TIP3   OH279408   6.320   5.946  10.815  0.1668  0.0268  0.5098
19306TIP3    H179409   6.256   5.887  10.776  2.0339 -1.6044 -0.2617
19306TIP3    H279410   6.328   6.017  10.751 -1.8787  1.0614  1.3047
19307TIP3   OH279411   5.764   6.722   1.793  0.6401 -0.5943 -0.0235
19307TIP3    H179412   5.803   6.692   1.875  1.7025 -0.8174 -0.5878
19307TIP3    H279413   5.793   6.659   1.728  1.3719  0.6029 -0.9054
19308TIP3   OH279414   3.800   0.165   3.873  0.4767  0.9097  0.8398
19308TIP3    H179415   3.709   0.162   3.903 -0.9336  3.4175 -2.5656
19308TIP3    H279416   3.832   0.076   3.888 -4.2532 -1.7935 -2.4111
19309TIP3   OH279417   0.609   6.188  11.775  0.4911  0.0839 -0.3547
19309TIP3    H179418   0.616   6.265  11.719 -1.2163  0.3947 -0.1884
19309TIP3    H279419   0.523   6.195  11.815  1.1232 -0.8554  1.2662
19310TIP3   OH279420   4.002   5.642  16.975  0.1147  0.1291  0.0524
19310TIP3    H179421   4.084   5.597  16.954 -0.2441 -1.7731  2.2880
19310TIP3    H279422   3.951   5.576  17.022 -1.8098  1.9390  0.6085
19311TIP3   OH279423   4.614   4.652  10.746  0.1739  0.9429  0.1732
19311TIP3    H179424   4.526   4.627  10.716 -0.3590  1.7340  1.0119
19311TIP3    H279425   4.666   4.573  10.734 -0.8167  0.2424  0.2941
19312TIP3   OH279426   3.435   4.947   4.669 -0.5454  0.6212  0.1173
19312TIP3    H179427   3.411   4.869   4.720 -1.6277  1.0026  0.2163
19312TIP3    H279428   3.445   4.914   4.579 -1.5163  0.4419  0.0629
19313TIP3   OH279429   5.029   2.158  16.886  0.1985  0.2047 -0.1778
19313TIP3    H179430   4.988   2.092  16.942  0.2281  1.5518  1.5105
19313TIP3    H279431   5.049   2.231  16.945  3.3676  0.3626 -1.2601
19314TIP3   OH279432   6.748   5.067   2.304  0.4855  0.3254  0.2836
19314TIP3    H179433   6.813   5.067   2.233 -0.8741 -0.1856 -1.0295
19314TIP3    H279434   6.739   4.974   2.327  0.2416  0.3984  0.4809
19315TIP3   OH279435   3.831   1.516  11.675  0.3373 -0.3267  0.8285
19315TIP3    H179436   3.756   1.544  11.728 -0.6655 -1.1875 -0.0713
19315TIP3    H279437   3.858   1.594  11.628 -0.6788 -0.2255  0.3871
19316TIP3   OH279438   2.730   5.390  11.806 -0.2262  0.1369  0.5455
19316TIP3    H179439   2.753   5.344  11.725  1.4632  0.8240  0.6140
19316TIP3    H279440   2.655   5.444  11.781  1.8079  2.3119 -1.3283
19317TIP3   OH279441   2.292   6.513  16.443  0.2153 -0.3404  0.5865
19317TIP3    H179442   2.375   6.526  16.397  0.0759  1.3188  0.7525
19317TIP3    H279443   2.270   6.421  16.427  1.3891 -0.4417 -0.6047
19318TIP3   OH279444   5.381   3.006  15.198  0.3288 -0.2174 -0.1241
19318TIP3    H179445   5.440   3.050  15.259  1.2695 -0.3205 -0.9403
19318TIP3    H279446   5.426   3.009  15.114 -1.3852  0.7922 -1.0548
19319TIP3   OH279447   5.799   1.313  10.618  0.3200 -0.9181 -0.1714
19319TIP3    H179448   5.836   1.271  10.696 -1.3220  0.8137  1.6257
19319TIP3    H279449   5.705   1.294  10.622 -0.0158  0.4401 -0.9012
19320TIP3   OH279450   0.099   6.282   6.137  0.2773 -0.1700  0.1525
19320TIP3    H179451   0.020   6.276   6.083 -0.9610 -0.1628  1.8719
19320TIP3    H279452   0.136   6.368   6.115 -0.5734  0.1248 -0.1708
19321TIP3   OH279453   2.368   1.562  14.559  0.2403  0.0992 -0.3852
19321TIP3    H179454   2.371   1.580  14.653  0.7029 -0.5458 -0.2750
19321TIP3    H279455   2.288   1.513  14.546 -0.0322  0.5399 -0.3938
19322TIP3   OH279456   0.294   1.988   0.047 -0.7684  0.8897 -0.0027
19322TIP3    H179457   0.201   1.992   0.070 -1.5074  2.5179 -2.7877
19322TIP3    H279458   0.297   1.934  -0.032  0.6703  0.7994  0.0893
19323TIP3   OH279459   6.054   2.558  12.790 -0.4074 -0.1783 -0.1187
19323TIP3    H179460   5.968   2.534  12.754  0.3480 -0.6277 -1.7399
19323TIP3    H279461   6.072   2.643  12.752  0.2193 -0.4603 -0.4689
19324TIP3   OH279462   2.445   5.942  11.242 -0.3518  0.4618 -0.7757
19324TIP3    H179463   2.423   5.900  11.159  0.1431  1.7937 -1.6312
19324TIP3    H279464   2.423   5.878  11.309 -0.6305 -0.7044 -1.9482
19325TIP3   OH279465   5.716   0.629  16.541  0.1332  0.0329 -0.3961
19325TIP3    H179466   5.632   0.639  16.585 -0.2393 -3.3462 -0.1497
19325TIP3    H279467   5.712   0.692  16.469 -2.8531 -0.3652 -0.7066
19326TIP3   OH279468   0.414   3.142   0.663  0.0608 -0.1112 -0.1771
19326TIP3    H179469   0.344   3.170   0.722 -1.3411 -0.4685 -1.6316
19326TIP3    H279470   0.424   3.049   0.681 -0.0830 -0.1369 -0.2321
19327TIP3   OH279471   0.918   5.343  17.085 -0.3282 -0.9980 -0.7577
19327TIP3    H179472   0.963   5.428  17.079  1.0515 -1.6472 -0.1839
19327TIP3    H279473   0.985   5.280  17.059 -0.9930 -2.0006 -0.0909
19328TIP3   OH279474   3.158   3.994  11.119 -0.0520 -0.1667  0.3761
19328TIP3    H179475   3.189   3.915  11.164  0.1800 -0.2803  0.0281
19328TIP3    H279476   3.157   3.969  11.026  0.0048  0.2332  0.2674
19329TIP3   OH279477   5.728   4.515  13.010  0.7722 -0.4668  0.3475
19329TIP3    H179478   5.652   4.506  12.953  1.7217 -1.2550 -0.8218
19329TIP3    H279479   5.692   4.508  13.099 -0.6246  0.0428 -0.1486
19330TIP3   OH279480   5.245   5.669  14.558 -0.2281 -0.2865 -0.3285
19330TIP3    H179481   5.194   5.594  14.589  0.1818 -0.2120  0.5871
19330TIP3    H279482   5.330   5.658  14.601  0.0525  0.3414 -0.7164
19331TIP3   OH279483   5.016   1.198   2.580  0.9264 -0.3486 -0.0351
19331TIP3    H179484   4.976   1.266   2.635 -0.3492 -0.5111 -0.7351
19331TIP3    H279485   5.110   1.215   2.586  0.6145  2.3947 -1.2801
19332TIP3   OH279486   5.366   4.911  12.337 -0.0453  0.3457  0.3626
19332TIP3    H179487   5.412   4.850  12.395  1.1519 -0.2405 -1.1421
19332TIP3    H279488   5.312   4.854  12.281  0.6414  0.7020 -0.6770
19333TIP3   OH279489   2.237   0.945   4.102 -0.2558  0.1391  0.2663
19333TIP3    H179490   2.200   1.020   4.149  1.2291  0.9540  0.1779
19333TIP3    H279491   2.162   0.887   4.088 -1.0113  0.5191  2.3616
19334TIP3   OH279492   1.536   2.356  12.383  0.0979  0.1385 -0.3054
19334TIP3    H179493   1.630   2.369  12.366 -0.0643  1.4190 -0.3320
19334TIP3    H279494   1.496   2.355  12.296  0.0591 -0.1773 -0.2844
19335TIP3   OH279495   2.949   4.117  16.744  0.4547  0.1819 -0.9294
19335TIP3    H179496   2.854   4.131  16.747  0.1767  0.1499 -4.5332
19335TIP3    H279497   2.960   4.045  16.682  2.8455 -0.1533 -0.1994
19336TIP3   OH279498   4.813   3.395  13.146 -0.0827  0.0205  0.0087
19336TIP3    H179499   4.719   3.379  13.161 -0.5974  1.1340 -1.6976
19336TIP3    H279500   4.819   3.490  13.137  1.7953  0.3556  3.3346
19337TIP3   OH279501   0.625   2.938   1.465 -0.8871  0.0489 -0.1562
19337TIP3    H179502   0.637   3.017   1.518 -1.0024  0.6704 -1.0379
19337TIP3    H279503   0.592   2.970   1.381 -1.3100 -0.9754 -0.3935
19338TIP3   OH279504   5.263   1.275  16.995  0.0233  0.0937 -0.2942
19338TIP3    H179505   5.306   1.190  16.989 -0.3730 -0.1073 -0.3390
19338TIP3    H279506   5.306   1.319  17.068 -2.5227 -1.7904  2.6066
19339TIP3   OH279507   5.267   6.409   6.155  0.2220  0.3755 -0.0515
19339TIP3    H179508   5.216   6.352   6.212  1.2904  1.0461  1.6798
19339TIP3    H279509   5.227   6.495   6.165 -1.0120  0.1150 -2.1882
19340TIP3   OH279510   1.131   2.089  15.802  0.6402  0.3674 -0.3831
19340TIP3    H179511   1.218   2.118  15.828  1.0284 -0.4353 -0.7488
19340TIP3    H279512   1.099   2.039  15.877  0.3098  1.0167 -0.0806
19341TIP3   OH279513   2.127   5.341   1.368  0.2280 -0.0491 -0.1078
19341TIP3    H179514   2.077   5.422   1.380  1.0290  0.2547  1.4902
19341TIP3    H279515   2.109   5.290   1.447  0.6012 -0.9571 -0.5952
19342TIP3   OH279516   4.290   6.109  13.862 -0.5204  0.3770  0.0564
19342TIP3    H179517   4.264   6.172  13.930 -0.2710  0.0929  0.4212
19342TIP3    H279518   4.342   6.160  13.800 -0.7397  0.6369  0.0857
19343TIP3   OH279519   3.590   4.777  13.311  0.3177  0.4025 -0.1150
19343TIP3    H179520   3.642   4.857  13.317 -0.4015  0.7932  1.1474
19343TIP3    H279521   3.499   4.808  13.308  0.0406 -0.3605  0.2331
19344TIP3   OH279522   3.311   0.055  17.214 -0.1395  0.9416  0.3732
19344TIP3    H179523   3.268   0.002  17.281 -1.8356  1.0964 -0.5396
19344TIP3    H279524   3.339  -0.009  17.148 -0.9730  1.0284 -0.0788
19345TIP3   OH279525   3.639   3.206  15.201 -0.0142 -0.2347  0.0506
19345TIP3    H179526   3.637   3.262  15.278 -1.2879  0.1253 -0.2212
19345TIP3    H279527   3.555   3.159  15.203  0.1442 -0.5834 -0.8521
19346TIP3   OH279528   2.187   5.297   3.731  0.6528 -0.1558  0.1153
19346TIP3    H179529   2.153   5.217   3.772 -1.1554  0.7020  0.3732
19346TIP3    H279530   2.158   5.292   3.640 -1.1894  1.0642  0.5745
19347TIP3   OH279531   2.459   5.245   2.026  0.6244 -0.3486 -0.9867
19347TIP3    H179532   2.388   5.294   1.985  0.7545  0.8979  0.2242
19347TIP3    H279533   2.539   5.286   1.993  0.7357  0.1242 -0.1623
19348TIP3   OH279534   2.773   5.520  16.730 -0.4034 -0.1904 -0.0694
19348TIP3    H179535   2.802   5.483  16.646 -1.8807 -2.9237  0.5222
19348TIP3    H279536   2.767   5.444  16.789  1.0659  1.6759  2.7249
19349TIP3   OH279537   4.084   6.178  16.012 -0.4590  0.3285 -0.0312
19349TIP3    H179538   4.024   6.122  15.964 -0.8224  0.6598  0.0342
19349TIP3    H279539   4.079   6.147  16.102  0.4514 -0.4923 -0.2460
19350TIP3   OH279540   1.507   2.592   0.154 -0.0178 -0.6281  0.0246
19350TIP3    H179541   1.599   2.570   0.141  0.1928  0.1203  0.2077
19350TIP3    H279542   1.459   2.517   0.119  0.6085 -0.1682 -1.9684
19351TIP3   OH279543   5.477   2.306   1.455  0.1121 -0.6922  0.9019
19351TIP3    H179544   5.449   2.397   1.456  1.1004 -0.3488 -0.0536
19351TIP3    H279545   5.396   2.256   1.449 -0.3810  0.2168 -0.6814
19352TIP3   OH279546   5.298   3.035   1.496 -0.0446  0.1812  0.3044
19352TIP3    H179547   5.265   3.107   1.550 -2.6180  0.6113 -1.6537
19352TIP3    H279548   5.227   2.971   1.495  0.3567 -0.2867 -1.6494
19353TIP3   OH279549   0.854   5.239  13.191  0.0329 -0.3000  0.7980
19353TIP3    H179550   0.942   5.202  13.187  0.2322  0.2371 -0.0536
19353TIP3    H279551   0.798   5.168  13.158  0.6845  0.8760 -3.3904
19354TIP3   OH279552   5.351   3.777   2.953  0.0448  0.1696  0.5940
19354TIP3    H179553   5.292   3.724   3.007 -2.4217  1.1571 -0.9514
19354TIP3    H279554   5.313   3.773   2.865  1.9985  1.3625 -0.3759
19355TIP3   OH279555   3.882   1.044  15.403 -0.4567  0.2785 -0.3822
19355TIP3    H179556   3.805   1.082  15.447 -0.2926 -0.7812  0.8755
19355TIP3    H279557   3.941   1.119  15.391 -1.0421  0.8277  0.0645
19356TIP3   OH279558   3.112   4.484   0.677 -0.0207  0.0972 -0.0383
19356TIP3    H179559   3.152   4.569   0.690  0.6018 -0.3360  1.0511
19356TIP3    H279560   3.185   4.422   0.681 -0.7132 -0.6796  1.7157
19357TIP3   OH279561   3.234   5.549  15.788 -0.4542  0.4164  0.8455
19357TIP3    H179562   3.174   5.579  15.856 -0.1661  0.3756  1.1203
19357TIP3    H279563   3.310   5.517  15.836 -0.3137  0.2440  0.5090
19358TIP3   OH279564   0.529   3.370  10.393 -0.0121  0.3323  0.1119
19358TIP3    H179565   0.463   3.438  10.406 -1.5266 -0.9719 -0.4593
19358TIP3    H279566   0.527   3.318  10.474  0.9220  0.7368  0.4205
19359TIP3   OH279567   0.174   2.127  11.862  0.1709 -0.3047 -0.2878
19359TIP3    H179568   0.124   2.099  11.939 -2.6088  0.3905 -1.7420
19359TIP3    H279569   0.192   2.047  11.814  1.7006 -0.7125  0.8687
19360TIP3   OH279570   4.367   6.427  15.411  0.0540  0.4204  0.4031
19360TIP3    H179571   4.277   6.435  15.380  0.7378  1.5031 -1.4213
19360TIP3    H279572   4.383   6.508  15.458  0.1916  0.3558  0.4678
19361TIP3   OH279573   2.467   5.827  12.254  0.3590 -0.4443  0.1077
19361TIP3    H179574   2.416   5.908  12.254  0.1498 -0.5052  2.6727
19361TIP3    H279575   2.558   5.856  12.265  0.2231 -0.5171  1.6993
19362TIP3   OH279576   4.210   2.294  14.190  0.1226  0.0833  0.1771
19362TIP3    H179577   4.239   2.251  14.270 -0.2712  0.2592  0.4145
19362TIP3    H279578   4.136   2.349  14.217 -0.8023 -0.7853 -0.5281
19363TIP3   OH279579   3.807   2.077  16.205 -0.1120  0.3208 -0.1903
19363TIP3    H179580   3.901   2.090  16.212 -0.2740  2.0637 -0.7254
19363TIP3    H279581   3.793   2.042  16.117 -0.0543  1.3575 -0.6253
19364TIP3   OH279582   6.301   5.076  13.303 -0.3093  0.2872 -0.0631
19364TIP3    H179583   6.388   5.034  13.299  0.6021  2.1311 -0.5112
19364TIP3    H279584   6.242   5.011  13.265  0.8509 -1.0282  0.2846
19365TIP3   OH279585   0.458   5.327  10.755  0.1941 -0.4465  0.1263
19365TIP3    H179586   0.508   5.339  10.674  0.7812  0.5723  0.6278
19365TIP3    H279587   0.367   5.319  10.725  0.4055 -0.1275 -0.6448
19366TIP3   OH279588   5.895   3.197  16.272 -0.3566 -0.7136  0.3605
19366TIP3    H179589   5.890   3.173  16.365 -0.1913  0.5211  0.7113
19366TIP3    H279590   5.944   3.280  16.272 -2.3909  0.5665 -0.5720
19367TIP3   OH279591   0.213   6.452   2.374 -0.3311  0.1215 -0.2925
19367TIP3    H179592   0.204   6.434   2.281 -0.8006  0.0933 -0.2432
19367TIP3    H279593   0.207   6.366   2.416  0.9618  0.0021 -0.3038
19368TIP3   OH279594   5.959   3.534  17.201  0.2305 -0.1451 -0.2440
19368TIP3    H179595   5.998   3.565  17.282  1.7434 -0.6192 -0.7591
19368TIP3    H279596   5.992   3.445  17.190  1.0704  0.3272 -1.9662
19369TIP3   OH279597   4.604   2.345   2.840  0.0669 -0.1300  0.1408
19369TIP3    H179598   4.606   2.430   2.884 -1.0440 -0.1322  0.2159
19369TIP3    H279599   4.612   2.366   2.747 -1.9028  0.1999  0.0182
19370TIP3   OH279600   5.069   0.334  14.567 -0.2406  0.3406  0.7140
19370TIP3    H179601   5.031   0.413  14.527 -0.7986  0.2545  1.0731
19370TIP3    H279602   4.995   0.275  14.580  0.0653  0.0407  1.1250
19371TIP3   OH279603   1.213   5.770   0.236  0.3766 -1.1826 -0.0516
19371TIP3    H179604   1.246   5.681   0.225  1.5296 -0.5012 -3.4335
19371TIP3    H279605   1.288   5.826   0.217 -0.3585  0.5581  1.8234
19372TIP3   OH279606   5.038   4.798  16.939  0.3207 -0.0755  0.5378
19372TIP3    H179607   5.094   4.803  17.017  0.8559 -1.2327  0.2431
19372TIP3    H279608   4.982   4.722  16.955 -1.4693  1.2546  0.9962
19373TIP3   OH279609   4.884   0.004  12.924 -0.7137 -0.2985  0.0822
19373TIP3    H179610   4.965  -0.006  12.874 -0.6325 -1.3112  0.3891
19373TIP3    H279611   4.845   0.086  12.892  1.0110  0.8466  0.7653
19374TIP3   OH279612   6.240   4.756  14.959 -0.0246  0.1767 -0.1045
19374TIP3    H179613   6.236   4.851  14.964  1.7571  0.2824  0.1506
19374TIP3    H279614   6.226   4.727  15.049 -0.4284  0.1950 -0.1592
19375TIP3   OH279615   4.954   1.684  14.389  0.4067 -0.1530  0.0471
19375TIP3    H179616   5.037   1.732  14.389 -0.3144  1.1367  0.5100
19375TIP3    H279617   4.954   1.637  14.305  1.4166  0.1636 -0.1440
19376TIP3   OH279618   0.429   3.329  16.600 -0.2566  0.0922 -0.5417
19376TIP3    H179619   0.337   3.302  16.611 -0.1570 -1.3027 -2.4615
19376TIP3    H279620   0.470   3.310  16.684 -1.4807 -0.3245 -0.0101
19377TIP3   OH279621   5.498   3.623   1.534 -0.5049  0.0359  0.1660
19377TIP3    H179622   5.565   3.607   1.600  0.5107 -0.7709 -1.0194
19377TIP3    H279623   5.547   3.656   1.458 -1.7751  2.1976  0.2018
19378TIP3   OH279624   1.020   4.363   4.239  0.4808 -0.1776 -0.8787
19378TIP3    H179625   1.084   4.307   4.282 -0.9897 -0.1256  1.5754
19378TIP3    H279626   1.048   4.367   4.147  3.0046 -1.4388 -0.2295
19379TIP3   OH279627   4.319   2.420  12.950 -0.2130  0.2813  0.1479
19379TIP3    H179628   4.398   2.437  13.001  0.6589 -0.5704 -0.8617
19379TIP3    H279629   4.323   2.484  12.879 -1.3039  1.3150  0.9834
19380TIP3   OH279630   6.042   2.921   6.226  0.2437  0.1113 -0.0221
19380TIP3    H179631   6.106   2.871   6.175 -0.8205 -1.2912 -0.0171
19380TIP3    H279632   6.020   2.864   6.300 -2.2232 -0.1814 -0.8923
19381TIP3   OH279633   1.671   0.955  15.939  0.0575  0.1748  0.0965
19381TIP3    H179634   1.689   0.931  15.848 -0.1263  1.5685 -0.3378
19381TIP3    H279635   1.704   1.045  15.946  0.0555  0.0879  1.4102
19382TIP3   OH279636   4.843   5.149   1.228  0.0121  0.4618  0.8719
19382TIP3    H179637   4.885   5.163   1.143 -1.5692 -2.5184 -0.5437
19382TIP3    H279638   4.907   5.101   1.280 -0.3414 -1.0624 -0.0557
19383TIP3   OH279639   5.604   2.283   5.840 -0.4291 -0.4096 -0.2274
19383TIP3    H179640   5.521   2.245   5.868 -0.9984 -1.0240 -2.5571
19383TIP3    H279641   5.670   2.217   5.861 -0.8093 -0.7890 -0.2295
19384TIP3   OH279642   0.284   0.274   5.583 -0.2768  0.1980 -0.0761
19384TIP3    H179643   0.218   0.205   5.583 -1.2276  1.0668  0.7622
19384TIP3    H279644   0.290   0.302   5.492 -1.8364  0.7833 -0.0225
19385TIP3   OH279645   5.210   3.589  15.995  0.3785  0.5374 -0.3597
19385TIP3    H179646   5.282   3.531  15.972 -0.3007 -0.9231  0.9958
19385TIP3    H279647   5.248   3.652  16.057  0.6004  0.0292  0.0271
19386TIP3   OH279648   0.976   3.969  12.030  0.4897 -0.2645  0.2419
19386TIP3    H179649   0.948   3.939  11.944  1.6354  1.3771 -0.7677
19386TIP3    H279650   0.899   4.015  12.065  1.0052  2.0704 -1.4495
19387TIP3   OH279651   2.226   5.346   1.901 -0.2427  0.5479 -0.4696
19387TIP3    H179652   2.154   5.283   1.896 -0.1926  0.0693  2.7355
19387TIP3    H279653   2.183   5.431   1.903 -0.9618  0.2411  2.3424
19388TIP3   OH279654   2.217   5.903  15.736  0.1069 -0.0173  0.1758
19388TIP3    H179655   2.164   5.944  15.667  0.3176  0.2350  0.1611
19388TIP3    H279656   2.249   5.823  15.696 -0.1215 -0.0861  0.1257
19389TIP3   OH279657   2.117   4.168   5.848  0.1039 -0.1071  0.5102
19389TIP3    H179658   2.081   4.251   5.816 -1.3288 -1.3280 -1.2507
19389TIP3    H279659   2.050   4.134   5.908  0.6885 -0.0054  1.2334
19390TIP3   OH279660   2.614   2.352  12.231 -0.1962 -0.2025  0.7234
19390TIP3    H179661   2.542   2.290  12.224 -0.1305 -0.0939 -1.3169
19390TIP3    H279662   2.642   2.367  12.141  1.4021  0.9087  1.3645
19391TIP3   OH279663   3.973   3.700   4.033 -0.1558  0.4117 -0.9263
19391TIP3    H179664   4.047   3.759   4.048  1.0688 -1.2367 -0.1802
19391TIP3    H279665   3.951   3.712   3.941 -0.3420  2.4311 -0.6707
19392TIP3   OH279666   0.642   4.111   5.138  0.0657  0.2390 -0.3094
19392TIP3    H179667   0.571   4.147   5.191  0.7038  0.3853  0.4690
19392TIP3    H279668   0.607   4.030   5.102 -0.3215  0.0396  0.5066
19393TIP3   OH279669   1.313   6.240  12.176 -0.7039 -0.4190 -0.3294
19393TIP3    H179670   1.397   6.196  12.192 -0.4764  0.1770  0.1572
19393TIP3    H279671   1.253   6.201  12.239 -0.2696  0.6070  0.7506
19394TIP3   OH279672   6.028   4.013   2.583 -0.2223  0.2708  0.0637
19394TIP3    H179673   5.987   3.949   2.524 -0.7016 -0.7128  1.4225
19394TIP3    H279674   5.976   4.009   2.663 -0.9274  3.1434 -0.1196
19395TIP3   OH279675   4.270   1.689   6.483 -0.0471 -0.0161 -0.6772
19395TIP3    H179676   4.259   1.720   6.393 -0.9546  2.4039  0.1622
19395TIP3    H279677   4.181   1.682   6.517  0.3013  0.8545  0.5113
19396TIP3   OH279678   0.554   2.931  11.446 -0.2844  0.3178  0.3051
19396TIP3    H179679   0.590   2.919  11.534 -0.6774  0.7530  0.5254
19396TIP3    H279680   0.561   3.025  11.429  0.8555  0.0875 -0.5943
19397TIP3   OH279681   5.443   5.760   3.549  0.5173 -1.1301 -0.2503
19397TIP3    H179682   5.510   5.698   3.519  0.7166 -0.6377 -0.8514
19397TIP3    H279683   5.483   5.806   3.622  0.9848 -0.5897 -0.8305
19398TIP3   OH279684   3.097   6.477  13.515  0.0204  0.2176 -0.1286
19398TIP3    H179685   3.116   6.569  13.498 -3.3409  1.1307  0.3642
19398TIP3    H279686   3.123   6.463  13.606  0.9858  0.5256 -0.3512
19399TIP3   OH279687   0.869   0.403   2.773  0.4193  0.1257 -0.2085
19399TIP3    H179688   0.936   0.345   2.736  0.8871  0.0579  0.7161
19399TIP3    H279689   0.917   0.457   2.837 -0.4646 -0.1227  0.6871
19400TIP3   OH279690   2.025   5.435   0.799 -0.2769 -0.0076  0.0757
19400TIP3    H179691   2.092   5.376   0.835 -0.8213 -0.3872  0.4826
19400TIP3    H279692   1.951   5.377   0.778  0.1187  0.1489 -1.9460
19401TIP3   OH279693   4.571   5.011   0.548  0.2494  0.0028 -0.6182
19401TIP3    H179694   4.510   4.950   0.590 -0.2206  1.4283  0.8646
19401TIP3    H279695   4.515   5.071   0.499  0.3688  1.3802  0.8350
19402TIP3   OH279696   0.772   5.527   5.455 -0.0191 -0.4212 -0.0470
19402TIP3    H179697   0.832   5.469   5.407  1.7039  1.3356 -0.1160
19402TIP3    H279698   0.827   5.599   5.485 -1.2853 -0.7300  3.4823
19403TIP3   OH279699   4.730   3.491   4.467  0.2570 -0.1595 -0.1516
19403TIP3    H179700   4.638   3.512   4.477  0.5754  0.6725  1.2509
19403TIP3    H279701   4.731   3.398   4.442 -0.9192 -0.3103  0.3124
19404TIP3   OH279702   3.809   0.304   2.936 -0.4357 -0.2031 -0.1431
19404TIP3    H179703   3.716   0.326   2.933 -1.0609 -2.6022 -0.0161
19404TIP3    H279704   3.823   0.247   2.861  1.2077  0.9123 -0.7404
19405TIP3   OH279705   4.799   2.315   5.456  0.1343  0.2635 -0.7391
19405TIP3    H179706   4.754   2.362   5.386  1.5285  1.4657 -0.8880
19405TIP3    H279707   4.779   2.365   5.535 -0.0460 -0.0942 -0.5580
19406TIP3   OH279708   5.651   1.479   1.137  0.2521  0.2818 -0.0448
19406TIP3    H179709   5.740   1.506   1.112  0.3321 -0.2002 -0.2990
19406TIP3    H279710   5.662   1.393   1.178 -0.1003  0.2012 -0.1116
19407TIP3   OH279711   3.014   2.372  13.382 -0.6770  0.1842  0.4708
19407TIP3    H179712   3.046   2.305  13.442  0.6727  0.7386  0.4131
19407TIP3    H279713   3.031   2.454  13.427  1.1879  0.6583 -0.9826
19408TIP3   OH279714   0.401   1.009  11.137  0.2183  0.0819 -0.0817
19408TIP3    H179715   0.475   0.952  11.119  0.6175 -0.0040  1.6611
19408TIP3    H279716   0.431   1.067  11.207 -0.5477  1.7281 -1.0532
19409TIP3   OH279717   5.565   4.794  15.713  0.0339  0.1780  0.2005
19409TIP3    H179718   5.610   4.821  15.793 -2.6612 -0.7956  2.2135
19409TIP3    H279719   5.589   4.703  15.701  0.6795  0.4093 -0.3056
19410TIP3   OH279720   1.456   4.016   0.545  0.4781 -0.1122 -0.0114
19410TIP3    H179721   1.523   3.961   0.504  0.7910  0.7745 -0.7251
19410TIP3    H279722   1.495   4.044   0.628  1.0631  0.5345 -0.5010
19411TIP3   OH279723   0.649   4.666  14.593  0.2740  0.1942  0.0487
19411TIP3    H179724   0.554   4.677  14.586  0.4453  2.5739  0.6376
19411TIP3    H279725   0.666   4.665  14.687  1.0071  2.0022 -0.0431
19412TIP3   OH279726   4.966   6.367  12.953 -0.1451 -0.3524 -0.8091
19412TIP3    H179727   4.884   6.389  12.907  0.3346  1.2550 -0.9609
19412TIP3    H279728   4.939   6.346  13.042 -0.8912 -1.6196 -1.3079
19413TIP3   OH279729   6.784   6.674   3.635  0.2856  0.9571 -0.1997
19413TIP3    H179730   6.839   6.601   3.663 -0.2962  0.2934 -0.7578
19413TIP3    H279731   6.821   6.750   3.679  0.4229  0.2140  1.0218
19414TIP3   OH279732   6.327   1.815   1.023  0.2268 -0.2899 -0.2414
19414TIP3    H179733   6.336   1.895   0.971 -1.8227 -1.2250 -2.2436
19414TIP3    H279734   6.322   1.745   0.958  0.5814 -1.9114  1.3965
19415TIP3   OH279735   1.996   1.343  11.102 -0.3207 -0.7907  0.0566
19415TIP3    H179736   1.974   1.330  11.010 -1.7530  0.7370  0.1350
19415TIP3    H279737   2.092   1.347  11.103 -0.2565 -1.5023 -1.2528
19416TIP3   OH279738   1.152   1.645  14.359 -0.0504  0.1675  0.0372
19416TIP3    H179739   1.090   1.623  14.290  0.3583 -3.4179  0.6091
19416TIP3    H279740   1.113   1.611  14.439  1.7120 -0.4061  0.7151
19417TIP3   OH279741   4.168   0.367   3.553 -0.5736 -0.0247  0.0744
19417TIP3    H179742   4.074   0.382   3.547 -0.3766  0.5475 -2.5647
19417TIP3    H279743   4.208   0.453   3.543  0.2617 -0.3415  0.5297
19418TIP3   OH279744   3.580   0.383   3.515 -0.2932  0.7800  0.0816
19418TIP3    H179745   3.552   0.295   3.489 -1.4947  0.1644  3.0044
19418TIP3    H279746   3.676   0.381   3.507  0.2846 -2.5094  4.1535
19419TIP3   OH279747   3.804   0.558   4.225  0.2294 -0.2254  0.2626
19419TIP3    H179748   3.812   0.631   4.287 -0.3452  1.0096 -1.0603
19419TIP3    H279749   3.714   0.528   4.235 -0.1606  0.6022 -0.6086
19420TIP3   OH279750   4.545   4.586  16.658 -0.5182  0.2727 -0.3603
19420TIP3    H179751   4.625   4.558  16.701 -0.9519 -0.8533 -0.2611
19420TIP3    H279752   4.573   4.615  16.571  0.3202  2.2696  0.5161
19421TIP3   OH279753   2.172   2.071  13.073  0.4500 -0.1742  0.1837
19421TIP3    H179754   2.116   2.068  13.150  0.1836 -2.4177 -0.0334
19421TIP3    H279755   2.112   2.081  12.999  0.5227 -0.2793  0.1089
19422TIP3   OH279756   5.886   5.017  14.355 -0.1540 -0.5354  0.2998
19422TIP3    H179757   5.956   5.063  14.403 -0.5342  0.4355 -0.0670
19422TIP3    H279758   5.836   4.972  14.423  0.1312 -0.2813  0.6790
19423TIP3   OH279759   5.637   2.072   1.387 -0.1667 -0.1930  0.8077
19423TIP3    H179760   5.709   2.038   1.441  2.5418  0.0059 -2.3409
19423TIP3    H279761   5.612   2.154   1.429  1.4795 -0.2785  2.0390
19424TIP3   OH279762   5.292   0.830  12.551  0.5377 -0.4004  0.1480
19424TIP3    H179763   5.322   0.917  12.523 -0.3098  0.4684  1.8090
19424TIP3    H279764   5.370   0.790  12.589  0.8490 -0.2433 -0.3084
19425TIP3   OH279765   3.146   4.759   2.636  0.2338 -0.4447  0.2315
19425TIP3    H179766   3.126   4.714   2.555 -2.3528  0.9547 -0.0085
19425TIP3    H279767   3.132   4.851   2.617  1.8068  0.1712  1.6952
19426TIP3   OH279768   6.098   0.267  11.488 -0.1346 -0.9052  0.3822
19426TIP3    H179769   6.028   0.232  11.434  0.5066 -0.7845 -0.5530
19426TIP3    H279770   6.072   0.357  11.507 -0.7423 -1.1949  0.9588
19427TIP3   OH279771   1.476   0.068  12.557  0.2600 -0.5337  0.3691
19427TIP3    H179772   1.398   0.063  12.503  1.0888  0.2880 -0.9695
19427TIP3    H279773   1.451   0.121  12.633 -0.1517  0.7635 -0.6571
19428TIP3   OH279774   3.362   3.344   3.904 -0.6573 -0.1513  0.1436
19428TIP3    H179775   3.396   3.286   3.972 -0.7814  0.9225  1.1400
19428TIP3    H279776   3.359   3.430   3.945 -0.7487  0.5186 -1.2197
19429TIP3   OH279777   2.272   3.588  14.367  0.0691 -0.1702  0.5247
19429TIP3    H179778   2.181   3.619  14.366  0.0721 -0.0654 -2.0801
19429TIP3    H279779   2.319   3.653  14.419 -0.8981  1.2129 -0.2575
19430TIP3   OH279780   2.018   4.725  12.359 -0.0289 -0.2986  0.1368
19430TIP3    H179781   1.996   4.818  12.367  1.2134  0.0493 -0.1139
19430TIP3    H279782   2.078   4.722  12.284 -1.1243 -1.5126 -0.7247
19431TIP3   OH279783   4.248   1.076  13.857  0.2395 -0.8365 -0.3302
19431TIP3    H179784   4.271   1.116  13.774  1.2628  2.2910  1.3171
19431TIP3    H279785   4.332   1.062  13.902 -0.3845  1.1316  1.6366
19432TIP3   OH279786   4.351   5.853  15.705 -0.0336 -0.6178 -0.4141
19432TIP3    H179787   4.303   5.934  15.719  0.7124 -0.3431  0.7550
19432TIP3    H279788   4.419   5.876  15.642  0.3629 -0.2377  0.1408
19433TIP3   OH279789   2.549   0.636   4.875 -0.0627  0.8751 -0.7129
19433TIP3    H179790   2.559   0.614   4.783 -0.0795  0.5334 -0.6340
19433TIP3    H279791   2.499   0.718   4.875 -0.9584  0.3426 -0.9841
19434TIP3   OH279792   6.458   3.930   2.723 -0.3029  0.7667  0.2930
19434TIP3    H179793   6.452   3.880   2.642 -0.5923  0.0847  0.7251
19434TIP3    H279794   6.549   3.920   2.751 -0.1659  1.1229 -0.0160
19435TIP3   OH279795   4.865   0.760  14.946 -0.3162  0.0929  0.1276
19435TIP3    H179796   4.922   0.684  14.949  0.7551  0.8787  0.3815
19435TIP3    H279797   4.891   0.813  15.022 -1.3404  0.5058  0.2113
19436TIP3   OH279798   5.548   0.237   3.667 -0.2421  0.3090  0.2255
19436TIP3    H179799   5.565   0.218   3.575 -0.9204 -1.1909  0.3749
19436TIP3    H279800   5.486   0.170   3.694  2.1304 -1.1573  2.5202
19437TIP3   OH279801   3.903   6.744   3.933  0.1725 -0.4199  0.2856
19437TIP3    H179802   3.971   6.725   3.997 -0.6516 -0.5064  1.1624
19437TIP3    H279803   3.822   6.748   3.984 -0.2237  1.7386 -0.3798
19438TIP3   OH279804   3.362   3.386   4.798  0.8512  0.4261 -0.0710
19438TIP3    H179805   3.365   3.311   4.857 -1.8317 -0.4447 -0.9058
19438TIP3    H279806   3.343   3.461   4.855  1.2279  0.0848  0.5023
19439TIP3   OH279807   4.059   0.730   1.896 -0.0136 -0.0619  0.3040
19439TIP3    H179808   3.982   0.694   1.939  0.5076 -1.1966  0.3091
19439TIP3    H279809   4.079   0.668   1.826  1.0397  0.0958  0.4494
19440TIP3   OH279810   0.761   2.032   2.619  0.0409  0.0897  0.0423
19440TIP3    H179811   0.691   2.068   2.675  0.2130  1.7488 -0.7404
19440TIP3    H279812   0.716   1.972   2.560 -0.5568  0.3012  0.2736
19441TIP3   OH279813   3.657   0.972   4.565  0.4154  0.3938 -0.0346
19441TIP3    H179814   3.616   0.887   4.553  1.6691 -0.1520 -0.5580
19441TIP3    H279815   3.658   0.985   4.660 -1.1630  0.5443 -0.0127
19442TIP3   OH279816   0.750   1.215   1.933 -0.0148 -0.0278 -0.3495
19442TIP3    H179817   0.844   1.194   1.931 -0.0100 -0.3900  1.6540
19442TIP3    H279818   0.741   1.288   1.872  1.7889  0.7640  0.2408
19443TIP3   OH279819   6.770   6.152   1.322 -0.0445 -0.1960 -0.1879
19443TIP3    H179820   6.756   6.132   1.230 -0.5334 -1.7093  0.1930
19443TIP3    H279821   6.741   6.243   1.332 -0.5028 -0.1951 -1.4013
19444TIP3   OH279822   6.209   3.909  11.721 -0.2719 -0.1561  0.6395
19444TIP3    H179823   6.151   3.833  11.708 -0.0691 -0.1807 -0.1934
19444TIP3    H279824   6.251   3.921  11.636  2.7235 -1.5732  1.7975
19445TIP3   OH279825   1.428   2.143  14.816 -0.2596  0.4695  0.2829
19445TIP3    H179826   1.395   2.136  14.727 -0.5464 -0.1226  0.4358
19445TIP3    H279827   1.380   2.217  14.854 -1.3770 -0.3500  0.4842
19446TIP3   OH279828   5.081   1.638  10.445  0.2812 -0.1677  0.6737
19446TIP3    H179829   5.007   1.689  10.478 -1.3248 -0.9536 -1.4648
19446TIP3    H279830   5.149   1.702  10.429 -0.8756  0.9916  0.2263
19447TIP3   OH279831   1.035   5.261   2.503  0.0145 -0.3177  0.6378
19447TIP3    H179832   1.048   5.267   2.598 -1.2364  0.1433  0.8033
19447TIP3    H279833   1.059   5.171   2.482 -0.7847 -0.7838  1.6055
19448TIP3   OH279834   0.846   5.762   0.760 -0.2901  0.5807  0.0575
19448TIP3    H179835   0.828   5.804   0.676  0.2317  1.4358  0.3666
19448TIP3    H279836   0.818   5.825   0.826  2.3002  1.3587  0.5559
19449TIP3   OH279837   1.889   2.145  16.060  0.1456  0.1391  0.2039
19449TIP3    H179838   1.978   2.112  16.056 -0.0625 -0.4438  0.3241
19449TIP3    H279839   1.873   2.183  15.974 -0.4301 -2.1933 -0.7728
19450TIP3   OH279840   6.644   1.124   5.842  0.2037 -0.2060  0.1067
19450TIP3    H179841   6.725   1.176   5.840 -1.4959  2.7911  2.1828
19450TIP3    H279842   6.652   1.069   5.920 -0.1092  0.7616  0.8314
19451TIP3   OH279843   3.898   2.464  12.236  0.0918  0.3204 -0.2215
19451TIP3    H179844   3.837   2.527  12.199  1.5503  0.9636 -1.6445
19451TIP3    H279845   3.907   2.490  12.328 -0.6100  1.1142 -0.3660
19452TIP3   OH279846   3.255   5.885   5.377 -0.0036 -0.4853 -0.0151
19452TIP3    H179847   3.166   5.920   5.377 -0.6309 -1.9854 -0.9185
19452TIP3    H279848   3.299   5.932   5.306  0.5773  1.6731  1.6639
19453TIP3   OH279849   6.180   2.132  11.465 -0.1116 -0.0415 -0.1621
19453TIP3    H179850   6.258   2.108  11.415  0.7150  1.4760  0.3459
19453TIP3    H279851   6.132   2.191  11.407  0.1879  0.6767  0.3040
19454TIP3   OH279852   1.205   3.096  16.458  0.3805 -0.2422  0.0080
19454TIP3    H179853   1.255   3.177  16.470  0.3180 -0.1741 -0.1881
19454TIP3    H279854   1.263   3.040  16.407 -0.0768  0.1585 -0.9733
19455TIP3   OH279855   0.677   3.985  13.063  0.1045 -0.0718  0.2682
19455TIP3    H179856   0.742   4.025  13.121 -1.7406  0.4072  2.1376
19455TIP3    H279857   0.612   3.947  13.123 -3.0895  2.3514 -1.3604
19456TIP3   OH279858   0.528   0.915   1.619 -0.0772  0.6335 -0.3688
19456TIP3    H179859   0.525   0.865   1.701 -0.5321 -0.5991 -1.0989
19456TIP3    H279860   0.593   0.869   1.566 -1.0815  0.3054 -1.3624
19457TIP3   OH279861   4.559   6.095   1.134 -0.3942 -0.1647 -0.2680
19457TIP3    H179862   4.524   6.052   1.212 -2.4723  0.1818 -0.9644
19457TIP3    H279863   4.483   6.111   1.078  0.8863  0.6034 -1.8978
19458TIP3   OH279864   6.350   2.008   4.590 -0.4366 -0.8094  0.7378
19458TIP3    H179865   6.274   1.977   4.540 -2.5107  1.6506  2.1695
19458TIP3    H279866   6.388   1.928   4.626 -3.9035 -2.0604  2.0968
19459TIP3   OH279867   4.531   2.591  12.492  0.1201  0.4149  0.0051
19459TIP3    H179868   4.495   2.584  12.404  2.5458 -4.7545 -1.0002
19459TIP3    H279869   4.462   2.556  12.549 -1.1053  2.9044  0.1483
19460TIP3   OH279870   3.993   4.116   3.081  0.0354  0.1763 -0.0897
19460TIP3    H179871   4.070   4.061   3.068  0.3643  0.5246  0.3049
19460TIP3    H279872   3.919   4.061   3.057  0.4407  0.0094 -0.9918
19461TIP3   OH279873   1.941   1.647  14.082  0.2173  0.7285 -0.4454
19461TIP3    H179874   1.866   1.593  14.107  0.4641  0.1929 -0.8495
19461TIP3    H279875   1.949   1.711  14.153 -0.0026  0.1602  0.1047
19462TIP3   OH279876   6.786   2.709  12.577  0.5731  1.0942 -0.4690
19462TIP3    H179877   6.712   2.661  12.614  1.1424  1.9799  1.9670
19462TIP3    H279878   6.863   2.659  12.604  1.0378  2.0833  0.0893
19463TIP3   OH279879   2.250   5.249  16.629  0.6472  0.2612 -0.5018
19463TIP3    H179880   2.278   5.326  16.678 -0.3197  1.0356 -1.1125
19463TIP3    H279881   2.156   5.241  16.648  0.5502 -0.2394 -1.1336
19464TIP3   OH279882   5.260   6.652  14.073  0.2519 -0.2620 -0.0201
19464TIP3    H179883   5.349   6.616  14.066  1.0063  1.6530 -0.9467
19464TIP3    H279884   5.203   6.576  14.059  1.6715 -1.7841  1.8046
19465TIP3   OH279885   2.524   6.011  13.742 -0.0178  0.1924 -0.2362
19465TIP3    H179886   2.495   5.959  13.667  0.6254  0.6691 -0.8251
19465TIP3    H279887   2.553   5.946  13.806 -1.1016 -0.2394 -0.1583
19466TIP3   OH279888   6.543   0.925  12.708  0.2154 -0.0254  0.2911
19466TIP3    H179889   6.599   0.994  12.744  0.4241 -0.3449  0.5828
19466TIP3    H279890   6.509   0.962  12.626  1.3582 -0.0679 -0.2240
19467TIP3   OH279891   1.913   6.058  13.485  0.3886  0.1353  0.0428
19467TIP3    H179892   1.959   6.131  13.528 -2.1800  1.8364  0.1190
19467TIP3    H279893   1.879   6.006  13.558  2.1916 -1.2405 -0.0127
19468TIP3   OH279894   1.024   6.276   4.221 -0.3156  1.0498  0.4889
19468TIP3    H179895   0.951   6.251   4.164 -0.2662 -2.5995  1.7720
19468TIP3    H279896   1.082   6.200   4.221  1.7893  2.5318  2.1626
19469TIP3   OH279897   6.726   6.693  13.296  0.5346  0.5407 -0.1530
19469TIP3    H179898   6.695   6.765  13.241  0.2867  0.1241 -0.5651
19469TIP3    H279899   6.819   6.685  13.274 -0.0015 -1.0736 -2.2196
19470TIP3   OH279900   5.715   0.234  11.145  0.1417  0.4641 -0.4915
19470TIP3    H179901   5.693   0.218  11.053 -0.1204 -0.2782 -0.3063
19470TIP3    H279902   5.682   0.157  11.191  3.0048 -0.6908 -0.1660
19471TIP3   OH279903   5.915   2.214   6.324 -0.0219 -0.5411  0.1047
19471TIP3    H179904   5.870   2.289   6.362  1.0058 -0.1906  0.6782
19471TIP3    H279905   5.889   2.215   6.231  0.5028  0.9421 -0.0528
19472TIP3   OH279906   2.836   6.479   5.537  0.4128 -0.2928 -0.4885
19472TIP3    H179907   2.879   6.481   5.623  2.2771  1.2828 -1.3716
19472TIP3    H279908   2.884   6.412   5.489  1.2892  0.7661 -1.1504
19473TIP3   OH279909   5.217   4.403   1.835  0.2730 -0.1873 -0.3954
19473TIP3    H179910   5.133   4.359   1.846  0.6152 -1.1145 -1.2982
19473TIP3    H279911   5.223   4.422   1.741  0.8937  0.2451 -0.2809
19474TIP3   OH279912   0.242   4.010  16.877  0.4333 -0.0685  0.1993
19474TIP3    H179913   0.199   4.049  16.953  2.2534  1.0518  0.7069
19474TIP3    H279914   0.285   4.083  16.834  0.2994 -0.8576 -1.3461
19475TIP3   OH279915   2.707   0.872  13.835  0.1678  0.0395  0.4805
19475TIP3    H179916   2.735   0.782  13.816 -3.2751 -0.9071 -0.8783
19475TIP3    H279917   2.772   0.927  13.791  2.9104 -1.6321  2.1316
19476TIP3   OH279918   6.551   4.852  13.679 -0.4686  0.3438  0.0847
19476TIP3    H179919   6.522   4.930  13.727  0.0182  0.3469  0.3788
19476TIP3    H279920   6.523   4.778  13.733  1.4772  0.3685  1.2262
19477TIP3   OH279921   1.294   1.988   0.674 -0.1641 -0.6108 -0.3496
19477TIP3    H179922   1.282   2.058   0.609  3.2976  1.1546  0.6443
19477TIP3    H279923   1.348   1.923   0.629 -1.1639 -1.3752 -0.4569
19478TIP3   OH279924   1.836   2.773   1.308 -0.5593 -0.7654 -0.5257
19478TIP3    H179925   1.833   2.868   1.304  0.7580 -0.7124 -1.0123
19478TIP3    H279926   1.755   2.744   1.267 -2.0326  0.1243  1.5824
19479TIP3   OH279927   1.728   3.356   5.408 -0.7554 -0.0219 -0.3655
19479TIP3    H179928   1.738   3.272   5.363  0.1733 -0.0915 -0.0469
19479TIP3    H279929   1.813   3.372   5.449 -1.1368  0.7384  0.1629
19480TIP3   OH279930   3.243   5.785   0.282 -0.3262 -0.1098  0.2546
19480TIP3    H179931   3.251   5.880   0.273  0.4921  0.0969  2.3982
19480TIP3    H279932   3.330   5.751   0.262 -0.6522 -0.4340 -0.6421
19481TIP3   OH279933   5.192   1.370  13.686  0.1838  0.3167 -0.2816
19481TIP3    H179934   5.239   1.356  13.768 -2.1626 -2.0409  0.8191
19481TIP3    H279935   5.137   1.446  13.702 -0.0145  0.0714  0.2389
19482TIP3   OH279936   0.161   5.685  16.356  0.3581 -0.7028  0.1612
19482TIP3    H179937   0.127   5.605  16.316  1.7224 -1.5882  0.7037
19482TIP3    H279938   0.204   5.731  16.284  0.0133 -0.7063 -0.0470
19483TIP3   OH279939   4.179   4.083  10.822  0.7112 -0.0446  0.4634
19483TIP3    H179940   4.129   4.002  10.817 -1.4909  1.2780 -0.6208
19483TIP3    H279941   4.154   4.122  10.906 -0.2036  0.6687 -0.1252
19484TIP3   OH279942   2.857   0.577   1.027 -0.2415 -0.1330 -0.1459
19484TIP3    H179943   2.944   0.617   1.027 -0.5749  0.6410  0.4335
19484TIP3    H279944   2.809   0.624   0.959 -0.5371  0.2375  0.3102
19485TIP3   OH279945   6.020   0.126   3.688  0.3773 -0.1934  0.2994
19485TIP3    H179946   6.044   0.143   3.779  0.0153 -0.4970  0.4546
19485TIP3    H279947   5.940   0.073   3.694 -1.6380  2.5907 -0.1929
19486TIP3   OH279948   0.439   3.681   0.255 -0.1172 -0.1219 -0.2025
19486TIP3    H179949   0.397   3.744   0.196  1.0845  0.3108 -0.6225
19486TIP3    H279950   0.485   3.736   0.318 -0.0159 -0.5937  0.1329
19487TIP3   OH279951   1.761   6.666   0.965 -0.2682  0.1483 -0.1184
19487TIP3    H179952   1.695   6.734   0.978  0.0846  0.4194  0.3112
19487TIP3    H279953   1.843   6.707   0.992  0.0315 -0.2760 -0.3718
19488TIP3   OH279954   6.804   6.592  11.531  0.1613 -0.0489  0.3090
19488TIP3    H179955   6.842   6.504  11.533  1.4224  0.4838  1.1848
19488TIP3    H279956   6.710   6.577  11.520  0.2646 -1.5379  1.1464
19489TIP3   OH279957   0.150   1.968   1.504  0.6267  0.0988 -0.0881
19489TIP3    H179958   0.180   1.956   1.414 -0.4466 -1.5797 -0.2707
19489TIP3    H279959   0.192   1.897   1.552  0.3041  0.3003  0.4990
19490TIP3   OH279960   1.512   1.050   3.659 -0.2750 -0.1605 -0.1392
19490TIP3    H179961   1.439   1.097   3.618  0.4827 -0.9547 -2.5880
19490TIP3    H279962   1.574   1.119   3.683  0.2126  0.2867 -2.4146
19491TIP3   OH279963   4.712   4.146  13.271 -0.1607 -0.3698  0.8638
19491TIP3    H179964   4.793   4.132  13.223 -0.1305 -1.8201  1.2796
19491TIP3    H279965   4.645   4.157  13.204  0.2953  0.3101  0.5167
19492TIP3   OH279966   1.849   2.297  11.502  0.3145  0.0299  0.1134
19492TIP3    H179967   1.940   2.321  11.518  0.5911 -0.5984 -0.4353
19492TIP3    H279968   1.805   2.380  11.484  0.8581  0.3044  0.0304
19493TIP3   OH279969   5.972   2.441  14.551 -0.1131  0.3827  0.1615
19493TIP3    H179970   6.011   2.359  14.581  1.1054  1.2467  1.0643
19493TIP3    H279971   6.042   2.484  14.502 -0.5420  1.1316  0.1905
19494TIP3   OH279972   5.933   0.606   5.408 -0.6395 -0.2719  0.0528
19494TIP3    H179973   5.919   0.596   5.314  0.1386  0.4781 -0.1515
19494TIP3    H279974   6.019   0.568   5.423 -0.1308  0.9140  0.2124
19495TIP3   OH279975   3.204   6.264   2.816  0.0797  0.8556  0.2496
19495TIP3    H179976   3.134   6.207   2.786  0.1798  0.3321  0.9723
19495TIP3    H279977   3.254   6.285   2.737  0.6959 -0.9658  0.1012
19496TIP3   OH279978   6.230   1.953   5.266 -0.4821  0.3580 -0.3747
19496TIP3    H179979   6.157   1.949   5.205  0.3045 -0.7470 -1.2866
19496TIP3    H279980   6.295   2.007   5.222 -0.8602  1.6508  0.5946
19497TIP3   OH279981   6.433   0.784  14.174  0.5793  0.1971 -0.6420
19497TIP3    H179982   6.370   0.740  14.231  2.0609  1.1233  1.8929
19497TIP3    H279983   6.449   0.722  14.104  0.9244 -2.4179  1.5831
19498TIP3   OH279984   6.083   5.824   4.163  0.0221 -0.0677  0.4283
19498TIP3    H179985   6.022   5.761   4.125  0.9531 -1.1218  0.6311
19498TIP3    H279986   6.103   5.884   4.092 -0.6828 -0.1356  0.1620
19499TIP3   OH279987   3.524   2.435   5.312 -0.3915 -0.1113  0.2387
19499TIP3    H179988   3.462   2.373   5.348 -1.3571  1.0978  0.7216
19499TIP3    H279989   3.590   2.446   5.380 -2.0518  1.9457  1.6500
19500TIP3   OH279990   0.548   3.413  16.357  0.8425 -0.6813 -0.0298
19500TIP3    H179991   0.496   3.379  16.431 -0.0588 -0.4349 -0.5350
19500TIP3    H279992   0.506   3.496  16.335  1.7563 -0.2460 -0.1465
19501TIP3   OH279993   3.673   5.309  11.891  0.6932  0.0145 -0.3495
19501TIP3    H179994   3.598   5.257  11.863  1.3497 -0.8295 -0.5958
19501TIP3    H279995   3.653   5.335  11.981  0.1395 -0.2547 -0.3939
19502TIP3   OH279996   2.522   0.463  13.591 -0.4332  0.0433 -0.0277
19502TIP3    H179997   2.588   0.475  13.659 -0.3079 -0.1433 -0.1144
19502TIP3    H279998   2.455   0.409  13.632 -0.3789 -0.0318 -0.0368
19503TIP3   OH279999   0.208   4.161   0.702 -0.2884 -0.3161 -0.0823
19503TIP3    H180000   0.261   4.239   0.688 -0.2951 -0.5295 -1.3745
19503TIP3    H280001   0.269   4.096   0.738 -0.2184  0.1671  0.6994
19504TIP3   OH280002   6.297   0.603   3.913  0.6579 -0.4895 -0.2029
19504TIP3    H180003   6.206   0.580   3.931  0.1210  1.5626  0.0651
19504TIP3    H280004   6.322   0.659   3.987  1.0149  1.6350 -1.8061
19505TIP3   OH280005   6.555   6.137   1.946  0.5105  0.1950  0.4245
19505TIP3    H180006   6.532   6.137   2.039  0.2966 -0.7914  0.3882
19505TIP3    H280007   6.473   6.114   1.902  1.0088 -1.1478  0.1358
19506TIP3   OH280008   5.333   5.687  13.085 -0.5196 -0.0557  0.1170
19506TIP3    H180009   5.396   5.757  13.097 -1.1197  0.5126  0.0060
19506TIP3    H280010   5.269   5.721  13.022 -1.1383 -0.4692  0.4991
19507TIP3   OH280011   0.277   1.764  10.827  0.7079  0.5914  0.1911
19507TIP3    H180012   0.183   1.755  10.814  0.7325 -0.3902  0.5930
19507TIP3    H280013   0.315   1.684  10.790  1.1200 -0.3255  2.3852
19508TIP3   OH280014   6.673   6.371   1.843  0.5465  0.1322 -0.2525
19508TIP3    H180015   6.768   6.370   1.845  0.5989  0.0086 -1.8880
19508TIP3    H280016   6.648   6.281   1.865  0.8149  0.1134 -0.0209
19509TIP3   OH280017   1.166   5.043   3.333  0.0015 -0.2349 -0.4572
19509TIP3    H180018   1.082   5.001   3.313  1.5759 -2.5387 -2.8284
19509TIP3    H280019   1.191   5.007   3.418 -0.7237 -0.6680 -0.4137
19510TIP3   OH280020   0.287   6.468  12.031  0.3249 -0.2338 -0.4845
19510TIP3    H180021   0.298   6.386  12.079 -2.1048 -0.5683 -0.3984
19510TIP3    H280022   0.256   6.441  11.945 -1.2104  0.5833 -0.2178
19511TIP3   OH280023   3.520   4.572  13.151 -0.2571  0.1618 -0.3985
19511TIP3    H180024   3.569   4.641  13.194 -0.8655 -0.2133  0.9557
19511TIP3    H280025   3.586   4.515  13.113  0.2700  0.9466 -0.6782
19512TIP3   OH280026   1.577   6.470  14.640  0.3131  0.6653  0.3986
19512TIP3    H180027   1.581   6.473  14.736  1.3833 -0.3001  0.4116
19512TIP3    H280028   1.656   6.422  14.615 -0.3387  0.2349 -0.9314
19513TIP3   OH280029   4.666   5.466   1.804  0.4597 -0.1743 -0.1147
19513TIP3    H180030   4.588   5.430   1.846 -0.1637 -0.4370 -1.4543
19513TIP3    H280031   4.649   5.459   1.710  1.7107  0.6123 -0.4330
19514TIP3   OH280032   5.014   4.156  15.388  0.0510 -0.1702 -0.1117
19514TIP3    H180033   4.999   4.238  15.435  1.1290 -0.1796  0.2590
19514TIP3    H280034   4.935   4.105  15.404  0.5531 -0.3532  2.0656
19515TIP3   OH280035   3.463   4.143  17.166 -0.1455 -0.6418 -0.3005
19515TIP3    H180036   3.396   4.200  17.203 -0.0813  0.0369 -1.2070
19515TIP3    H280037   3.523   4.202  17.120  0.3713 -1.3614 -0.5733
19516TIP3   OH280038   1.639   2.028   1.803 -0.2526  0.3414  0.3355
19516TIP3    H180039   1.648   2.031   1.708 -0.9848  0.6745  0.2767
19516TIP3    H280040   1.729   2.030   1.835 -0.0027  0.3013 -0.3448
19517TIP3   OH280041   1.442   0.072   2.203  0.2717  0.5517 -0.1748
19517TIP3    H180042   1.367   0.126   2.226  1.4864  1.9952  0.5044
19517TIP3    H280043   1.499   0.130   2.153 -0.6771 -1.5002 -4.0958
19518TIP3   OH280044   2.690   1.912   2.618 -0.1741  0.0866  0.3794
19518TIP3    H180045   2.688   1.832   2.670 -1.1779 -1.4586 -1.9240
19518TIP3    H280046   2.619   1.965   2.654  0.8348  0.2658  2.2726
19519TIP3   OH280047   6.741   6.525  14.472 -0.1029  0.7697  0.4238
19519TIP3    H180048   6.726   6.436  14.503 -1.6893  0.8675  0.0518
19519TIP3    H280049   6.749   6.578  14.551  0.2184  0.3935  0.6444
19520TIP3   OH280050   1.786   0.007   2.109 -0.0262  0.4520 -0.0076
19520TIP3    H180051   1.734  -0.054   2.056 -0.1232  0.9192 -0.4543
19520TIP3    H280052   1.876  -0.012   2.085 -0.0400  0.3059  0.0511
19521TIP3   OH280053   0.678   3.885  15.243  0.3175 -0.7834  0.4748
19521TIP3    H180054   0.688   3.905  15.336 -1.2037 -1.0655  0.7251
19521TIP3    H280055   0.672   3.971  15.201  1.6198 -0.6394  0.5255
19522TIP3   OH280056   1.330   5.216  12.425 -0.6341 -0.0229 -0.2785
19522TIP3    H180057   1.420   5.187  12.443 -0.1757  0.7372 -1.2437
19522TIP3    H280058   1.322   5.299  12.472 -0.2034  0.8142 -1.6205
19523TIP3   OH280059   3.691   0.250  16.590  0.1899 -0.2987 -0.6732
19523TIP3    H180060   3.638   0.183  16.635  0.3389  0.7360  1.1462
19523TIP3    H280061   3.715   0.311  16.659  0.5530  1.3370 -2.1853
19524TIP3   OH280062   6.429   0.319  11.246 -0.1510 -0.2087 -0.2125
19524TIP3    H180063   6.372   0.392  11.270 -2.2915 -0.9540 -2.5737
19524TIP3    H280064   6.381   0.240  11.273  0.4806 -0.8301 -0.8300
19525TIP3   OH280065   2.951   1.455   2.652 -0.2884  0.1439  0.3375
19525TIP3    H180066   2.950   1.363   2.678 -1.8804 -0.1404 -0.5876
19525TIP3    H280067   2.957   1.453   2.557 -1.5330  0.9412  0.2145
19526TIP3   OH280068   5.134   0.064   2.036  0.5678  0.0790  1.0719
19526TIP3    H180069   5.168  -0.005   2.094  0.5775 -0.3748  0.5369
19526TIP3    H280070   5.042   0.074   2.063  0.9373  0.8792  2.1119
19527TIP3   OH280071   0.815   3.083  12.447 -0.3225  0.3868 -0.6257
19527TIP3    H180072   0.835   3.152  12.510  0.0977  0.5847 -0.9735
19527TIP3    H280073   0.900   3.050  12.420 -0.5170 -1.0594  0.3962
19528TIP3   OH280074   0.400   3.790   3.163  0.4997 -0.3683  0.2621
19528TIP3    H180075   0.422   3.866   3.109 -0.4637 -1.1375 -1.2535
19528TIP3    H280076   0.332   3.822   3.222  0.6929  0.1608  0.2068
19529TIP3   OH280077   3.401   1.065   0.017 -0.1818  0.1316  0.1724
19529TIP3    H180078   3.315   1.025   0.028 -0.9912  2.1818  2.1599
19529TIP3    H280079   3.383   1.153  -0.018  1.1855  0.2473 -0.3147
19530TIP3   OH280080   5.729   5.822   1.677  0.2728  0.1098 -0.4039
19530TIP3    H180081   5.681   5.772   1.743  0.4345  0.5151  0.0311
19530TIP3    H280082   5.818   5.830   1.713  0.2588  0.6727 -0.4774
19531TIP3   OH280083   5.999   0.691   4.525 -0.7675 -0.3712  0.6695
19531TIP3    H180084   6.040   0.769   4.563 -1.4962  0.1963  0.3137
19531TIP3    H280085   6.048   0.618   4.562  0.1903  0.2639  0.7032
19532TIP3   OH280086   5.700   3.118   1.553 -0.4587  0.4696 -0.1572
19532TIP3    H180087   5.681   3.052   1.487 -0.5805  0.6209 -0.2719
19532TIP3    H280088   5.661   3.199   1.520 -0.5935  0.5273  0.1361
19533TIP3   OH280089   6.402   6.287  13.562  0.1375  0.3729  0.0348
19533TIP3    H180090   6.442   6.202  13.583 -0.0848  0.3623  0.4318
19533TIP3    H280091   6.470   6.335  13.516  0.5491  0.2853  0.5376
19534TIP3   OH280092   0.611   1.517   4.590 -0.8379 -0.3540 -0.1839
19534TIP3    H180093   0.631   1.598   4.544  0.0487 -1.0637 -1.0852
19534TIP3    H280094   0.580   1.457   4.522 -1.6510 -0.7370  0.4972
19535TIP3   OH280095   2.329   3.307  14.934 -0.3905 -1.0042  0.3312
19535TIP3    H180096   2.245   3.298  14.980  0.5535 -3.2058  1.7871
19535TIP3    H280097   2.306   3.296  14.841 -1.8242 -0.6365  0.6150
19536TIP3   OH280098   5.334   4.601  15.358 -0.2529  0.3875  0.1041
19536TIP3    H180099   5.302   4.623  15.446 -0.1148  1.6933 -0.1570
19536TIP3    H280100   5.315   4.679  15.305  0.6534  0.0356 -0.7596
19537TIP3   OH280101   6.103   4.279   4.840  0.2648 -0.2315 -0.0205
19537TIP3    H180102   6.119   4.374   4.846 -1.6371  0.0553  1.6319
19537TIP3    H280103   6.156   4.242   4.911  0.7473 -0.3799 -0.4543
19538TIP3   OH280104   3.093   4.906  13.143  0.2448 -0.4497 -0.3984
19538TIP3    H180105   3.049   4.851  13.078  0.5062 -0.8645 -0.2275
19538TIP3    H280106   3.037   4.982  13.152 -2.0372 -2.2144  1.9307
19539TIP3   OH280107   0.007   2.031  10.707 -0.1205 -0.9567 -0.6572
19539TIP3    H180108   0.095   2.069  10.699 -0.5180  0.0754 -0.4035
19539TIP3    H280109   0.021   1.937  10.703  1.2145 -0.9039  1.2115
19540TIP3   OH280110   1.574   0.273  15.524  0.1028  0.9590  0.1199
19540TIP3    H180111   1.654   0.229  15.495  1.0135  1.4930  1.7269
19540TIP3    H280112   1.537   0.215  15.591 -0.5842  0.9887 -0.2173
19541TIP3   OH280113   4.650   0.205  15.804 -0.1189 -0.1605  0.4784
19541TIP3    H180114   4.629   0.117  15.836  1.1073  0.1242  2.2401
19541TIP3    H280115   4.635   0.262  15.880 -1.6652  1.3076 -0.8551
19542TIP3   OH280116   0.193   2.774  13.523 -0.4257 -0.6032  0.1969
19542TIP3    H180117   0.261   2.818  13.576 -0.1549  0.9333 -1.3256
19542TIP3    H280118   0.154   2.711  13.583 -0.2143  1.1020  2.2907
19543TIP3   OH280119   5.608   2.324  11.724  0.4669  0.2635 -0.2141
19543TIP3    H180120   5.684   2.342  11.780  0.3475  0.5400 -0.1404
19543TIP3    H280121   5.645   2.306  11.638  0.6671 -0.4190  0.0140
19544TIP3   OH280122   5.314   6.681   4.021  0.2188 -0.3834  0.0785
19544TIP3    H180123   5.362   6.760   3.996 -1.2298  0.4435 -0.1735
19544TIP3    H280124   5.374   6.635   4.080  1.5200  0.3429 -0.6255
19545TIP3   OH280125   0.446   0.759  13.559  0.6480 -0.3833 -0.1799
19545TIP3    H180126   0.412   0.699  13.493  1.8601  0.5945 -1.7650
19545TIP3    H280127   0.379   0.827  13.567  0.0776 -0.9920  0.3098
19546TIP3   OH280128   6.480   1.949   1.859 -0.0479 -0.1169 -0.2245
19546TIP3    H180129   6.457   1.910   1.943  0.4053 -0.1362 -0.1058
19546TIP3    H280130   6.397   1.981   1.823 -0.4136 -1.0953 -0.2747
19547TIP3   OH280131   3.571   5.406   1.907 -0.1026  0.0297  0.6084
19547TIP3    H180132   3.574   5.412   1.811  1.1115  0.3622  0.6549
19547TIP3    H280133   3.638   5.342   1.929  1.5084  1.8806  1.3631
19548TIP3   OH280134   1.008   0.123   0.477 -0.2254 -0.6950  0.4581
19548TIP3    H180135   1.043   0.145   0.564  1.4780 -1.7364  0.0882
19548TIP3    H280136   0.974   0.206   0.443  0.4921  0.0497  1.5017
19549TIP3   OH280137   0.345   5.611  16.536 -0.0962  0.9121  0.5171
19549TIP3    H180138   0.263   5.650  16.507 -0.3341  0.7197  0.9099
19549TIP3    H280139   0.319   5.523  16.565  0.7144 -0.3307 -2.1939
19550TIP3   OH280140   6.649   2.127   0.353 -0.3559 -0.1278  0.4139
19550TIP3    H180141   6.567   2.170   0.379  1.7706  4.0002  1.2215
19550TIP3    H280142   6.714   2.197   0.356  2.9919 -2.8500 -1.5967
19551TIP3   OH280143   2.351   2.500   4.644  0.2301  0.9211  0.4481
19551TIP3    H180144   2.313   2.420   4.680 -1.5431  0.9124 -1.2415
19551TIP3    H280145   2.436   2.473   4.609 -0.0621 -0.0838  0.4952
19552TIP3   OH280146   1.105   6.494   4.719  0.0229 -0.1508  0.1254
19552TIP3    H180147   1.097   6.560   4.649  0.7301  0.7628  0.8907
19552TIP3    H280148   1.016   6.460   4.728  0.0105 -0.6978 -1.6021
19553TIP3   OH280149   0.631   1.985   4.110  0.0838 -0.3398 -0.2868
19553TIP3    H180150   0.663   2.035   4.185 -0.4414  1.5441 -1.2461
19553TIP3    H280151   0.564   1.927   4.147 -0.3854  0.7770  0.6674
19554TIP3   OH280152   4.562   3.647   2.217 -0.5023  0.0374 -0.0902
19554TIP3    H180153   4.491   3.705   2.245  0.7740  1.2702  0.7192
19554TIP3    H280154   4.547   3.566   2.266 -2.1029 -0.2412 -0.9573
19555TIP3   OH280155   3.915   3.167  13.202  0.0368 -0.0457 -0.2031
19555TIP3    H180156   3.848   3.098  13.200 -0.8444  0.7985 -0.4236
19555TIP3    H280157   3.960   3.154  13.286 -0.3267 -0.6893 -0.1010
19556TIP3   OH280158   0.939   6.274   3.118  0.4123  0.2152 -0.0904
19556TIP3    H180159   0.845   6.262   3.123  0.2379  0.7085 -1.7586
19556TIP3    H280160   0.951   6.368   3.109  1.0128  0.1034 -0.5517
19557TIP3   OH280161   5.739   3.682   4.585  0.5810 -0.2658 -0.1192
19557TIP3    H180162   5.675   3.625   4.627  0.5808 -1.6844 -1.8978
19557TIP3    H280163   5.809   3.692   4.650 -0.2795 -0.7779  0.9057
19558TIP3   OH280164   5.854   4.620   1.214  0.3631 -0.0678  0.2140
19558TIP3    H180165   5.770   4.597   1.173 -0.8492  0.6784  2.1220
19558TIP3    H280166   5.885   4.538   1.252  0.4442 -0.3253 -0.4021
19559TIP3   OH280167   5.195   2.082  14.316  0.0940 -0.8912  0.0760
19559TIP3    H180168   5.166   2.093  14.225  0.5581 -0.0946  0.0095
19559TIP3    H280169   5.166   2.162  14.359  2.9600  0.4334 -0.2126
19560TIP3   OH280170   4.438   1.084  13.260 -0.2112  0.2744  0.0676
19560TIP3    H180171   4.449   1.175  13.230  1.3857  0.6087  1.5031
19560TIP3    H280172   4.509   1.036  13.218 -1.7767 -0.6490 -1.6829
19561TIP3   OH280173   3.357   6.145   2.368  0.3506 -0.0219  0.0303
19561TIP3    H180174   3.282   6.087   2.379  0.7606 -0.3578  1.3055
19561TIP3    H280175   3.346   6.184   2.281 -0.6563 -0.9679 -0.2829
19562TIP3   OH280176   2.174   6.723   5.645 -0.1245  0.8965 -0.2185
19562TIP3    H180177   2.256   6.690   5.682 -0.5575  1.7892  1.6551
19562TIP3    H280178   2.132   6.646   5.608  0.9314  0.1825  0.0142
19563TIP3   OH280179   3.055   2.067  14.422  0.0318  0.3147  0.3831
19563TIP3    H180180   3.093   2.007  14.358 -0.6708  1.4918 -1.2463
19563TIP3    H280181   3.130   2.104  14.468  0.6796  0.2830 -0.6026
19564TIP3   OH280182   2.240   6.466  11.462  0.5839  0.2638 -0.0719
19564TIP3    H180183   2.223   6.516  11.382  2.0350 -0.5746 -0.9562
19564TIP3    H280184   2.251   6.376  11.432  0.9412 -0.0998  1.1022
19565TIP3   OH280185   1.966   5.736  13.887  0.0413  0.4626  0.6015
19565TIP3    H180186   2.037   5.702  13.942 -0.7964 -0.6132  1.0455
19565TIP3    H280187   1.887   5.723  13.939 -0.6372  0.4529 -0.4115
19566TIP3   OH280188   3.283   6.309   6.376 -0.0780 -0.8332 -0.0642
19566TIP3    H180189   3.333   6.386   6.402 -2.0118  0.4203  0.0700
19566TIP3    H280190   3.348   6.251   6.335  1.2162  1.3756 -1.3076
19567TIP3   OH280191   1.255   2.297   3.603  0.8328 -0.6685  0.1591
19567TIP3    H180192   1.328   2.262   3.654  1.4677 -1.2190 -1.0706
19567TIP3    H280193   1.220   2.221   3.556  1.1838  0.0498 -1.3129
19568TIP3   OH280194   3.398   3.627   4.012 -0.2875  0.4189  0.3581
19568TIP3    H180195   3.488   3.642   4.042 -1.1086  1.7628  2.3704
19568TIP3    H280196   3.387   3.686   3.938  0.5636 -0.0145 -0.1394
19569TIP3   OH280197   2.774   4.609   4.570  0.2697 -0.1556  0.3559
19569TIP3    H180198   2.782   4.513   4.562  1.0561 -0.0469 -0.3665
19569TIP3    H280199   2.726   4.622   4.651  3.5993 -1.1079  2.7023
19570TIP3   OH280200   5.524   4.981  11.691  0.3956 -0.3918 -0.4580
19570TIP3    H180201   5.595   4.922  11.717  0.7791 -0.2574 -1.1786
19570TIP3    H280202   5.562   5.036  11.623 -0.0727  0.4418 -0.0634
19571TIP3   OH280203   3.824   0.986  11.315  0.1487  0.0462 -0.2636
19571TIP3    H180204   3.805   1.080  11.316  0.2008  0.0654  1.6725
19571TIP3    H280205   3.755   0.949  11.259  1.8951  1.5033 -3.6975
19572TIP3   OH280206   1.839   1.336   0.999 -0.4360  0.0403 -0.4222
19572TIP3    H180207   1.748   1.359   1.022 -0.3706 -0.9156  0.9013
19572TIP3    H280208   1.891   1.409   1.034 -0.5090 -0.5218  0.9296
19573TIP3   OH280209   2.364   1.378  13.681 -0.3107 -0.0001 -0.1905
19573TIP3    H180210   2.422   1.407  13.611 -0.2169 -0.2223 -0.2060
19573TIP3    H280211   2.423   1.351  13.752 -0.3764 -0.7538 -0.4153
19574TIP3   OH280212   4.977   4.740   3.680 -0.5267 -0.4404 -0.1090
19574TIP3    H180213   4.963   4.817   3.625  1.9750  0.7398  0.7551
19574TIP3    H280214   4.964   4.771   3.769  0.5530 -0.9913  0.2528
19575TIP3   OH280215   1.635   2.975  14.608 -0.0204 -0.7889  0.1571
19575TIP3    H180216   1.623   2.895  14.558 -3.5721 -0.4631  0.2477
19575TIP3    H280217   1.585   3.041  14.560 -1.8322  0.0346  2.9289
19576TIP3   OH280218   4.076   3.990   2.775  0.6334  0.5025  0.1885
19576TIP3    H180219   4.103   3.969   2.864 -1.2754 -0.9009  0.5088
19576TIP3    H280220   4.099   3.912   2.724  1.6216  1.2537 -0.5686
19577TIP3   OH280221   5.525   1.099   1.948 -0.3321  0.0242 -0.2106
19577TIP3    H180222   5.498   1.189   1.931 -0.3314  0.5947  2.3366
19577TIP3    H280223   5.443   1.049   1.946 -0.6714  0.5265  0.6963
19578TIP3   OH280224   4.411   4.694   0.417 -0.2525 -0.2774 -0.1060
19578TIP3    H180225   4.390   4.738   0.500  0.5703  2.3121 -1.1625
19578TIP3    H280226   4.331   4.700   0.366  0.1071  0.8014 -0.5602
19579TIP3   OH280227   3.772   6.202  16.515  0.2363  0.5317 -0.5287
19579TIP3    H180228   3.711   6.189  16.442 -0.8117  0.8149  0.2774
19579TIP3    H280229   3.826   6.124  16.514 -0.6917 -0.1335 -0.7538
19580TIP3   OH280230   6.597   1.559   1.876 -0.7550 -0.3856 -0.0175
19580TIP3    H180231   6.524   1.557   1.814 -0.4577 -0.3319 -0.3782
19580TIP3    H280232   6.611   1.652   1.894 -1.0267 -0.4158  0.3582
19581TIP3   OH280233   2.334   4.234  12.075  0.0178 -0.4964  0.2409
19581TIP3    H180234   2.342   4.304  12.009 -0.0129 -0.9404 -0.2417
19581TIP3    H280235   2.405   4.174  12.055 -0.8423 -1.3747 -0.2968
19582TIP3   OH280236   3.370   3.609  14.844 -0.1673 -0.3214  0.2902
19582TIP3    H180237   3.391   3.525  14.802  1.0563 -0.0273  0.2738
19582TIP3    H280238   3.406   3.601  14.932  0.9146  0.5603 -0.0492
19583TIP3   OH280239   5.255   6.365   2.416 -0.0020  0.9468  0.0416
19583TIP3    H180240   5.264   6.456   2.388 -1.3142  1.0755 -0.0176
19583TIP3    H280241   5.199   6.325   2.349 -0.3455  0.3838  0.6572
19584TIP3   OH280242   3.990   5.083  16.718  0.1419 -0.2299 -0.0427
19584TIP3    H180243   4.064   5.047  16.767 -0.3628 -1.1727  0.0548
19584TIP3    H280244   4.027   5.157  16.670  0.7703  0.4024  1.3495
19585TIP3   OH280245   3.439   1.400   5.285  0.1636  0.4227  0.2295
19585TIP3    H180246   3.492   1.373   5.211  1.6566 -2.6366  2.2113
19585TIP3    H280247   3.487   1.473   5.325  1.5129 -0.5234  0.4111
19586TIP3   OH280248   2.387   0.791   4.552 -0.1147  0.1852  0.1002
19586TIP3    H180249   2.421   0.848   4.621  0.4547 -1.3422  1.1256
19586TIP3    H280250   2.324   0.735   4.596  0.8090 -1.3243 -0.4281
19587TIP3   OH280251   2.946   4.870  16.391 -0.1667  0.2706 -0.4768
19587TIP3    H180252   2.978   4.960  16.400 -1.4233  0.6062  1.0903
19587TIP3    H280253   3.021   4.822  16.355  0.8073  1.7652 -0.5360
19588TIP3   OH280254   1.034   2.903   4.246  0.2659 -0.1492 -0.1272
19588TIP3    H180255   1.123   2.871   4.237  0.0173 -0.5689 -1.2052
19588TIP3    H280256   0.981   2.841   4.196 -0.6170  0.1740  0.3852
19589TIP3   OH280257   0.654   5.881  16.323  0.6921  0.5936  0.2187
19589TIP3    H180258   0.622   5.879  16.414  0.0173  1.4746  0.0108
19589TIP3    H280259   0.699   5.965  16.316 -0.1174  0.9749 -0.5399
19590TIP3   OH280260   5.939   3.711   5.452  0.0195 -0.1959  0.0663
19590TIP3    H180261   5.864   3.767   5.474 -0.2411 -0.1902 -0.7693
19590TIP3    H280262   5.940   3.710   5.356  1.6771  0.5654  0.0504
19591TIP3   OH280263   5.017   0.407  13.781 -0.1426 -0.1083  0.1223
19591TIP3    H180264   5.021   0.369  13.869 -0.4533  1.8808  1.0501
19591TIP3    H280265   4.926   0.393  13.753  0.3499 -2.1782 -0.6101
19592TIP3   OH280266   3.174   4.549  13.679  0.2227 -0.1356  0.5889
19592TIP3    H180267   3.095   4.495  13.682 -0.1226  0.4059  2.7951
19592TIP3    H280268   3.152   4.619  13.616 -0.2254 -1.1587 -0.4282
19593TIP3   OH280269   4.371   5.435  16.167  0.0667  0.5070 -0.2393
19593TIP3    H180270   4.426   5.507  16.136  0.6035 -0.7472 -2.4114
19593TIP3    H280271   4.284   5.453  16.132  0.5957 -0.7311 -2.3559
19594TIP3   OH280272   5.639   1.408  14.126  0.5248  0.0743  0.7184
19594TIP3    H180273   5.682   1.462  14.060 -0.7690 -0.0496 -0.2581
19594TIP3    H280274   5.674   1.320  14.111  0.1446  0.0239  0.1118
19595TIP3   OH280275   6.118   4.308  14.286  0.6114 -0.0243 -0.0283
19595TIP3    H180276   6.106   4.359  14.366 -0.4677 -0.1586 -0.0890
19595TIP3    H280277   6.164   4.228  14.315 -1.2826 -0.8717  0.7845
19596TIP3   OH280278   4.458   1.869  14.228 -0.3184 -0.2800  0.1467
19596TIP3    H180279   4.539   1.833  14.264  0.3514 -0.2403 -1.2662
19596TIP3    H280280   4.473   1.874  14.134 -1.7634  0.2589 -0.0878
19597TIP3   OH280281   3.215   2.586  12.898  0.3623  0.0591 -0.5102
19597TIP3    H180282   3.133   2.557  12.936  0.4161  1.0891  0.4689
19597TIP3    H280283   3.276   2.513  12.913 -0.4704 -0.9146 -1.7007
19598TIP3   OH280284   4.504   4.923   0.255  0.0259  0.2649 -0.4104
19598TIP3    H180285   4.489   4.832   0.282 -0.4067 -0.0464 -1.6461
19598TIP3    H280286   4.578   4.952   0.308  1.0402 -1.2535 -0.9349
19599TIP3   OH280287   6.333   1.860  14.872 -0.2351  0.1978  0.1098
19599TIP3    H180288   6.241   1.835  14.877 -0.5110  0.7826 -1.4785
19599TIP3    H280289   6.332   1.956  14.871  0.3241  0.2092 -0.6615
19600TIP3   OH280290   6.155   0.771   1.115 -0.2409 -0.2616  0.0380
19600TIP3    H180291   6.184   0.778   1.207 -1.0732  0.0477  0.2821
19600TIP3    H280292   6.212   0.833   1.068  2.1516 -2.4413 -0.1700
19601TIP3   OH280293   2.508   0.814   6.499  0.7534  0.2153 -0.6491
19601TIP3    H180294   2.459   0.894   6.518 -2.4316 -1.6279 -0.3261
19601TIP3    H280295   2.473   0.784   6.415  0.9809 -1.4338 -0.1955
19602TIP3   OH280296   6.564   4.544   5.270  0.4605  0.3573 -0.6678
19602TIP3    H180297   6.598   4.487   5.339  0.7017  0.6824 -0.5205
19602TIP3    H280298   6.588   4.632   5.296  0.2229  0.5186 -0.9777
19603TIP3   OH280299   2.046   6.802  11.286 -0.3003 -0.2173  0.6737
19603TIP3    H180300   2.105   6.845  11.223 -0.0967 -1.6208 -0.1342
19603TIP3    H280301   1.986   6.751  11.232 -0.5202 -0.9674  1.5904
19604TIP3   OH280302   0.261   3.616   5.264 -0.3233 -0.1651 -0.6352
19604TIP3    H180303   0.176   3.632   5.306 -0.7889 -1.0263 -1.2159
19604TIP3    H280304   0.316   3.580   5.333  0.7731  3.6677  0.7429
19605TIP3   OH280305   2.182   0.102   4.508  0.4795 -0.5244  0.2431
19605TIP3    H180306   2.221   0.178   4.551  1.0434 -0.7701  0.1868
19605TIP3    H280307   2.253   0.068   4.452  0.4088 -1.3956  0.6666
19606TIP3   OH280308   0.951   6.109   5.114 -0.4218  0.7957 -0.3010
19606TIP3    H180309   0.984   6.167   5.046 -0.4648 -0.0149 -1.0405
19606TIP3    H280310   0.945   6.023   5.071  1.6431 -0.2526  1.2892
19607TIP3   OH280311   4.628   6.750   5.856  0.7044  0.8624 -0.0295
19607TIP3    H180312   4.679   6.804   5.915 -0.5388  2.9501 -0.7419
19607TIP3    H280313   4.600   6.810   5.787 -1.9798 -0.3232 -0.1060
19608TIP3   OH280314   0.361   5.284  13.271 -0.3304 -0.2219 -0.3584
19608TIP3    H180315   0.446   5.242  13.281  0.1495  0.9792  1.1355
19608TIP3    H280316   0.364   5.358  13.332 -2.3182  0.0620 -0.5357
19609TIP3   OH280317   2.799   4.948  16.139  0.3014 -0.2649  0.1297
19609TIP3    H180318   2.856   4.899  16.199 -0.4100 -0.8053  0.3704
19609TIP3    H280319   2.714   4.950  16.183  0.1975  0.7845 -0.0991
19610TIP3   OH280320   0.582   0.503  11.882 -0.0596  0.0265  0.7307
19610TIP3    H180321   0.636   0.438  11.835 -0.9039 -0.6005  0.6046
19610TIP3    H280322   0.529   0.451  11.942 -1.2532  0.5265  0.1349
19611TIP3   OH280323   5.724   5.743  16.628 -0.1205 -1.1637  0.4222
19611TIP3    H180324   5.721   5.789  16.712  0.8905  0.3486 -0.3318
19611TIP3    H280325   5.779   5.667  16.645 -0.1000 -0.9922  1.1716
19612TIP3   OH280326   4.686   6.240  15.758  0.1568 -0.8632  0.6395
19612TIP3    H180327   4.727   6.208  15.678  0.2737 -1.4268  0.9197
19612TIP3    H280328   4.596   6.260  15.733 -0.0442 -1.8194  0.5513
19613TIP3   OH280329   6.288   2.989  12.350  0.3943  0.7039  0.1685
19613TIP3    H180330   6.331   2.917  12.304 -0.7643 -0.7345  1.2597
19613TIP3    H280331   6.359   3.036  12.392  1.2343  0.6283 -1.1015
19614TIP3   OH280332   1.689   2.184  12.034 -0.3565 -0.1235  0.5273
19614TIP3    H180333   1.684   2.088  12.033 -2.2835 -0.0618 -0.7625
19614TIP3    H280334   1.772   2.203  12.079  0.4007 -2.3878  0.2255
19615TIP3   OH280335   0.457   0.459  13.359  0.1035  0.0447  0.0570
19615TIP3    H180336   0.443   0.553  13.342 -0.0698 -0.3261 -2.1570
19615TIP3    H280337   0.536   0.456  13.413  1.9090  1.3733 -2.3317
19616TIP3   OH280338   1.220   0.552   2.999  0.2192  0.0822  0.0307
19616TIP3    H180339   1.150   0.488   3.003 -0.2183  0.3936 -1.6538
19616TIP3    H280340   1.182   0.631   3.037 -0.6010  0.4184 -1.3885
19617TIP3   OH280341   1.255   4.096  16.655  0.0674  0.2340 -0.1581
19617TIP3    H180342   1.186   4.107  16.590  0.0824 -1.6963 -0.5577
19617TIP3    H280343   1.269   4.001  16.660 -0.6945  0.1743  3.4483
19618TIP3   OH280344   5.909   6.456  13.689  0.0645 -0.0942 -0.1312
19618TIP3    H180345   5.981   6.423  13.635 -0.2200 -1.1782  0.1188
19618TIP3    H280346   5.830   6.421  13.647 -0.2294 -0.0066  0.3433
19619TIP3   OH280347   2.398   4.705  12.356  0.4478 -0.0935 -0.5070
19619TIP3    H180348   2.371   4.762  12.284  0.2895  0.5318  0.0348
19619TIP3    H280349   2.353   4.623  12.340 -0.7377  0.5003 -0.3442
19620TIP3   OH280350   3.961   2.928   2.011 -0.2114  0.0327 -0.0902
19620TIP3    H180351   3.973   2.858   2.075 -2.3811 -0.0311  0.3174
19620TIP3    H280352   3.889   2.897   1.955  0.8966  0.5690 -1.8884
19621TIP3   OH280353   4.295   5.864   1.112 -0.3141  0.6948 -0.0168
19621TIP3    H180354   4.361   5.882   1.045  0.4688 -0.6892  0.3451
19621TIP3    H280355   4.222   5.826   1.064  0.8841 -1.8638  0.0168
19622TIP3   OH280356   4.357   1.482   4.588  0.1273  0.5391  0.3773
19622TIP3    H180357   4.332   1.395   4.620  2.7335  0.1246  1.5127
19622TIP3    H280358   4.333   1.482   4.496 -0.4344 -1.1604  0.4932
19623TIP3   OH280359   4.984   3.524  12.446 -0.2355  0.4989 -0.3368
19623TIP3    H180360   4.972   3.536  12.352  1.3812 -0.8256 -0.7561
19623TIP3    H280361   5.019   3.608  12.477 -0.9835  1.0177 -0.8500
19624TIP3   OH280362   6.234   3.520   1.949  0.6261  0.3427  0.6399
19624TIP3    H180363   6.315   3.551   1.990  1.8497 -1.3135 -0.4151
19624TIP3    H280364   6.263   3.463   1.878 -1.4808  0.1501 -0.1387
19625TIP3   OH280365   4.281   5.921  13.545  0.0033  0.6172  0.7226
19625TIP3    H180366   4.232   6.000  13.569 -0.3942  0.0480  1.8600
19625TIP3    H280367   4.373   5.948  13.549 -0.1720  1.5460 -0.8966
19626TIP3   OH280368   5.613   5.874  14.976 -0.0050 -0.7312 -0.2137
19626TIP3    H180369   5.683   5.912  14.924 -0.9048  2.0570  0.4180
19626TIP3    H280370   5.652   5.861  15.063  0.0452 -0.1949 -0.1508
19627TIP3   OH280371   5.270   6.149  16.829  0.4015 -0.0959 -0.0518
19627TIP3    H180372   5.318   6.192  16.759 -0.5730  0.8596 -0.1535
19627TIP3    H280373   5.187   6.196  16.834  0.4345 -0.1354  1.7240
19628TIP3   OH280374   3.842   0.510   1.476  0.5474  0.0893 -0.4588
19628TIP3    H180375   3.887   0.547   1.400  0.0389 -0.5220 -1.0674
19628TIP3    H280376   3.890   0.545   1.552  2.0706 -0.5885 -1.0801
19629TIP3   OH280377   1.503   1.296   6.497  0.8507  0.1900 -0.2476
19629TIP3    H180378   1.563   1.349   6.549  1.0974  0.7150 -1.0511
19629TIP3    H280379   1.548   1.212   6.485  0.8312  0.0994  0.2936
19630TIP3   OH280380   2.739   6.567  11.675 -0.5000  0.1177 -0.2254
19630TIP3    H180381   2.756   6.571  11.769  1.1399  0.7513 -0.5120
19630TIP3    H280382   2.648   6.538  11.668 -0.1994 -1.4833  1.5283
19631TIP3   OH280383   5.901   1.029   4.398  0.3335  0.1632  0.4473
19631TIP3    H180384   5.988   1.011   4.435 -0.0529  0.6608  1.6391
19631TIP3    H280385   5.844   0.964   4.439 -0.2243  1.1363  1.2642
19632TIP3   OH280386   1.241   2.831  12.610 -0.7513 -0.0097  0.1047
19632TIP3    H180387   1.235   2.827  12.706  2.9252  0.9283  0.5397
19632TIP3    H280388   1.320   2.780  12.589 -0.1067  1.7628 -2.1318
19633TIP3   OH280389   4.891   4.564   2.110 -0.0223 -0.4923  0.5557
19633TIP3    H180390   4.864   4.590   2.198 -0.8789  0.9525 -0.1021
19633TIP3    H280391   4.931   4.642   2.072 -1.9434 -0.2672 -1.2072
19634TIP3   OH280392   4.152   4.901   2.139 -0.2956  0.0654  0.9168
19634TIP3    H180393   4.149   4.997   2.140 -0.0508  0.1177 -0.7106
19634TIP3    H280394   4.243   4.879   2.158  0.3702  0.3103 -1.5665
19635TIP3   OH280395   5.145   5.925  14.135  0.3229 -0.4645 -0.1111
19635TIP3    H180396   5.091   6.004  14.127  2.0378  0.6013 -1.9618
19635TIP3    H280397   5.172   5.924  14.227  0.2597  1.1075 -0.0544
19636TIP3   OH280398   1.491   6.276  12.594  0.0448  0.2544  0.1412
19636TIP3    H180399   1.579   6.304  12.621  0.3387 -1.6576  1.2938
19636TIP3    H280400   1.506   6.228  12.513 -0.0941  0.8081 -0.2226
19637TIP3   OH280401   0.983   5.895   1.640  0.1117 -0.3640  0.1067
19637TIP3    H180402   1.020   5.882   1.728  1.1353  0.4031 -0.1969
19637TIP3    H280403   1.041   5.959   1.598 -1.4609  0.7603 -0.4620
19638TIP3   OH280404   4.277   2.227  16.836  0.1070 -0.5664 -0.0068
19638TIP3    H180405   4.193   2.213  16.792 -1.7693  3.3590  1.8761
19638TIP3    H280406   4.332   2.272  16.771 -0.9901  1.0354  0.1240
19639TIP3   OH280407   2.707   6.534   6.084  0.3585 -0.5638 -0.2861
19639TIP3    H180408   2.752   6.454   6.111 -1.9046 -1.5325  0.9075
19639TIP3    H280409   2.748   6.603   6.136  1.7903 -1.0434 -0.7268
19640TIP3   OH280410   3.992   6.766  17.040  0.4344 -0.4235  0.2422
19640TIP3    H180411   3.969   6.851  17.004 -1.2422 -0.3704  1.3337
19640TIP3    H280412   3.969   6.704  16.970  0.4776 -0.0944 -0.0692
19641TIP3   OH280413   1.918   0.160  17.046  0.2193  0.3613 -1.0354
19641TIP3    H180414   1.977   0.175  17.120 -1.5355  1.0629  0.2995
19641TIP3    H280415   1.934   0.070  17.021  3.6028  1.1882 -2.3988
19642TIP3   OH280416   4.863   0.255   4.626  0.2739  0.3529 -0.1121
19642TIP3    H180417   4.826   0.343   4.636  1.5334  1.0850 -1.5061
19642TIP3    H280418   4.941   0.268   4.572  0.2193 -1.6918 -0.7535
19643TIP3   OH280419   1.986   4.760  15.405 -0.2972 -0.1220 -0.2579
19643TIP3    H180420   2.028   4.846  15.397 -0.3896 -0.1539 -1.3140
19643TIP3    H280421   1.933   4.753  15.325 -0.2287 -1.1884 -0.2163
19644TIP3   OH280422   6.482   3.929  14.866 -0.2981 -0.0611  0.2639
19644TIP3    H180423   6.456   3.875  14.941 -2.1725  0.6353  0.1585
19644TIP3    H280424   6.460   3.876  14.789  2.9482 -1.3898  0.1072
19645TIP3   OH280425   3.585   6.309  16.668  0.0812  0.1033 -0.6234
19645TIP3    H180426   3.568   6.367  16.594  2.3124  1.0603 -0.4604
19645TIP3    H280427   3.659   6.255  16.639  0.1929 -0.3605  0.4808
19646TIP3   OH280428   0.042   1.498   0.247 -0.2626  0.3641 -0.5522
19646TIP3    H180429   0.069   1.456   0.165  0.6553  2.8331 -1.5932
19646TIP3    H280430   0.124   1.527   0.288 -0.7188 -0.6250  1.1987
19647TIP3   OH280431   3.561   5.531   0.990  0.6372  0.2524 -0.1355
19647TIP3    H180432   3.637   5.479   1.017  0.9805  0.7527 -0.1351
19647TIP3    H280433   3.590   5.577   0.912 -0.6054 -1.8321 -1.9449
19648TIP3   OH280434   2.553   3.956  15.091 -0.1318 -0.1698 -0.1358
19648TIP3    H180435   2.553   3.876  15.144  3.9115 -0.9066 -0.8674
19648TIP3    H280436   2.594   3.929  15.008  2.9123  2.7970  0.1792
19649TIP3   OH280437   1.077   1.809   2.352 -0.3257 -0.5972 -0.4819
19649TIP3    H180438   1.000   1.771   2.309 -0.4243 -0.8821 -0.0598
19649TIP3    H280439   1.135   1.834   2.280 -0.6991 -0.6270 -0.7925
19650TIP3   OH280440   1.060   5.743  16.511  0.1953  0.3565  0.7269
19650TIP3    H180441   0.976   5.696  16.506  0.8042 -0.7095  0.3162
19650TIP3    H280442   1.035   5.836  16.504 -0.9033  0.0358  0.0300
19651TIP3   OH280443   6.145   2.616   1.510 -0.6396  0.1084 -0.3432
19651TIP3    H180444   6.170   2.650   1.424 -0.5092  0.2172 -0.2622
19651TIP3    H280445   6.184   2.529   1.513 -2.0772 -0.6122 -1.0900
19652TIP3   OH280446   1.605   2.766  13.103  0.0283 -0.1973 -0.0139
19652TIP3    H180447   1.572   2.787  13.190  1.5069 -2.3389  1.1473
19652TIP3    H280448   1.526   2.750  13.050 -0.8721 -0.7171  1.4400
19653TIP3   OH280449   0.050   0.092  13.178  0.0803 -0.7147 -0.0443
19653TIP3    H180450   0.143   0.099  13.156  0.2006  2.0941  0.9777
19653TIP3    H280451   0.046   0.110  13.272 -1.7546  4.0313 -0.7643
19654TIP3   OH280452   3.613   6.317  14.926 -0.0129 -0.8099 -0.2020
19654TIP3    H180453   3.692   6.370  14.936  0.4949 -1.4874 -0.5169
19654TIP3    H280454   3.586   6.297  15.016  1.0881 -1.8897 -0.0883
19655TIP3   OH280455   1.426   1.720   2.269  0.0641 -0.9208 -0.1825
19655TIP3    H180456   1.395   1.789   2.328 -1.2278 -1.3685 -0.3011
19655TIP3    H280457   1.383   1.641   2.301  2.2961 -1.9044  0.5791
19656TIP3   OH280458   5.759   5.153  13.798  0.3781  0.1393 -0.1714
19656TIP3    H180459   5.706   5.095  13.852  0.4123  0.9858  0.7907
19656TIP3    H280460   5.747   5.120  13.709 -0.7594 -0.4392  0.1806
19657TIP3   OH280461   1.759   2.430   3.904 -0.1120  0.1687 -0.1035
19657TIP3    H180462   1.815   2.466   3.834  0.7188  1.1275  1.0000
19657TIP3    H280463   1.818   2.421   3.979 -1.2556  0.3553  0.8453
19658TIP3   OH280464   6.719   6.168   1.051 -0.1077  0.1465 -0.3661
19658TIP3    H180465   6.805   6.129   1.034 -0.2397 -0.1415 -0.3778
19658TIP3    H280466   6.699   6.220   0.973  1.2824  2.4765  0.7101
19659TIP3   OH280467   0.186   6.346  13.136 -0.2051 -0.1719 -0.1135
19659TIP3    H180468   0.154   6.306  13.055 -0.6693 -0.9838  0.4534
19659TIP3    H280469   0.202   6.272  13.195  1.1454  0.3333  0.1882
19660TIP3   OH280470   4.317   0.536   5.791 -0.5764 -0.2771 -0.0417
19660TIP3    H180471   4.351   0.458   5.747 -1.2030 -0.3177 -0.4755
19660TIP3    H280472   4.222   0.526   5.785 -0.7390 -0.9015  2.3955
19661TIP3   OH280473   3.437   2.610   6.834 -0.6388 -0.4277 -0.0087
19661TIP3    H180474   3.416   2.577   6.747 -3.2414 -0.0566  0.3842
19661TIP3    H280475   3.529   2.586   6.848 -0.4489 -1.3605 -2.4309
19662TIP3   OH280476   0.553   5.873  11.758  0.4932 -0.3021  0.3523
19662TIP3    H180477   0.541   5.787  11.717 -1.6905 -1.1032  2.4366
19662TIP3    H280478   0.551   5.935  11.685 -0.2118 -1.8500 -1.0140
19663TIP3   OH280479   2.863   5.596   5.433  0.0368 -0.2738  0.2666
19663TIP3    H180480   2.836   5.686   5.449 -0.1448 -0.1552 -0.6515
19663TIP3    H280481   2.788   5.543   5.461 -0.6390 -0.0191 -0.9879
19664TIP3   OH280482   4.629   3.166  10.528  0.1528  0.7251 -0.0452
19664TIP3    H180483   4.706   3.206  10.487  0.4201  1.6989  1.3227
19664TIP3    H280484   4.588   3.238  10.576 -0.4127 -0.2531  0.9746
19665TIP3   OH280485   3.677   2.101  12.495 -0.0109 -0.6150 -0.7198
19665TIP3    H180486   3.740   2.100  12.567  1.3605 -2.0004 -1.8845
19665TIP3    H280487   3.593   2.086  12.537  0.9745 -3.4702  0.4553
19666TIP3   OH280488   4.294   4.147   5.615 -0.1020 -0.2234 -0.6836
19666TIP3    H180489   4.217   4.166   5.562 -0.1308 -0.8100 -0.8538
19666TIP3    H280490   4.269   4.174   5.703 -0.7318 -0.9923 -0.6174
19667TIP3   OH280491   1.040   2.266   1.794 -0.0085  0.3286  0.0252
19667TIP3    H180492   1.106   2.227   1.737  0.1465 -0.8285  0.9367
19667TIP3    H280493   0.977   2.195   1.809  1.2133 -0.2894  3.1901
19668TIP3   OH280494   2.928   1.643  15.878  0.0949 -0.0191  0.4612
19668TIP3    H180495   2.847   1.681  15.912 -0.4799 -0.2040 -0.6508
19668TIP3    H280496   2.964   1.592  15.951 -1.6259 -1.2469  0.5168
19669TIP3   OH280497   0.520   2.854  16.272 -0.1435 -0.0738  0.4399
19669TIP3    H180498   0.488   2.928  16.324 -0.4723  0.2643 -0.2296
19669TIP3    H280499   0.509   2.882  16.181 -0.1680 -0.9087  0.1772
19670TIP3   OH280500   4.820   1.150  15.640 -0.7278  0.2443  0.0268
19670TIP3    H180501   4.808   1.133  15.734  0.8762  1.6684  0.5511
19670TIP3    H280502   4.876   1.077  15.610  4.4297  2.9515  1.8064
19671TIP3   OH280503   3.683   1.787  12.716  0.2692 -0.4564  0.4265
19671TIP3    H180504   3.740   1.863  12.706 -1.3597  0.6805 -0.7642
19671TIP3    H280505   3.685   1.768  12.810 -0.5011  2.1107  1.0452
19672TIP3   OH280506   5.913   2.751   4.724  0.6550  0.1382  0.2341
19672TIP3    H180507   5.949   2.828   4.769  1.2575 -0.3148  0.5370
19672TIP3    H280508   5.988   2.694   4.710  0.1131 -0.6826  0.5969
19673TIP3   OH280509   6.229   1.990   0.465  0.1902 -0.6315 -0.0525
19673TIP3    H180510   6.154   1.949   0.507  0.5636 -2.4115 -1.0269
19673TIP3    H280511   6.270   1.920   0.415  0.8359  0.9587 -1.8782
19674TIP3   OH280512   3.598   0.029  12.250  0.0873  0.6217 -0.3601
19674TIP3    H180513   3.595   0.066  12.161 -1.1388  2.3436  0.3343
19674TIP3    H280514   3.587   0.105  12.307  0.4342 -0.5101  1.2667
19675TIP3   OH280515   4.160   3.867  17.251 -0.5056  0.4795 -0.3074
19675TIP3    H180516   4.084   3.813  17.274  1.2559 -1.5904  1.1776
19675TIP3    H280517   4.201   3.886  17.335  0.3719  1.9667 -1.0390
19676TIP3   OH280518   4.731   1.738   6.907 -0.4755 -0.6848  0.6762
19676TIP3    H180519   4.791   1.762   6.836  0.5275 -1.9645  1.0532
19676TIP3    H280520   4.757   1.796   6.979  0.5860 -1.4722  0.9529
19677TIP3   OH280521   3.455   4.127  14.069  0.4539  0.0614  0.3230
19677TIP3    H180522   3.487   4.107  13.982  0.4355 -1.3406  0.6187
19677TIP3    H280523   3.374   4.175  14.054  0.9802  0.7511 -0.4162
19678TIP3   OH280524   2.450   3.555   4.089 -0.3779 -0.2120  0.4706
19678TIP3    H180525   2.435   3.567   4.182 -0.0576 -0.7598  0.5940
19678TIP3    H280526   2.471   3.462   4.079 -0.3506 -0.1474 -0.1362
19679TIP3   OH280527   3.019   0.315   3.366 -0.6444  0.1789 -0.1260
19679TIP3    H180528   2.968   0.300   3.286 -1.7978  1.0855  0.4044
19679TIP3    H280529   3.034   0.227   3.401  1.2412 -0.3719 -2.1090
19680TIP3   OH280530   5.191   5.165  15.579  0.8153  0.4256 -0.2118
19680TIP3    H180531   5.266   5.112  15.609  1.3375  1.5338  0.4734
19680TIP3    H280532   5.194   5.157  15.484 -0.5047 -2.6444 -0.1309
19681TIP3   OH280533   4.821   6.701   4.905 -0.0102  0.3419 -0.3328
19681TIP3    H180534   4.815   6.718   4.811  0.2122 -2.3920 -0.9137
19681TIP3    H280535   4.912   6.720   4.927 -0.0217  0.8375 -0.6921
19682TIP3   OH280536   2.442   1.314  12.224  0.3230  0.4694  0.3168
19682TIP3    H180537   2.489   1.230  12.215  1.5342  1.2806 -1.7895
19682TIP3    H280538   2.367   1.306  12.165 -0.2102  0.4754  0.9822
19683TIP3   OH280539   0.055   5.692   6.670 -0.4086 -0.0271  1.1966
19683TIP3    H180540  -0.040   5.683   6.664 -0.3064 -0.4806 -0.1656
19683TIP3    H280541   0.089   5.604   6.652  0.3177  0.6725 -1.3390
19684TIP3   OH280542   6.461   4.615  14.363  0.3050 -0.0212 -0.1964
19684TIP3    H180543   6.444   4.709  14.369  0.3876 -0.0201  0.0466
19684TIP3    H280544   6.426   4.579  14.444  0.4713 -0.1677 -0.1892
19685TIP3   OH280545   3.206   0.366   2.626  0.0895  0.3651  0.2696
19685TIP3    H180546   3.161   0.386   2.544 -0.0792 -1.3046 -0.0760
19685TIP3    H280547   3.138   0.330   2.682  0.2769  1.1912  1.0525
19686TIP3   OH280548   1.832   3.671   4.399  0.2365  0.1200  0.0683
19686TIP3    H180549   1.842   3.611   4.325 -1.6769 -0.1726  0.0061
19686TIP3    H280550   1.899   3.738   4.385  1.4793 -1.2036 -0.6334
19687TIP3   OH280551   1.253   6.805   1.137 -0.2429  0.2214 -0.4066
19687TIP3    H180552   1.221   6.721   1.105 -0.7648  0.6746 -1.1098
19687TIP3    H280553   1.174   6.858   1.150 -0.0327  0.1701  1.3693
19688TIP3   OH280554   5.683   6.198  16.972 -0.1265  0.0287 -0.1256
19688TIP3    H180555   5.686   6.123  16.913  0.3880  1.7491 -2.4084
19688TIP3    H280556   5.593   6.198  17.006 -0.2225 -1.4127 -0.3239
19689TIP3   OH280557   4.481   5.962   0.112 -0.3772  0.4801 -0.0377
19689TIP3    H180558   4.414   5.983   0.047 -1.7291  1.8928  1.7113
19689TIP3    H280559   4.528   6.045   0.125  0.5289 -0.0412  0.0806
19690TIP3   OH280560   6.374   2.509   0.417  0.2248  0.4367 -0.3619
19690TIP3    H180561   6.421   2.430   0.391  1.0365 -0.1226  2.4566
19690TIP3    H280562   6.441   2.577   0.420  0.5227  0.1144  1.6555
19691TIP3   OH280563   2.539   6.202   3.815  0.6065  0.1989  0.5614
19691TIP3    H180564   2.586   6.256   3.751  0.4973 -0.2434  0.0980
19691TIP3    H280565   2.448   6.205   3.785  1.1584 -4.1073 -2.4217
19692TIP3   OH280566   1.853   5.987  14.490 -0.6351 -0.2124  0.0546
19692TIP3    H180567   1.938   5.944  14.501  0.1249  1.1417 -0.2525
19692TIP3    H280568   1.795   5.943  14.552  0.6551 -0.2604  1.2729
19693TIP3   OH280569   4.381   2.101  16.064 -0.8926 -0.3743  0.0962
19693TIP3    H180570   4.294   2.074  16.038 -0.6744 -0.3881 -0.6410
19693TIP3    H280571   4.426   2.122  15.982  0.4703 -2.3736  0.2730
19694TIP3   OH280572   4.372   0.211  12.429 -0.0165 -0.1672  0.0569
19694TIP3    H180573   4.286   0.169  12.427 -0.3282  0.4492 -2.8092
19694TIP3    H280574   4.362   0.282  12.493 -0.8774 -1.4813  1.4658
19695TIP3   OH280575   0.502   1.673   5.294  0.3332 -0.6658  0.3625
19695TIP3    H180576   0.423   1.713   5.258  0.4821  0.1276  0.8898
19695TIP3    H280577   0.515   1.594   5.242  0.6446  0.5298 -1.4346
19696TIP3   OH280578   5.301   2.978   2.116  0.2091 -0.1656  0.2857
19696TIP3    H180579   5.223   3.006   2.163 -0.0070 -0.3487  0.0396
19696TIP3    H280580   5.282   2.997   2.024  0.2341 -0.7236  0.1650
19697TIP3   OH280581   2.616   4.807  14.511 -0.5639 -0.4897 -0.8222
19697TIP3    H180582   2.626   4.733  14.571  1.6200  0.0306 -0.4699
19697TIP3    H280583   2.547   4.861  14.551  1.0819  0.0374  1.4899
19698TIP3   OH280584   4.424   4.077  10.987  0.0651  0.0144  0.2684
19698TIP3    H180585   4.345   4.109  10.944 -0.2537  2.1018  2.2076
19698TIP3    H280586   4.484   4.056  10.915 -0.5848  2.8574 -1.2298
19699TIP3   OH280587   6.513   5.096  13.794 -0.7475 -0.3961 -0.3059
19699TIP3    H180588   6.459   5.164  13.833 -1.2931 -0.7285 -0.4678
19699TIP3    H280589   6.529   5.126  13.704 -0.8657 -0.4064 -0.3312
19700TIP3   OH280590   0.400   2.508  14.599  0.1210  0.0481  0.1181
19700TIP3    H180591   0.323   2.540  14.552 -0.3686  0.6116  1.2668
19700TIP3    H280592   0.367   2.437  14.654  0.5457 -0.1219  0.1593
19701TIP3   OH280593   5.459   3.638  12.137 -0.2355  0.2720  0.8623
19701TIP3    H180594   5.491   3.649  12.226  1.8962 -0.1988  0.2218
19701TIP3    H280595   5.364   3.643  12.144 -0.1285 -0.1850  3.1996
19702TIP3   OH280596   5.428   4.397  13.921 -0.2150 -0.6164 -0.0975
19702TIP3    H180597   5.345   4.367  13.958 -0.1643 -1.7353 -0.8480
19702TIP3    H280598   5.420   4.380  13.827  0.2001  0.8791 -0.4283
19703TIP3   OH280599   1.842   2.657  10.885  0.5148  0.1659 -0.2458
19703TIP3    H180600   1.870   2.702  10.965  1.4788  2.3490 -1.7071
19703TIP3    H280601   1.759   2.698  10.862  0.3630 -0.2689 -0.4948
19704TIP3   OH280602   5.531   1.426   1.958 -0.4514  0.5978  0.2716
19704TIP3    H180603   5.539   1.502   2.016 -0.2826  0.0291  1.0086
19704TIP3    H280604   5.621   1.403   1.938 -0.5004  0.4939  0.1746
19705TIP3   OH280605   0.450   0.376  10.809 -0.4759  0.3837  0.0515
19705TIP3    H180606   0.367   0.424  10.814 -0.4174  0.4037  1.0084
19705TIP3    H280607   0.425   0.288  10.781 -0.6891  0.6914 -0.7660
19706TIP3   OH280608   4.507   3.899   4.890 -0.2835 -0.0171 -0.3026
19706TIP3    H180609   4.462   3.870   4.810  0.0180  0.0250 -0.4883
19706TIP3    H280610   4.475   3.988   4.904 -0.1439  0.0686 -0.5203
19707TIP3   OH280611   0.113   0.428   0.414  0.2209 -0.5560 -0.5234
19707TIP3    H180612   0.072   0.487   0.478 -0.9936 -1.3803 -0.5124
19707TIP3    H280613   0.200   0.411   0.450  0.0895  0.1522  0.1662
19708TIP3   OH280614   0.230   3.384  12.616  0.4690  0.0279  0.0622
19708TIP3    H180615   0.188   3.407  12.699  2.3081 -1.8906  1.6323
19708TIP3    H280616   0.170   3.322  12.576  0.0570  0.1426  0.4909
19709TIP3   OH280617   4.390   3.289  11.847  0.4703 -0.3502  0.1096
19709TIP3    H180618   4.330   3.240  11.902  1.3324 -1.1646  0.3628
19709TIP3    H280619   4.473   3.242  11.854  0.8158 -0.0026 -1.2414
19710TIP3   OH280620   1.976   4.273   0.911  0.9233 -0.0810 -0.4082
19710TIP3    H180621   2.047   4.335   0.894  1.7517 -1.0265 -0.5231
19710TIP3    H280622   1.897   4.327   0.918  1.0259  0.7881 -3.8243
19711TIP3   OH280623   2.214   5.465  14.601 -0.1533  0.2976  0.3595
19711TIP3    H180624   2.288   5.443  14.658  0.3774 -1.7815 -0.9875
19711TIP3    H280625   2.254   5.507  14.525 -0.5024  0.3895  0.2238
19712TIP3   OH280626   0.724   4.483  14.404  0.3270 -0.4051  0.0421
19712TIP3    H180627   0.692   4.397  14.431  2.7778 -1.0648  1.1885
19712TIP3    H280628   0.687   4.544  14.467  2.1387 -1.3039  2.0897
19713TIP3   OH280629   2.794   6.543   4.835  0.2776 -0.4523 -0.4544
19713TIP3    H180630   2.888   6.553   4.820  0.1427 -0.1627 -1.1850
19713TIP3    H280631   2.778   6.449   4.827  0.5791 -0.5568  0.1557
19714TIP3   OH280632   2.004   4.571   0.608  0.1332 -0.3356 -0.3540
19714TIP3    H180633   2.048   4.538   0.686 -0.8928 -1.0002 -0.0447
19714TIP3    H280634   1.939   4.505   0.587  0.0938  0.0526 -1.5197
19715TIP3   OH280635   0.514   4.602  12.137  0.0751  0.1477  0.0705
19715TIP3    H180636   0.452   4.633  12.203  0.7355 -0.4676  0.9878
19715TIP3    H280637   0.498   4.659  12.062 -0.5831  0.9539  0.8003
19716TIP3   OH280638   0.329   4.089  13.814  0.4235  0.1378 -0.1838
19716TIP3    H180639   0.349   4.003  13.851  0.1545  0.0194 -0.3093
19716TIP3    H280640   0.278   4.133  13.882 -2.4199 -1.0639 -1.3608
19717TIP3   OH280641   4.630   0.276  16.270 -0.6114  0.1213 -0.2455
19717TIP3    H180642   4.709   0.294  16.320 -1.2155  0.4135  0.6172
19717TIP3    H280643   4.652   0.300  16.180  1.0081 -1.8850 -0.4449
19718TIP3   OH280644   5.656   0.471   2.454 -0.1141  0.0102  0.7622
19718TIP3    H180645   5.737   0.420   2.451  0.7208  1.2552  1.3403
19718TIP3    H280646   5.599   0.422   2.514 -0.5434 -1.8541 -1.0302
19719TIP3   OH280647   4.685   4.941  14.633  0.0266  0.1718  0.4835
19719TIP3    H180648   4.653   4.915  14.720 -2.0046 -0.2485 -0.3262
19719TIP3    H280649   4.651   4.874  14.574  0.4541  1.0191 -0.7698
19720TIP3   OH280650   3.333   4.234   2.408 -0.3852 -0.0471 -0.4821
19720TIP3    H180651   3.398   4.214   2.341 -0.4466  1.9607 -1.2008
19720TIP3    H280652   3.251   4.200   2.374 -0.1404 -0.4305 -0.6898
19721TIP3   OH280653   1.301   1.040   3.232  0.6108  0.1135 -0.6115
19721TIP3    H180654   1.228   1.088   3.270  2.8254  1.6731  2.0838
19721TIP3    H280655   1.286   1.043   3.138 -1.7509  2.0580 -0.2624
19722TIP3   OH280656   2.634   3.090   2.915 -0.0295  0.4378  0.0236
19722TIP3    H180657   2.657   3.183   2.912 -3.3103  1.3839  0.0311
19722TIP3    H280658   2.597   3.072   2.829  1.6128 -1.2727 -0.4014
19723TIP3   OH280659   3.520   2.278  16.379  0.8172  0.3319 -0.3600
19723TIP3    H180660   3.563   2.354  16.418 -1.0764  1.7411 -0.8470
19723TIP3    H280661   3.520   2.211  16.448  0.0200  1.7868  1.1107
19724TIP3   OH280662   3.956   6.085  11.051 -0.4165 -0.6318 -0.4381
19724TIP3    H180663   4.040   6.065  11.010 -0.6927 -2.3921 -0.2256
19724TIP3    H280664   3.962   6.177  11.076  1.4352 -0.7286 -0.4333
19725TIP3   OH280665   6.453   0.358  12.034 -0.5279  0.2231 -0.1663
19725TIP3    H180666   6.402   0.399  12.104 -1.9058 -2.4761  0.5872
19725TIP3    H280667   6.390   0.302  11.989  0.6482  0.8241 -2.7501
19726TIP3   OH280668   1.147   0.991  13.320  0.0434 -0.0779 -0.1901
19726TIP3    H180669   1.186   0.926  13.378  1.3511  0.8523  0.0048
19726TIP3    H280670   1.199   0.984  13.239 -0.2447  0.2560 -0.4050
19727TIP3   OH280671   3.661   4.677   3.963 -0.2479  0.3509 -0.1892
19727TIP3    H180672   3.663   4.685   3.868  1.8886  0.2377 -0.2079
19727TIP3    H280673   3.742   4.720   3.993 -1.8405  2.2497  1.7722
19728TIP3   OH280674   1.417   3.603  15.716  0.1347 -0.0822  0.5426
19728TIP3    H180675   1.324   3.579  15.709  0.4126 -1.0929  0.0031
19728TIP3    H280676   1.455   3.575  15.632  0.6756  1.5509  0.2164
19729TIP3   OH280677   3.131   6.484   6.532  0.4466  0.0801  0.3904
19729TIP3    H180678   3.119   6.487   6.437 -3.1072 -1.8085  0.6245
19729TIP3    H280679   3.110   6.573   6.561 -2.3781 -0.2537 -0.3646
19730TIP3   OH280680   3.488   3.020   2.016 -0.3054 -0.1323 -0.1798
19730TIP3    H180681   3.560   3.077   2.041 -1.2787  0.8486  0.5036
19730TIP3    H280682   3.411   3.077   2.016 -0.8954 -0.8325 -2.2338
19731TIP3   OH280683   0.201   5.641  14.389 -0.1041  0.7417 -0.3343
19731TIP3    H180684   0.206   5.736  14.398  0.8547  0.6791 -0.1343
19731TIP3    H280685   0.292   5.612  14.380 -0.4627 -0.0246 -1.8243
19732TIP3   OH280686   4.922   1.825   2.534 -0.0100  0.0088 -0.4735
19732TIP3    H180687   4.918   1.731   2.516  0.0558 -0.2036  0.5187
19732TIP3    H280688   4.878   1.866   2.460 -3.1396 -1.0213  0.6173
19733TIP3   OH280689   3.716   4.394   1.293  0.3129  0.3372  0.5376
19733TIP3    H180690   3.727   4.311   1.339  0.5508  1.1052  1.9289
19733TIP3    H280691   3.768   4.384   1.213  2.9383  0.1953  2.1208
19734TIP3   OH280692   6.808   3.516  12.471 -0.5917 -0.1940 -0.4102
19734TIP3    H180693   6.895   3.522  12.431 -1.6179 -0.9610 -2.9931
19734TIP3    H280694   6.808   3.433  12.518  0.5941  0.6398  1.1558
19735TIP3   OH280695   5.672   2.209   3.866 -0.0224 -0.3538 -0.1914
19735TIP3    H180696   5.689   2.132   3.921  0.2944  0.6383  1.1382
19735TIP3    H280697   5.746   2.211   3.805  0.9757 -0.0928  0.9713
19736TIP3   OH280698   5.615   0.711  10.413 -0.0920 -0.2799 -0.1154
19736TIP3    H180699   5.521   0.694  10.422 -0.0914  0.4112  1.4592
19736TIP3    H280700   5.652   0.626  10.388 -0.9933 -0.8553  0.4582
19737TIP3   OH280701   3.255   6.516   0.812 -0.2563 -0.3244 -0.6853
19737TIP3    H180702   3.244   6.491   0.720  4.2569  0.2496 -1.6202
19737TIP3    H280703   3.259   6.611   0.810  1.3018 -0.3507 -0.2227
19738TIP3   OH280704   2.574   3.893  14.526 -0.0258 -0.0530 -0.2692
19738TIP3    H180705   2.502   3.830  14.526  0.0821 -0.2070 -1.9211
19738TIP3    H280706   2.579   3.925  14.436  0.9500  1.1487  0.1730
19739TIP3   OH280707   3.933   2.627   1.165  0.3179 -0.6503  0.0054
19739TIP3    H180708   3.953   2.689   1.094 -1.3469 -0.5817 -0.4453
19739TIP3    H280709   3.982   2.549   1.142 -1.6246 -1.3216 -2.3520
19740TIP3   OH280710   2.284   2.971  16.788  0.1709 -0.5269  0.2063
19740TIP3    H180711   2.373   2.996  16.763  0.3404 -0.1022  1.1949
19740TIP3    H280712   2.242   3.054  16.813  0.1046 -0.9496  1.5730
19741TIP3   OH280713   0.553   4.242  13.026 -0.0632 -0.0403 -0.4780
19741TIP3    H180714   0.604   4.161  13.026 -0.0254 -0.0280 -1.2928
19741TIP3    H280715   0.617   4.311  13.045  0.0439 -0.1228 -0.5384
19742TIP3   OH280716   1.422   3.760   0.774 -0.3222 -0.1360  0.1462
19742TIP3    H180717   1.516   3.778   0.780 -0.2609 -0.5247  0.3934
19742TIP3    H280718   1.415   3.684   0.716 -0.4463 -0.3857  0.4806
19743TIP3   OH280719   0.251   6.285  14.202 -0.6121  0.6535 -0.0257
19743TIP3    H180720   0.209   6.370  14.211 -1.1727  0.7197 -2.4317
19743TIP3    H280721   0.185   6.230  14.160 -1.0716 -1.7333  3.4291
19744TIP3   OH280722   1.798   0.966   5.161 -0.2257  0.2350  0.5329
19744TIP3    H180723   1.845   0.969   5.077  0.2032 -2.3419  0.5781
19744TIP3    H280724   1.857   1.011   5.222 -0.1237  1.3503 -0.3502
19745TIP3   OH280725   4.349   3.713  14.617 -0.3541  0.6085  0.0527
19745TIP3    H180726   4.288   3.661  14.565  4.2988 -3.0317 -2.6094
19745TIP3    H280727   4.359   3.795  14.569 -0.0415 -0.5698 -2.0232
19746TIP3   OH280728   6.167   3.804   1.089 -0.6599  0.2050  0.2752
19746TIP3    H180729   6.216   3.732   1.049 -1.6278 -2.3186  3.1703
19746TIP3    H280730   6.076   3.787   1.065 -0.9224  0.2649  1.1736
19747TIP3   OH280731   6.415   6.235  15.356  0.0800  0.1994 -0.5423
19747TIP3    H180732   6.379   6.292  15.424 -1.0838 -0.6820 -0.3870
19747TIP3    H280733   6.348   6.235  15.288  0.4997 -0.2317 -0.9623
19748TIP3   OH280734   1.534   2.903   4.602  0.2302  0.4513  0.4847
19748TIP3    H180735   1.605   2.869   4.656  0.2179 -1.2830 -0.5092
19748TIP3    H280736   1.492   2.970   4.656  1.5402  0.2897  1.7541
19749TIP3   OH280737   1.692   2.358  16.117 -0.4606 -0.6772 -0.1070
19749TIP3    H180738   1.656   2.321  16.198  0.9931  1.8141  1.8157
19749TIP3    H280739   1.766   2.300  16.095 -0.9179 -1.4221  0.2866
19750TIP3   OH280740   4.566   2.315  15.008  0.2245  0.0968  0.0310
19750TIP3    H180741   4.643   2.366  15.034  1.0006 -0.7893 -0.4302
19750TIP3    H280742   4.601   2.228  14.987 -1.0083 -0.5321  0.4751
19751TIP3   OH280743   4.297   6.551  12.676 -0.8122  0.4924 -0.8852
19751TIP3    H180744   4.319   6.568  12.767 -3.2213  2.9239 -0.6207
19751TIP3    H280745   4.361   6.486  12.647  1.7534  1.6482  1.7264
19752TIP3   OH280746   5.849   2.377   5.704  0.9582  0.0602  0.4662
19752TIP3    H180747   5.784   2.354   5.771  0.0119  0.8627 -0.1393
19752TIP3    H280748   5.809   2.350   5.622  2.0441 -0.7679  0.2000
19753TIP3   OH280749   5.198   1.216  12.448 -0.3399 -0.3284  0.0093
19753TIP3    H180750   5.149   1.271  12.387 -0.8369 -0.2114  0.5024
19753TIP3    H280751   5.248   1.278  12.501  0.0533 -0.4260 -0.2478
19754TIP3   OH280752   0.412   4.045  13.535 -0.3553 -0.1652 -0.7314
19754TIP3    H180753   0.374   4.090  13.610  0.8254  2.4358 -1.5843
19754TIP3    H280754   0.428   3.956  13.566 -0.6452  0.5976  1.8252
19755TIP3   OH280755   6.568   1.704   4.456  0.5921  0.1606 -0.1133
19755TIP3    H180756   6.531   1.748   4.532  0.9952  0.3001  0.0035
19755TIP3    H280757   6.638   1.649   4.491 -1.5668 -2.6565  0.1091
19756TIP3   OH280758   5.396   4.476  11.185 -0.2731 -0.1337 -0.2593
19756TIP3    H180759   5.469   4.443  11.237 -0.9631  0.7247  1.3304
19756TIP3    H280760   5.426   4.560  11.150 -0.5391  0.2899  0.5183
19757TIP3   OH280761   2.742   5.130   0.218  0.2963  0.5243  0.3600
19757TIP3    H180762   2.836   5.148   0.225  0.5855 -1.0754  0.9076
19757TIP3    H280763   2.718   5.090   0.301 -0.3733 -1.1396 -0.5873
19758TIP3   OH280764   0.740   0.029   5.352 -0.1809 -0.0398 -0.9860
19758TIP3    H180765   0.776  -0.057   5.331 -0.9019  0.0708 -2.9108
19758TIP3    H280766   0.663   0.011   5.405  0.4041 -0.4980 -0.2814
19759TIP3   OH280767   3.787   3.596   0.550  0.1045 -0.4517  0.0379
19759TIP3    H180768   3.816   3.569   0.463  1.3029 -1.3818  0.6873
19759TIP3    H280769   3.706   3.548   0.565  0.2313 -0.7887 -0.3231
19760TIP3   OH280770   0.259   0.538   2.108  0.0012  0.6902 -0.7330
19760TIP3    H180771   0.218   0.495   2.183 -0.1087 -0.5195 -1.4669
19760TIP3    H280772   0.185   0.576   2.060 -0.1088 -0.0576 -1.1651
19761TIP3   OH280773   0.360   5.958  14.994 -0.1844 -0.3704 -0.2204
19761TIP3    H180774   0.351   5.894  14.923  0.4033 -1.1506  0.3890
19761TIP3    H280775   0.270   5.984  15.014 -0.3310  0.2162 -1.5594
19762TIP3   OH280776   4.828   5.471  13.138  0.2107  0.0634 -0.0505
19762TIP3    H180777   4.914   5.498  13.170  0.8423 -1.7672 -0.1005
19762TIP3    H280778   4.807   5.533  13.069  0.7267  1.5374  1.0593
19763TIP3   OH280779   4.066   2.098  15.261 -0.4583 -0.2705  0.2492
19763TIP3    H180780   4.106   2.042  15.328  1.5925  0.9654  0.1606
19763TIP3    H280781   4.034   2.174  15.311  1.6772  0.9746 -0.1304
19764TIP3   OH280782   0.129   2.712   5.258  0.3638 -0.0080  0.3280
19764TIP3    H180783   0.161   2.636   5.210  0.4559 -0.3619  0.9455
19764TIP3    H280784   0.038   2.690   5.280 -0.9906  1.6674 -2.8745
19765TIP3   OH280785   4.672   2.598   1.912 -0.0544  0.1920 -0.0084
19765TIP3    H180786   4.630   2.560   1.834 -1.7627 -1.6374  1.6624
19765TIP3    H280787   4.704   2.522   1.961 -0.4799  1.1508  1.8467
19766TIP3   OH280788   3.123   6.770  15.064 -0.2331 -0.5459  0.2922
19766TIP3    H180789   3.203   6.819  15.046  0.0048 -0.7657  0.7061
19766TIP3    H280790   3.054   6.836  15.070 -0.0264 -0.3256  0.2305
19767TIP3   OH280791   6.316   4.694   6.687 -0.1199  0.3204  0.4019
19767TIP3    H180792   6.341   4.687   6.594 -0.8219  0.9930  0.1489
19767TIP3    H280793   6.387   4.650   6.734  0.6483  0.6533 -0.4062
19768TIP3   OH280794   4.531   5.844   4.008  0.4183  0.0240  0.3550
19768TIP3    H180795   4.525   5.896   4.088  0.3719 -0.1481  0.4630
19768TIP3    H280796   4.608   5.879   3.962  2.6548 -2.1919  2.1288
19769TIP3   OH280797   1.000   4.091   1.227  0.1278  0.1000 -0.8939
19769TIP3    H180798   1.029   4.151   1.158  0.1541  2.0775  0.7520
19769TIP3    H280799   1.053   4.013   1.213  2.1425  1.4760 -1.4764
19770TIP3   OH280800   6.523   4.793   1.684  0.2741 -0.2251  0.2178
19770TIP3    H180801   6.527   4.703   1.652 -0.2467 -0.5734  1.1013
19770TIP3    H280802   6.598   4.836   1.642 -0.5894 -0.5442 -1.7720
19771TIP3   OH280803   5.840   5.206   4.892 -0.0168  0.3521  0.2613
19771TIP3    H180804   5.887   5.153   4.957  0.0091  2.0141  1.6716
19771TIP3    H280805   5.751   5.171   4.892  0.4041 -0.7867 -0.1280
19772TIP3   OH280806   6.245   5.709  12.589  0.4589 -0.1188 -0.2608
19772TIP3    H180807   6.256   5.774  12.659  2.7292 -1.5777  0.8814
19772TIP3    H280808   6.194   5.639  12.629  0.0117 -0.0848 -0.7542
19773TIP3   OH280809   5.605   5.192   6.038  0.3896  0.4587 -0.4405
19773TIP3    H180810   5.566   5.104   6.039  2.1222 -0.3644 -0.9098
19773TIP3    H280811   5.658   5.195   6.118  0.7965  0.8491 -0.7208
19774TIP3   OH280812   4.133   6.659  14.515  0.2040 -0.5306 -0.0036
19774TIP3    H180813   4.139   6.707  14.432  1.5349 -0.9780 -0.1951
19774TIP3    H280814   4.045   6.677  14.547  0.6243  2.0613 -0.0544
19775TIP3   OH280815   3.366   3.454  16.021 -0.3876 -0.5664 -0.3764
19775TIP3    H180816   3.379   3.407  16.103 -1.0021 -0.2353 -0.0781
19775TIP3    H280817   3.283   3.420  15.987  0.4184 -1.5248 -1.4456
19776TIP3   OH280818   0.353   5.557  16.859  0.2638  0.3102 -0.3541
19776TIP3    H180819   0.339   5.485  16.920 -0.4262 -0.4454 -1.3467
19776TIP3    H280820   0.437   5.595  16.883  0.7966 -1.0456 -0.0093
19777TIP3   OH280821   6.726   2.164  14.726 -0.4171  0.1927  0.3054
19777TIP3    H180822   6.751   2.150  14.635  0.6731  0.2225  0.5909
19777TIP3    H280823   6.630   2.170  14.724 -0.4358 -0.3336 -0.7563
19778TIP3   OH280824   1.265   1.111   0.068 -0.9586  0.8215  0.3198
19778TIP3    H180825   1.261   1.019   0.095  2.9280 -0.5745 -2.7590
19778TIP3    H280826   1.288   1.158   0.148 -3.0940 -0.7732  1.9959
19779TIP3   OH280827   0.978   2.648  12.856  0.5246  0.3343 -0.4372
19779TIP3    H180828   0.964   2.709  12.783  0.0539  2.4570  1.3146
19779TIP3    H280829   0.900   2.659  12.911 -0.2115 -2.8729 -0.6321
19780TIP3   OH280830   4.033   2.773  15.497  0.4722 -0.4004 -0.5938
19780TIP3    H180831   4.112   2.721  15.482  1.8280  1.3301  0.1818
19780TIP3    H280832   4.065   2.857  15.529 -1.5634  1.2381 -2.5197
19781TIP3   OH280833   4.313   6.125   6.340  0.0361  0.2542  0.1635
19781TIP3    H180834   4.309   6.203   6.285 -0.6289  2.0328  2.5584
19781TIP3    H280835   4.404   6.096   6.335  0.2856  1.1550 -0.7892
19782TIP3   OH280836   5.677   0.752  14.072 -0.4365 -0.0710  0.1429
19782TIP3    H180837   5.604   0.697  14.043 -1.6665  1.3008  0.5392
19782TIP3    H280838   5.741   0.689  14.106 -2.2230 -1.2457  1.5439
19783TIP3   OH280839   2.211   3.464   2.568  0.7432 -0.4126  0.0919
19783TIP3    H180840   2.207   3.497   2.478 -0.7372  1.3612  0.7599
19783TIP3    H280841   2.170   3.377   2.563  0.5749 -0.2914 -0.9189
19784TIP3   OH280842   1.450   4.154   2.955 -0.1462 -0.1983 -0.0330
19784TIP3    H180843   1.442   4.067   2.993 -0.5470  0.5717  1.7711
19784TIP3    H280844   1.532   4.188   2.991 -0.5764  0.5873  0.2287
19785TIP3   OH280845   4.900   0.330  16.952 -0.5576 -0.0925  0.1239
19785TIP3    H180846   4.878   0.240  16.976 -0.3958  0.0953  1.0049
19785TIP3    H280847   4.934   0.369  17.033 -1.1171  0.9149 -0.1127
19786TIP3   OH280848   6.783   4.893   1.605 -0.8494  0.0924 -0.1826
19786TIP3    H180849   6.821   4.841   1.676 -0.7309  0.1648 -0.1939
19786TIP3    H280850   6.815   4.851   1.525 -1.3160 -0.2426 -0.1991
19787TIP3   OH280851   6.331   3.462  14.606 -0.6046 -0.0207 -0.6117
19787TIP3    H180852   6.365   3.551  14.611 -1.8043  0.3974  0.3490
19787TIP3    H280853   6.305   3.452  14.514  1.9308 -0.3379 -1.3903
19788TIP3   OH280854   1.492   1.568  10.922  1.1067  0.1412 -0.2190
19788TIP3    H180855   1.424   1.634  10.940  0.2738 -1.0298  1.1311
19788TIP3    H280856   1.534   1.599  10.842 -0.6171  1.2472 -0.7652
19789TIP3   OH280857   5.514   5.660  14.676 -0.4232  0.2039  0.4383
19789TIP3    H180858   5.484   5.602  14.746 -0.4824 -0.7873 -0.3888
19789TIP3    H280859   5.609   5.658  14.681 -0.4363  0.8963  1.0909
19790TIP3   OH280860   3.130   2.909  14.693 -0.5065  0.4259 -0.0651
19790TIP3    H180861   3.213   2.866  14.672 -1.7049 -1.1045 -2.0168
19790TIP3    H280862   3.128   2.986  14.635 -0.6389  0.2304 -0.3188
19791TIP3   OH280863   4.564   2.661   1.432  0.2619 -0.4411 -0.3828
19791TIP3    H180864   4.542   2.754   1.440 -1.3720 -0.2002 -4.9115
19791TIP3    H280865   4.479   2.617   1.433  0.8420 -1.5936 -0.8181
19792TIP3   OH280866   5.534   0.679   4.414  0.2054 -0.3079 -0.5348
19792TIP3    H180867   5.562   0.590   4.392 -2.5338 -1.2298 -0.7721
19792TIP3    H280868   5.461   0.696   4.355  1.5377  2.7531 -1.4869
19793TIP3   OH280869   4.576   6.465  14.927  0.2891 -0.6730 -0.2185
19793TIP3    H180870   4.620   6.467  15.012 -0.4366  0.0344  0.1568
19793TIP3    H280871   4.504   6.527  14.936 -0.3506 -1.2786 -1.0582
19794TIP3   OH280872   3.858   2.825   3.504  0.3870 -0.0158 -0.2676
19794TIP3    H180873   3.889   2.768   3.574 -0.1146 -0.0551 -0.0669
19794TIP3    H280874   3.788   2.774   3.462 -0.1572  0.4918 -0.0022
19795TIP3   OH280875   6.079   2.095   3.012  0.1649 -0.1861  0.5378
19795TIP3    H180876   6.163   2.062   3.043 -0.3570 -1.1370  0.9591
19795TIP3    H280877   6.093   2.190   3.004  0.8296 -0.1271  2.0392
19796TIP3   OH280878   5.420   0.758   2.397  0.1785  0.1271 -0.0265
19796TIP3    H180879   5.452   0.690   2.337  1.6395  0.4718  0.3525
19796TIP3    H280880   5.452   0.732   2.483  0.7870  1.3173  0.1171
19797TIP3   OH280881   1.806   5.862  13.655  0.1940  0.2903  0.2078
19797TIP3    H180882   1.749   5.788  13.632  0.5167  0.6458 -1.9312
19797TIP3    H280883   1.867   5.825  13.720 -1.5310 -0.4621  1.4727
19798TIP3   OH280884   6.713   3.955   1.573 -0.3645 -0.3194  0.0752
19798TIP3    H180885   6.808   3.960   1.565 -0.4218  1.9172  0.1352
19798TIP3    H280886   6.687   3.886   1.512  1.2721 -0.9494  0.0352
19799TIP3   OH280887   5.918   4.361  15.255  0.2610  0.3692 -0.3713
19799TIP3    H180888   5.832   4.329  15.283  0.0243  2.2273  1.2560
19799TIP3    H280889   5.910   4.369  15.160 -0.6321 -1.4818 -0.4847
19800TIP3   OH280890   4.838   3.155   0.993 -0.4527 -0.5314 -0.1711
19800TIP3    H180891   4.895   3.227   1.016 -0.6594 -0.3825 -0.1228
19800TIP3    H280892   4.822   3.109   1.075  1.2841 -1.8243 -0.4921
19801TIP3   OH280893   3.537   2.282  14.006 -0.5664 -0.6444  0.1468
19801TIP3    H180894   3.550   2.253  13.916 -1.0000 -0.9890  0.1911
19801TIP3    H280895   3.598   2.231  14.058 -0.4211 -0.5515  0.0675
19802TIP3   OH280896   2.602   2.438   4.546 -0.3602  0.0168 -0.0099
19802TIP3    H180897   2.637   2.400   4.465  0.6409 -1.4366  1.0397
19802TIP3    H280898   2.634   2.380   4.615 -0.9699  1.3558  1.4666
19803TIP3   OH280899   5.321   4.627  14.994 -0.4039  0.4761  0.0206
19803TIP3    H180900   5.272   4.699  14.953  0.3240  0.2054 -1.3633
19803TIP3    H280901   5.401   4.619  14.942 -0.2741 -1.0674  0.4160
19804TIP3   OH280902   5.995   5.408  11.424  0.1418  0.0321 -0.0595
19804TIP3    H180903   6.019   5.333  11.370 -1.4282  0.5510 -1.5961
19804TIP3    H280904   6.003   5.377  11.514 -3.5060 -3.1493 -0.5796
19805TIP3   OH280905   1.964   3.387  16.160  0.6379  0.3979  0.4473
19805TIP3    H180906   2.014   3.468  16.148 -0.9110  1.3615  0.2930
19805TIP3    H280907   1.913   3.402  16.240 -0.5415  0.0521 -0.2179
19806TIP3   OH280908   5.129   2.551  13.884  0.1187 -0.7263  0.2741
19806TIP3    H180909   5.046   2.562  13.930  1.2038  0.0850  2.1681
19806TIP3    H280910   5.159   2.641  13.868  0.1102 -1.0005 -1.4418
19807TIP3   OH280911   2.030   5.522  16.525  0.1637 -0.0478 -0.0141
19807TIP3    H180912   2.008   5.582  16.596 -2.3762  0.4586 -1.1287
19807TIP3    H280913   2.013   5.435  16.561  2.7296 -0.1363  1.2146
19808TIP3   OH280914   3.966   3.295  15.997  0.4599 -0.0398  0.5360
19808TIP3    H180915   4.020   3.277  15.920 -1.0910 -1.9090 -0.2005
19808TIP3    H280916   4.008   3.370  16.039  1.5486  0.8466 -1.9427
19809TIP3   OH280917   6.379   1.383   4.889  0.8550 -0.4263  0.6578
19809TIP3    H180918   6.398   1.405   4.981 -1.6778  1.6721  0.7917
19809TIP3    H280919   6.287   1.356   4.890  1.3191 -2.2928 -1.0427
19810TIP3   OH280920   5.810   1.361  16.585  0.2441 -0.4570  0.5164
19810TIP3    H180921   5.857   1.357  16.669  0.0443  2.8169  0.9400
19810TIP3    H280922   5.878   1.348  16.519  1.5723  2.3239  1.1664
19811TIP3   OH280923   1.645   3.385   4.969 -0.2869 -0.1910 -0.3563
19811TIP3    H180924   1.669   3.473   4.941 -0.7406  0.0523  0.0133
19811TIP3    H280925   1.551   3.380   4.955 -0.5006 -0.1105  0.9843
19812TIP3   OH280926   1.818   6.099   3.465 -0.0959 -0.1328 -0.0015
19812TIP3    H180927   1.894   6.144   3.429 -0.0806  0.1002  0.3197
19812TIP3    H280928   1.854   6.041   3.533 -0.4374  1.9447  2.0818
19813TIP3   OH280929   5.873   4.685   3.047 -0.9073 -0.1266  0.1077
19813TIP3    H180930   5.862   4.593   3.070  1.5670 -0.8436 -1.1947
19813TIP3    H280931   5.928   4.721   3.117  0.7161 -0.4970 -0.9182
19814TIP3   OH280932   2.259   5.145   0.164  0.3906 -0.0807 -0.4003
19814TIP3    H180933   2.301   5.077   0.216 -0.7616 -0.9706 -0.5835
19814TIP3    H280934   2.252   5.108   0.076  1.5588  1.0836 -1.0091
19815TIP3   OH280935   5.967   2.831   3.444  0.4985  0.0745 -0.7933
19815TIP3    H180936   5.902   2.773   3.404 -0.9351  0.4390  0.8801
19815TIP3    H280937   5.982   2.793   3.531  1.9540  0.4511 -0.8558
19816TIP3   OH280938   0.625   2.683   3.117  0.2462  0.2275 -0.1885
19816TIP3    H180939   0.564   2.723   3.055 -0.2244 -0.5139 -0.2192
19816TIP3    H280940   0.652   2.601   3.074  2.8146  1.4458 -1.0681
19817TIP3   OH280941   0.605   4.527   2.577  0.4376  0.2156  0.3767
19817TIP3    H180942   0.624   4.597   2.514  2.7113 -0.4866  0.1994
19817TIP3    H280943   0.600   4.571   2.662 -1.6150  1.0206 -0.0872
19818TIP3   OH280944   0.869   1.602   2.355  0.3390 -0.6626  0.0369
19818TIP3    H180945   0.785   1.567   2.386 -1.3084  1.2613 -1.9873
19818TIP3    H280946   0.908   1.642   2.432 -1.4727  0.0027  0.6498
19819TIP3   OH280947   3.361   4.063   0.323 -0.1639 -0.0164 -0.3453
19819TIP3    H180948   3.269   4.074   0.344 -0.3396  0.1025 -1.1463
19819TIP3    H280949   3.398   4.017   0.398 -1.0574 -0.8570 -0.4009
19820TIP3   OH280950   3.944   2.517  12.517 -0.0914  0.7201 -0.3341
19820TIP3    H180951   3.998   2.596  12.504  0.0520  0.9631  1.4486
19820TIP3    H280952   3.990   2.468  12.585 -2.1693  1.0123  1.3846
19821TIP3   OH280953   4.653   1.329  16.960  0.3097  0.2992 -0.1836
19821TIP3    H180954   4.710   1.405  16.955  3.8124 -2.0882 -0.0592
19821TIP3    H280955   4.651   1.295  16.871  0.8001 -0.7500  0.1866
19822TIP3   OH280956   3.598   1.546   3.571  0.0737 -0.4946  0.3157
19822TIP3    H180957   3.520   1.590   3.537  0.4109 -0.1482 -0.0281
19822TIP3    H280958   3.569   1.456   3.588 -0.0650 -0.7645 -1.1499
19823TIP3   OH280959   1.767   3.634   4.652  0.0071  0.2718 -0.1834
19823TIP3    H180960   1.709   3.558   4.657  1.2619 -0.7565 -0.5360
19823TIP3    H280961   1.778   3.649   4.558 -0.2655  0.9205 -0.1127
19824TIP3   OH280962   5.221   5.340   4.711  0.4971 -0.6339 -0.8487
19824TIP3    H180963   5.229   5.250   4.681 -0.5175 -0.4542 -1.6855
19824TIP3    H280964   5.141   5.341   4.764  0.4484 -0.2061 -0.9272
19825TIP3   OH280965   1.995   1.451  13.742 -0.0872  0.1904 -0.2972
19825TIP3    H180966   2.052   1.514  13.787  0.0409  1.4025 -2.0443
19825TIP3    H280967   1.914   1.500  13.725  0.4161  0.3182 -2.6720
19826TIP3   OH280968   3.901   4.307  14.460  0.6915  0.4812 -0.2137
19826TIP3    H180969   3.959   4.285  14.387  3.2151  2.5712  1.0058
19826TIP3    H280970   3.814   4.278  14.431  1.9160 -0.6731 -3.1222
19827TIP3   OH280971   3.543   4.896  12.913  0.2513  0.0160 -0.0352
19827TIP3    H180972   3.521   4.880  13.005  2.5434 -0.2264  0.5235
19827TIP3    H280973   3.630   4.936  12.916  0.2534  0.2423 -2.0980
19828TIP3   OH280974   4.710   6.728   0.766  0.5564 -0.0345 -0.4539
19828TIP3    H180975   4.654   6.802   0.742  0.5514  0.0495 -0.1847
19828TIP3    H280976   4.799   6.763   0.763  0.5578 -0.0317 -0.3805
19829TIP3   OH280977   0.980   1.564   4.966  0.0757 -0.6344  0.7035
19829TIP3    H180978   0.900   1.524   5.000 -1.2576  1.0686 -0.3106
19829TIP3    H280979   0.996   1.518   4.883  1.5100 -2.5537  1.9621
19830TIP3   OH280980   1.206   3.484  13.345 -0.1647  0.3597  0.0428
19830TIP3    H180981   1.217   3.522  13.258 -1.2407 -2.3431 -1.3841
19830TIP3    H280982   1.112   3.464  13.351 -0.0659  0.1907  1.7279
19831TIP3   OH280983   0.352   0.398  10.514 -0.0689 -0.7756 -0.0661
19831TIP3    H180984   0.295   0.324  10.492 -1.9683  1.1972 -2.2351
19831TIP3    H280985   0.320   0.428  10.599 -1.8293 -0.2015 -0.8851
19832TIP3   OH280986   4.049   5.792   3.663  0.0145  0.5907  0.0282
19832TIP3    H180987   4.061   5.698   3.674  1.5547  0.8205  0.5986
19832TIP3    H280988   3.998   5.801   3.583  1.5194 -0.6666 -1.1151
19833TIP3   OH280989   3.936   6.419   2.654 -0.0951  0.2782 -0.1623
19833TIP3    H180990   4.009   6.391   2.709 -0.0164 -0.3833 -0.5952
19833TIP3    H280991   3.864   6.360   2.676 -0.6784  1.2410  0.6265
19834TIP3   OH280992   2.805   3.822   1.298 -0.4709 -0.1117  0.2300
19834TIP3    H180993   2.898   3.845   1.305 -0.9229  1.6096  1.0898
19834TIP3    H280994   2.795   3.744   1.352  0.1818  0.6578  1.4956
19835TIP3   OH280995   2.319   3.480  12.196  0.2486  0.9065 -0.1420
19835TIP3    H180996   2.292   3.554  12.141 -0.4756  0.0811 -0.9301
19835TIP3    H280997   2.253   3.477  12.266  0.3503  1.0802 -0.0382
19836TIP3   OH280998   0.407   0.462  17.157  0.3366 -0.1284 -0.1655
19836TIP3    H180999   0.350   0.413  17.217  0.1981  0.9533  0.6212
19836TIP3    H281000   0.493   0.420  17.166  0.2481 -0.1623  0.5872
19837TIP3   OH281001   6.007   3.174   6.098  0.2566 -0.1630 -0.2353
19837TIP3    H181002   5.913   3.191   6.103  0.1631 -0.1215 -1.6679
19837TIP3    H281003   6.020   3.095   6.150 -0.1871  1.0840  1.8768
19838TIP3   OH281004   1.488   2.750   3.721 -0.0172  1.1469  0.4477
19838TIP3    H181005   1.485   2.778   3.812  1.3618  0.6684  0.6610
19838TIP3    H281006   1.581   2.749   3.699  0.0522 -2.6389  0.2839
19839TIP3   OH281007   5.824   5.156   0.469  0.1213 -0.0612 -0.4173
19839TIP3    H181008   5.771   5.224   0.428  0.8227 -0.3709 -1.9079
19839TIP3    H281009   5.853   5.194   0.552 -0.3167  1.0733 -0.7784
19840TIP3   OH281010   3.375   0.567  12.648  0.2148 -0.0730  0.0962
19840TIP3    H181011   3.421   0.485  12.667  2.6864  1.3251  0.5716
19840TIP3    H281012   3.351   0.601  12.734 -1.4951 -0.6176 -0.1349
19841TIP3   OH281013   3.446   5.001  17.187  0.9033 -0.4088 -0.7855
19841TIP3    H181014   3.359   5.019  17.222 -0.2991  1.9718 -4.3543
19841TIP3    H281015   3.505   5.055  17.240 -0.2231  0.1335 -0.0418
19842TIP3   OH281016   3.598   6.572   4.722 -0.3927  0.2271 -0.3702
19842TIP3    H181017   3.567   6.662   4.709 -1.0857 -0.0876 -0.9353
19842TIP3    H281018   3.693   6.578   4.716 -0.4789  0.7771 -1.3514
19843TIP3   OH281019   4.134   3.153   1.988  0.3119  0.7511  0.0190
19843TIP3    H181020   4.154   3.151   2.081 -0.9184  0.4543  0.3006
19843TIP3    H281021   4.076   3.077   1.975  0.2570  0.9460 -0.9287
19844TIP3   OH281022   6.822   6.091   5.522  0.0751  0.1935  0.4111
19844TIP3    H181023   6.873   6.159   5.565  1.3619  0.0604 -0.8604
19844TIP3    H281024   6.741   6.086   5.573  0.5884  1.6253  1.4102
19845TIP3   OH281025   4.906   0.157  13.946 -0.4691 -0.3816  0.0675
19845TIP3    H181026   4.930   0.083  13.890 -0.2824 -0.5950  0.4254
19845TIP3    H281027   4.966   0.151  14.021 -0.4507  0.1345  0.0972
19846TIP3   OH281028   6.326   1.326  13.372  0.3283  0.4948  0.3017
19846TIP3    H181029   6.300   1.377  13.296  0.0694 -0.5059 -0.2935
19846TIP3    H281030   6.408   1.365  13.400  0.2270  1.1180 -0.2572
19847TIP3   OH281031   6.424   0.607  15.853  0.0931  0.3507 -0.5494
19847TIP3    H181032   6.441   0.520  15.891 -1.7652  1.1398  2.4738
19847TIP3    H281033   6.506   0.655  15.866  0.0759  0.0287  0.9366
19848TIP3   OH281034   3.402   4.026  15.553  0.2487 -0.2579 -0.0738
19848TIP3    H181035   3.407   3.938  15.590  1.2333  0.0621  0.6041
19848TIP3    H281036   3.439   4.016  15.465 -1.0638 -0.8055 -0.5836
19849TIP3   OH281037   4.467   1.685  13.251 -0.2096  0.3521 -0.2064
19849TIP3    H181038   4.526   1.698  13.177 -0.3011  0.3984 -0.2721
19849TIP3    H281039   4.428   1.771  13.266 -0.2115  0.3365 -0.1223
19850TIP3   OH281040   6.688   3.555  15.667 -0.3191 -0.1085 -0.6726
19850TIP3    H181041   6.674   3.630  15.610  0.0594  0.1213 -0.4713
19850TIP3    H281042   6.642   3.482  15.625  0.2068 -0.0131 -1.4245
19851TIP3   OH281043   0.954   5.345   0.727 -1.0774 -0.0601  0.2453
19851TIP3    H181044   0.880   5.386   0.681 -0.8038  0.3400  0.1587
19851TIP3    H281045   0.915   5.309   0.807 -2.2412 -3.6310 -1.6962
19852TIP3   OH281046   3.053   4.473  15.621  0.1177  0.1472  0.3805
19852TIP3    H181047   3.080   4.383  15.601  0.7005  0.5457 -0.7420
19852TIP3    H281048   2.959   4.467  15.635 -0.1795 -0.3897 -1.5029
19853TIP3   OH281049   0.722   0.435  10.745  0.0854 -0.0428  0.3842
19853TIP3    H181050   0.628   0.420  10.754 -0.1607  1.8725  1.6215
19853TIP3    H281051   0.730   0.523  10.709  1.3877  0.3981  1.6279
19854TIP3   OH281052   0.501   4.258  11.562 -0.1784 -0.4086 -1.0880
19854TIP3    H181053   0.541   4.321  11.502 -1.4065  0.3172 -1.1702
19854TIP3    H281054   0.569   4.192  11.576  1.0268  0.7407 -1.2705
19855TIP3   OH281055   4.109   1.071  14.613 -0.0288 -0.0759  0.0037
19855TIP3    H181056   4.091   1.140  14.549 -0.3115 -1.0217 -0.9679
19855TIP3    H281057   4.039   1.006  14.599  1.0372 -1.2360 -0.0829
19856TIP3   OH281058   4.312   0.085  11.591  0.2208 -0.2440  0.3219
19856TIP3    H181059   4.220   0.072  11.568 -0.3210  0.0145  2.1468
19856TIP3    H281060   4.334   0.010  11.646  1.5140 -0.9804 -1.1519
19857TIP3   OH281061   3.509   2.976   3.831  0.0465  0.1239 -0.0403
19857TIP3    H181062   3.567   2.909   3.868 -1.1321 -0.3643  0.9910
19857TIP3    H281063   3.557   3.058   3.844  1.7041 -0.4907 -1.7011
19858TIP3   OH281064   3.514   1.166  14.258 -1.0303 -0.0565  0.2316
19858TIP3    H181065   3.503   1.088  14.313 -1.0440 -1.3463 -1.4820
19858TIP3    H281066   3.426   1.182  14.224 -1.0135  0.6907  0.5359
19859TIP3   OH281067   6.177   1.213  16.778  0.5157 -0.1529 -0.4694
19859TIP3    H181068   6.225   1.228  16.697  1.9427 -2.4887 -0.1373
19859TIP3    H281069   6.237   1.241  16.847 -0.9477  2.4884 -0.1271
19860TIP3   OH281070   0.892   0.686  10.939 -0.2334  0.5497 -0.1512
19860TIP3    H181071   0.813   0.724  10.901 -0.1627 -0.8508 -1.7796
19860TIP3    H281072   0.861   0.612  10.991 -0.4130  2.8246  3.3750
19861TIP3   OH281073   1.576   3.833  16.825 -0.1208 -0.1500 -0.1677
19861TIP3    H181074   1.604   3.762  16.767  0.6957 -0.4308  0.5562
19861TIP3    H281075   1.481   3.834  16.818 -0.5499 -3.7240  2.4717
19862TIP3   OH281076   5.243   1.467   1.854 -0.1465  0.5222  0.0400
19862TIP3    H181077   5.328   1.430   1.878  0.4396  1.9381  0.2117
19862TIP3    H281078   5.260   1.559   1.838 -1.8716  1.1345  1.3539
19863TIP3   OH281079   2.002   0.498  10.813  0.4258  0.3245 -0.1097
19863TIP3    H181080   1.920   0.514  10.767  0.5482 -1.1045 -0.8781
19863TIP3    H281081   2.068   0.546  10.763  0.1153  1.2080  0.3214
19864TIP3   OH281082   1.081   2.714   4.524 -0.2618 -0.2007  0.2348
19864TIP3    H181083   1.127   2.684   4.602 -0.2607  1.6464  0.9871
19864TIP3    H281084   1.082   2.638   4.465  2.0609 -0.8007  0.9580
19865TIP3   OH281085   2.689   6.698  12.853 -0.4927 -0.6914  0.4280
19865TIP3    H181086   2.776   6.737  12.863  0.0626 -2.1197  1.4975
19865TIP3    H281087   2.687   6.664  12.763 -1.4955  2.8270 -1.0413
19866TIP3   OH281088   1.148   2.679   2.263 -0.0860 -0.2548 -0.4014
19866TIP3    H181089   1.066   2.680   2.313 -0.0824  1.9189 -0.3600
19866TIP3    H281090   1.207   2.737   2.311  1.4566 -1.6380 -0.5358
19867TIP3   OH281091   5.944   2.630   0.468 -0.2388 -0.2147 -0.0077
19867TIP3    H181092   5.996   2.710   0.458 -0.4528 -0.1376 -0.5429
19867TIP3    H281093   6.001   2.560   0.438 -0.2394 -0.1978 -0.0490
19868TIP3   OH281094   2.862   0.595  13.985 -0.0822 -0.6318 -0.1405
19868TIP3    H181095   2.949   0.557  13.994  1.7248  2.6247 -1.6912
19868TIP3    H281096   2.851   0.648  14.064 -0.5802 -0.8987 -0.0303
19869TIP3   OH281097   4.317   5.549   3.665 -0.6495 -0.2739  0.0640
19869TIP3    H181098   4.264   5.470   3.680 -1.4018 -0.0802 -1.4475
19869TIP3    H281099   4.323   5.590   3.751 -0.8754 -1.5823  0.7332
19870TIP3   OH281100   3.160   3.247   3.778 -0.3772  0.3158 -0.2668
19870TIP3    H181101   3.237   3.270   3.830 -0.5127  1.0054 -0.3595
19870TIP3    H281102   3.176   3.158   3.748  1.4411  1.1959 -2.1727
19871TIP3   OH281103   3.876   1.556  12.785 -0.0727 -0.2116 -0.0749
19871TIP3    H181104   3.824   1.484  12.818 -0.1932  0.0347  0.2786
19871TIP3    H281105   3.893   1.612  12.861 -2.0921  1.4471 -0.7477
19872TIP3   OH281106   1.666   3.425   2.823 -0.1503  0.1212 -0.4115
19872TIP3    H181107   1.758   3.398   2.816 -0.5864 -2.0867  1.1150
19872TIP3    H281108   1.669   3.520   2.823  2.3040  0.1448  1.0024
19873TIP3   OH281109   0.762   2.401  15.439 -0.6652  0.0929  0.4042
19873TIP3    H181110   0.794   2.445  15.518  2.9242 -2.8694  0.8945
19873TIP3    H281111   0.804   2.448  15.367 -0.2848  0.0848  0.6143
19874TIP3   OH281112   0.159   1.783  10.426  0.6679 -0.6020  0.0998
19874TIP3    H181113   0.071   1.795  10.389 -0.2934  1.8488  2.7560
19874TIP3    H281114   0.215   1.767  10.350 -1.9458 -1.7037 -1.7584
19875TIP3   OH281115   1.144   0.606   3.617 -0.1920  0.1401 -0.3295
19875TIP3    H181116   1.216   0.667   3.635 -0.2017  0.4160 -1.1858
19875TIP3    H281117   1.187   0.524   3.594 -0.1756 -0.6146  2.1047
19876TIP3   OH281118   0.529   6.437   2.568 -0.3763 -0.1803  0.2781
19876TIP3    H181119   0.494   6.362   2.520 -0.3158 -0.4072  0.5803
19876TIP3    H281120   0.608   6.463   2.520 -0.3215 -0.3987  0.2509
19877TIP3   OH281121   5.486   5.932  13.056  0.1583 -0.0233  0.1365
19877TIP3    H181122   5.502   6.008  13.113  1.1307  0.4536 -0.7388
19877TIP3    H281123   5.439   5.968  12.981  0.6367 -0.2685 -0.2898
19878TIP3   OH281124   5.876   5.046  11.026 -0.3639 -0.4127 -0.0199
19878TIP3    H181125   5.811   5.075  10.962 -1.0881 -0.6462  0.5915
19878TIP3    H281126   5.960   5.072  10.989 -0.7551 -0.7448 -1.1754
19879TIP3   OH281127   2.633   0.698  12.610 -0.0926  0.0972  0.4331
19879TIP3    H181128   2.600   0.655  12.530 -0.1698  0.9425 -0.0021
19879TIP3    H281129   2.584   0.657  12.681 -0.8427  0.1200 -0.0560
19880TIP3   OH281130   2.185   0.144   5.020 -0.2686  0.3582  0.1052
19880TIP3    H181131   2.105   0.187   5.052 -1.3410 -2.7206  2.0603
19880TIP3    H281132   2.154   0.065   4.976  1.6459 -0.4062  0.0226
19881TIP3   OH281133   5.812   4.846  16.814 -0.0211 -0.6378  0.1996
19881TIP3    H181134   5.904   4.823  16.804  0.1264  0.2291 -0.5560
19881TIP3    H281135   5.795   4.909  16.744 -0.9969 -0.2175  0.7951
19882TIP3   OH281136   4.406   4.107   3.470 -0.4312  0.2417  0.2483
19882TIP3    H181137   4.394   4.131   3.378  0.8812  2.0032  0.4843
19882TIP3    H281138   4.317   4.095   3.503 -0.9905  1.0746 -0.8894
19883TIP3   OH281139   1.339   1.311   4.607 -0.4082  0.1497 -0.1344
19883TIP3    H181140   1.369   1.232   4.652  0.9160  0.6153 -0.1526
19883TIP3    H281141   1.416   1.368   4.605 -1.2441  1.2998 -0.4394
19884TIP3   OH281142   3.930   3.732   0.090 -0.6363  0.7050 -0.0985
19884TIP3    H181143   3.860   3.680   0.050 -0.2576 -1.3062  1.6937
19884TIP3    H281144   3.890   3.818   0.104 -2.2455  0.0616 -0.4897
19885TIP3   OH281145   5.366   2.114  16.109 -0.1480  0.2548  0.5737
19885TIP3    H181146   5.374   2.027  16.069 -1.8266  0.4061 -0.1920
19885TIP3    H281147   5.442   2.121  16.166  0.7345 -1.1855 -0.3407
19886TIP3   OH281148   4.996   3.681   1.241  0.3416  0.0329 -0.1025
19886TIP3    H181149   5.030   3.620   1.307  0.0489 -0.5714 -0.4979
19886TIP3    H281150   4.981   3.626   1.164  1.4470  0.8599 -0.9484
19887TIP3   OH281151   5.823   5.054   0.071 -0.0745  0.2155  0.7596
19887TIP3    H181152   5.786   5.010   0.147  0.1020  0.0272  0.7377
19887TIP3    H281153   5.904   5.006   0.053 -0.7401 -0.5701 -0.3192
19888TIP3   OH281154   5.333   2.287   4.529 -1.0122  0.1717  0.3576
19888TIP3    H181155   5.284   2.329   4.458 -0.8843 -2.3851 -1.3676
19888TIP3    H281156   5.419   2.328   4.526 -0.1705 -1.5678 -2.7533
19889TIP3   OH281157   5.501   2.511  15.505  0.7411 -0.2105 -0.2099
19889TIP3    H181158   5.468   2.518  15.594 -2.8186 -1.7801 -1.2204
19889TIP3    H281159   5.451   2.576  15.455 -1.1012 -2.6648 -1.8188
19890TIP3   OH281160   0.013   0.600  17.276 -0.2604 -0.2772 -0.5195
19890TIP3    H181161   0.035   0.553  17.196 -0.2519 -2.5806  0.7185
19890TIP3    H281162   0.093   0.598  17.328 -0.2487  1.2363 -0.4381
19891TIP3   OH281163   6.106   3.075  16.473  0.4791  0.0359 -0.0189
19891TIP3    H181164   6.179   3.061  16.412  2.4412 -0.1582  2.2028
19891TIP3    H281165   6.121   3.163  16.509 -1.0996  0.4765 -0.3892
19892TIP3   OH281166   6.390   5.413   3.312 -0.7912 -0.3518  0.0189
19892TIP3    H181167   6.315   5.374   3.357 -0.0342 -1.6261  0.2178
19892TIP3    H281168   6.399   5.500   3.351 -0.9880 -0.9205  1.3709
19893TIP3   OH281169   5.020   6.222   1.934  0.1506 -0.2923 -0.1807
19893TIP3    H181170   4.945   6.166   1.953 -0.2724  0.2390 -0.2580
19893TIP3    H281171   5.043   6.202   1.843 -0.2028 -0.1120 -0.3126
19894TIP3   OH281172   0.082   2.819   0.447 -0.2304  0.2540  0.1383
19894TIP3    H181173   0.164   2.819   0.398 -0.0977  0.9681  0.3414
19894TIP3    H281174   0.017   2.787   0.385  0.2155 -0.3918 -0.0015
19895TIP3   OH281175   2.895   0.361  11.855  0.1444 -0.3114  0.0846
19895TIP3    H181176   2.857   0.411  11.782  0.6146  1.2915  0.8763
19895TIP3    H281177   2.990   0.363  11.838  0.1882 -0.6609  0.2922
19896TIP3   OH281178   0.095   2.300  14.842 -0.2963  0.3467  0.0386
19896TIP3    H181179   0.018   2.256  14.807  2.0350 -2.7218 -1.7348
19896TIP3    H281180   0.101   2.269  14.933  0.2164 -1.5960 -0.6074
19897TIP3   OH281181   1.900   3.665   4.118 -0.0216  0.0395  0.8208
19897TIP3    H181182   1.968   3.601   4.093  0.3552  0.3817  0.9618
19897TIP3    H281183   1.907   3.734   4.052  0.3112  0.4646  1.2887
19898TIP3   OH281184   6.796   2.652  16.711  0.2348  0.5516 -0.1070
19898TIP3    H181185   6.868   2.665  16.773 -1.3413  2.0135  1.5005
19898TIP3    H281186   6.726   2.615  16.763 -1.6243  3.1167 -0.5928
19899TIP3   OH281187   6.172   0.285  12.599  0.0447 -0.2282 -0.0379
19899TIP3    H181188   6.263   0.275  12.627 -0.5138  0.5186  2.2289
19899TIP3    H281189   6.158   0.380  12.598 -0.7798 -0.3415 -0.0967
19900TIP3   OH281190   2.081   3.203   2.072  0.1312  0.3307  0.0271
19900TIP3    H181191   2.061   3.261   1.998  1.5054  0.7191 -0.0687
19900TIP3    H281192   2.003   3.207   2.127 -0.9761 -0.0478 -1.4363
19901TIP3   OH281193   2.699   4.498   2.209  0.4293 -0.0482  0.4304
19901TIP3    H181194   2.686   4.585   2.245 -0.2519  0.6058 -1.2690
19901TIP3    H281195   2.770   4.509   2.146  1.0154 -0.9543  0.9160
19902TIP3   OH281196   3.228   4.754   3.438 -0.4092  0.2087  0.4821
19902TIP3    H181197   3.143   4.793   3.418 -0.7624 -1.2471 -1.0117
19902TIP3    H281198   3.207   4.674   3.487  0.1594  0.3945  1.0457
19903TIP3   OH281199   2.663   6.417  13.226 -0.1717 -0.0871 -0.0398
19903TIP3    H181200   2.756   6.397  13.216  0.1307  0.4864  1.2886
19903TIP3    H281201   2.650   6.421  13.321 -1.4910  0.1017 -0.2122
19904TIP3   OH281202   5.259   3.845  11.436 -0.2799  0.6253  0.2706
19904TIP3    H181203   5.261   3.775  11.502 -0.1824 -0.3259 -0.7226
19904TIP3    H281204   5.216   3.805  11.360 -0.7020  1.8149 -0.1316
19905TIP3   OH281205   2.468   1.022   2.124  0.6440  0.4085  0.6384
19905TIP3    H181206   2.503   1.001   2.038  2.5557 -1.7851  1.8373
19905TIP3    H281207   2.503   0.954   2.181 -2.1255  0.6401  2.8209
19906TIP3   OH281208   0.376   5.770  15.935 -0.4165 -0.2589  0.2745
19906TIP3    H181209   0.338   5.787  16.021  0.1872 -0.0199  0.4948
19906TIP3    H281210   0.422   5.686  15.945  2.7499  1.4207  1.2619
19907TIP3   OH281211   0.138   6.607  12.677  0.0212 -0.3595 -0.6878
19907TIP3    H181212   0.067   6.554  12.713  0.7780 -2.9427 -2.6525
19907TIP3    H281213   0.126   6.601  12.582  2.4026 -0.2489 -1.0519
19908TIP3   OH281214   5.553   2.445   0.285 -0.2227 -0.6335  0.6450
19908TIP3    H181215   5.586   2.514   0.227  0.5842 -0.8892  0.7924
19908TIP3    H281216   5.507   2.385   0.227 -4.0266  1.7318  0.8599
19909TIP3   OH281217   1.234   5.496   0.157 -0.2265  0.2738 -0.0749
19909TIP3    H181218   1.225   5.413   0.111  1.0999  0.5696 -0.9249
19909TIP3    H281219   1.280   5.553   0.096 -0.3365  1.3663  0.8201
19910TIP3   OH281220   2.244   4.348  15.007 -0.5248 -0.2209 -0.1839
19910TIP3    H181221   2.299   4.294  15.063 -0.4070 -2.8381 -2.6108
19910TIP3    H281222   2.155   4.316  15.022 -1.2522  2.3293  1.8759
19911TIP3   OH281223   3.657   1.331  13.447 -0.7809  0.5777  0.2202
19911TIP3    H181224   3.582   1.389  13.464 -1.4662 -0.4243  0.7071
19911TIP3    H281225   3.652   1.314  13.353 -0.7760  1.0264  0.1327
19912TIP3   OH281226   6.367   2.207  11.875 -0.0636 -0.1485 -0.7302
19912TIP3    H181227   6.296   2.269  11.857 -0.2513  0.3625  1.5579
19912TIP3    H281228   6.341   2.128  11.829 -2.2531 -0.0383  0.1931
19913TIP3   OH281229   4.648   1.807  12.000 -0.2554  0.3200  0.1088
19913TIP3    H181230   4.596   1.828  11.922  1.4036  1.2318 -0.8159
19913TIP3    H281231   4.706   1.882  12.010 -2.8327  2.1405  4.4856
19914TIP3   OH281232   0.046   2.690  12.901  0.3709  0.8285  0.2066
19914TIP3    H181233  -0.043   2.727  12.897  0.3398  0.7320 -0.0301
19914TIP3    H281234   0.101   2.759  12.864  0.3337  0.7090 -0.0798
19915TIP3   OH281235   1.533   6.555  13.563  0.4124 -0.2679 -0.2884
19915TIP3    H181236   1.577   6.639  13.577  1.0353 -0.4161 -1.2463
19915TIP3    H281237   1.440   6.575  13.565  0.4855  0.0670  1.7172
19916TIP3   OH281238   6.637   5.242   1.667 -0.2817  0.2874 -0.1525
19916TIP3    H181239   6.572   5.197   1.720 -0.4987 -0.1442 -0.7621
19916TIP3    H281240   6.635   5.195   1.583  2.4930 -1.3345  0.5274
19917TIP3   OH281241   1.122   0.645  15.861 -0.1299 -0.8644  0.0841
19917TIP3    H181242   1.034   0.662  15.897  0.6485 -1.1479  2.2720
19917TIP3    H281243   1.170   0.726  15.876  0.0148 -0.6954 -1.1480
19918TIP3   OH281244   4.021   0.064   6.485  0.1266  0.8504  0.1731
19918TIP3    H181245   3.997   0.079   6.576  0.0761  1.7499  0.0222
19918TIP3    H281246   4.006   0.148   6.442 -2.3142 -0.1836 -1.2072
19919TIP3   OH281247   1.507   5.882  10.343  0.4895  0.3771  0.3167
19919TIP3    H181248   1.593   5.910  10.377  1.2525 -2.5101  1.0010
19919TIP3    H281249   1.477   5.816  10.405 -1.4829  0.1163 -0.8413
19920TIP3   OH281250   1.346   2.176   5.040  0.2589  0.2312 -0.2603
19920TIP3    H181251   1.303   2.159   4.956 -0.3909  2.8497 -0.5333
19920TIP3    H281252   1.391   2.094   5.061 -1.2236 -1.1569 -2.1528
19921TIP3   OH281253   3.035   0.124   2.696 -0.3830  0.4731  0.1771
19921TIP3    H181254   2.955   0.161   2.659  0.1434 -0.5760 -2.2218
19921TIP3    H281255   3.081   0.087   2.621  0.9324 -1.6186  1.8889
19922TIP3   OH281256   2.189   3.416   5.693 -0.4920  0.7316 -0.0619
19922TIP3    H181257   2.249   3.348   5.659  1.2719  1.3893  1.5403
19922TIP3    H281258   2.198   3.488   5.631  0.2932  0.7633  0.0727
19923TIP3   OH281259   2.816   3.597   5.628  0.1059 -0.2494 -0.5410
19923TIP3    H181260   2.729   3.564   5.648  0.7172 -1.1538  0.7756
19923TIP3    H281261   2.812   3.690   5.651 -0.9600  0.1165 -2.0741
19924TIP3   OH281262   0.309   1.234  16.310 -0.3579  0.1270 -0.3613
19924TIP3    H181263   0.329   1.322  16.277  0.2691  0.1733  0.1410
19924TIP3    H281264   0.242   1.249  16.377 -0.6669  0.1623 -0.6759
19925TIP3   OH281265   5.311   2.114  16.873 -0.3775 -0.0617  0.0408
19925TIP3    H181266   5.215   2.118  16.875 -0.3418  1.7861 -0.0935
19925TIP3    H281267   5.338   2.201  16.843  1.3400 -0.6835 -0.3283
19926TIP3   OH281268   3.686   1.031  13.050 -0.0136  0.2468  0.2095
19926TIP3    H181269   3.724   1.066  12.970 -0.8059  1.7245  0.4407
19926TIP3    H281270   3.631   0.958  13.021 -0.5508  0.9739 -0.6375
19927TIP3   OH281271   6.496   2.461   2.795 -0.1866  0.0026 -0.1808
19927TIP3    H181272   6.476   2.418   2.878 -0.0900  0.1434 -0.0821
19927TIP3    H281273   6.546   2.539   2.821 -0.6866  0.3747 -0.3286
19928TIP3   OH281274   6.659   0.431   6.189 -0.4559 -0.0358 -0.0027
19928TIP3    H181275   6.644   0.394   6.276 -1.3794 -1.4707 -0.7372
19928TIP3    H281276   6.753   0.423   6.176 -0.7040 -3.7278 -0.7156
19929TIP3   OH281277   5.883   4.423   4.605  0.0536 -0.0101  0.3304
19929TIP3    H181278   5.947   4.440   4.536 -1.6398  1.6996 -0.9109
19929TIP3    H281279   5.853   4.510   4.633 -2.6158 -0.7415 -0.0297
19930TIP3   OH281280   0.457   3.213  12.117 -0.7920 -0.7630  0.0951
19930TIP3    H181281   0.475   3.147  12.184 -0.8694 -1.2721 -0.3774
19930TIP3    H281282   0.371   3.248  12.140 -1.5412 -2.0687 -0.6314
19931TIP3   OH281283   1.613   4.262  13.370  0.3490 -0.6131  0.3610
19931TIP3    H181284   1.595   4.262  13.276  0.1625 -1.6211  0.3916
19931TIP3    H281285   1.632   4.171  13.391  2.5355 -0.0942  0.8979
19932TIP3   OH281286   5.406   4.736   3.383  0.2999 -0.2196 -0.2823
19932TIP3    H181287   5.342   4.665   3.391 -0.4720  0.4184 -0.7037
19932TIP3    H281288   5.463   4.709   3.311 -0.6347  0.0577 -1.1545
19933TIP3   OH281289   2.471   4.352   3.131 -0.1950 -0.7793 -0.9667
19933TIP3    H181290   2.521   4.382   3.055  1.2387  0.7689  0.4843
19933TIP3    H281291   2.416   4.427   3.154  1.4488 -0.1127  1.1203
19934TIP3   OH281292   2.754   0.586   6.201 -0.3194  0.0204  0.0425
19934TIP3    H181293   2.745   0.659   6.141  0.2294 -0.3773 -0.5388
19934TIP3    H281294   2.723   0.510   6.152  1.9723 -0.6479 -0.4970
19935TIP3   OH281295   5.232   3.657   5.274 -0.1757  0.1212  0.0880
19935TIP3    H181296   5.258   3.679   5.364 -1.1109  0.3640  0.3035
19935TIP3    H281297   5.238   3.562   5.270 -1.4091 -0.0024  0.8215
19936TIP3   OH281298   5.292   0.118   6.033  0.0211 -0.5678 -0.0594
19936TIP3    H181299   5.363   0.179   6.014 -0.2999 -0.4544 -0.9204
19936TIP3    H281300   5.227   0.133   5.964 -0.8903 -0.6022  0.7632
19937TIP3   OH281301   0.964   1.531   1.506 -0.1182 -0.3987 -0.4847
19937TIP3    H181302   0.868   1.528   1.506 -0.4482  4.0525  0.2622
19937TIP3    H281303   0.987   1.562   1.419  0.2823  1.8668  0.3577
19938TIP3   OH281304   1.239   5.304   5.940  0.1147 -0.2377  0.5031
19938TIP3    H181305   1.309   5.277   5.999 -0.6577 -1.0847  1.0725
19938TIP3    H281306   1.177   5.350   5.996  1.0777  2.2009 -0.3360
19939TIP3   OH281307   3.516   1.182   4.458  0.0096 -0.3425  0.2195
19939TIP3    H181308   3.567   1.119   4.509 -1.1420 -1.3199  0.1970
19939TIP3    H281309   3.570   1.262   4.458  0.2937 -0.4815  2.4890
19940TIP3   OH281310   6.216   0.945  15.664  0.0399 -0.3195 -0.0794
19940TIP3    H181311   6.225   0.849  15.666  0.9132 -0.2494 -0.1593
19940TIP3    H281312   6.122   0.960  15.676 -0.0033 -1.1598  0.8082
19941TIP3   OH281313   1.690   5.660  16.337 -0.0504 -0.8001  0.5214
19941TIP3    H181314   1.736   5.744  16.326 -1.8471  0.0359 -1.4945
19941TIP3    H281315   1.677   5.652  16.431  2.0012  0.1132  0.9495
19942TIP3   OH281316   1.725   1.468  12.034 -1.0039 -0.3052  0.5720
19942TIP3    H181317   1.768   1.553  12.035  0.2774 -0.9258  1.6456
19942TIP3    H281318   1.714   1.447  11.941  0.7085  0.0378  0.2695
19943TIP3   OH281319   0.863   1.396   0.486 -0.2574 -0.0859 -0.3050
19943TIP3    H181320   0.869   1.479   0.437  3.4671  0.2078  0.3526
19943TIP3    H281321   0.820   1.420   0.568 -1.3004  0.6678 -1.0406
19944TIP3   OH281322   1.597   5.975   5.605  0.2350 -0.4003  0.3555
19944TIP3    H181323   1.669   5.918   5.579  1.3760  0.5898  1.1898
19944TIP3    H281324   1.629   6.018   5.685 -1.4310 -0.1867  0.9494
19945TIP3   OH281325   1.608   6.335  11.943  0.1163  0.4158  0.6795
19945TIP3    H181326   1.676   6.360  12.006  0.9473 -0.0508 -0.0217
19945TIP3    H281327   1.644   6.259  11.897  0.1066  1.5515 -1.3054
19946TIP3   OH281328   5.893   2.096  11.856  0.1578  0.2030  0.2249
19946TIP3    H181329   5.947   2.168  11.823  1.1689 -0.6765 -0.1016
19946TIP3    H281330   5.919   2.020  11.803  0.3428 -0.7960  1.6799
19947TIP3   OH281331   1.033   0.624   6.424  0.0217 -0.0318  0.4152
19947TIP3    H181332   1.097   0.695   6.419 -1.4674  1.3086 -0.8036
19947TIP3    H281333   0.951   0.666   6.450 -0.4522 -1.6739  1.8169
19948TIP3   OH281334   0.018   2.161  11.137  0.7527  0.3578  0.6217
19948TIP3    H181335   0.076   2.169  11.061  1.0972  1.1167  0.9504
19948TIP3    H281336  -0.030   2.080  11.122  0.0736  1.0067 -0.9106
19949TIP3   OH281337   5.050   4.287  15.898  0.4293  0.2124 -0.1054
19949TIP3    H181338   4.967   4.320  15.933  0.9178 -0.3187  1.6692
19949TIP3    H281339   5.025   4.222  15.833 -0.5978 -0.7396  1.1872
19950TIP3   OH281340   5.693   6.286   6.488  0.2165  0.2419  0.4469
19950TIP3    H181341   5.637   6.335   6.428  1.0193 -0.9796 -1.3791
19950TIP3    H281342   5.639   6.212   6.516  0.8778 -0.9998 -1.4035
19951TIP3   OH281343   0.247   2.152   2.695 -0.4541 -0.1233 -0.7657
19951TIP3    H181344   0.310   2.115   2.632 -0.6061  0.3875 -1.2297
19951TIP3    H281345   0.162   2.133   2.657 -0.5328  1.1372 -1.2913
19952TIP3   OH281346   5.571   1.834  16.718  0.6472  0.3149  0.0437
19952TIP3    H181347   5.560   1.870  16.630 -0.2800 -0.0146  0.0178
19952TIP3    H281348   5.653   1.784  16.713  0.0452 -0.6250 -0.9550
19953TIP3   OH281349   3.287   1.367   4.434 -0.1756 -0.3729 -0.1353
19953TIP3    H181350   3.288   1.336   4.344  1.7083  2.5606 -1.2698
19953TIP3    H281351   3.367   1.332   4.473  0.0019 -0.0818 -0.2319
19954TIP3   OH281352   3.586   1.907   4.426 -0.1591 -0.0633  0.5048
19954TIP3    H181353   3.602   1.997   4.397 -0.7853  0.3521  1.3812
19954TIP3    H281354   3.529   1.870   4.359  0.8457 -0.1277 -0.3442
19955TIP3   OH281355   2.103   3.546  12.778  0.0018  0.0020  0.3427
19955TIP3    H181356   2.152   3.535  12.696  0.1750  2.3027  0.0594
19955TIP3    H281357   2.116   3.464  12.825  1.7206 -0.5632 -0.9990
19956TIP3   OH281358   0.654   1.750   4.989  0.2022  0.1583  0.0453
19956TIP3    H181359   0.628   1.842   4.986 -2.2354 -0.4150  0.9820
19956TIP3    H281360   0.583   1.703   4.945  0.6950 -1.3661  0.7875
19957TIP3   OH281361   3.441   6.321  14.272 -0.6133 -0.0857 -0.2210
19957TIP3    H181362   3.508   6.356  14.332 -0.3862  2.2406 -1.6768
19957TIP3    H281363   3.468   6.231  14.255  0.9234  0.1159  0.9413
19958TIP3   OH281364   2.274   1.888  17.016  0.0492 -0.1481  0.2998
19958TIP3    H181365   2.320   1.813  17.054  0.8121 -0.3402 -0.9322
19958TIP3    H281366   2.342   1.936  16.968 -0.6974  0.5670 -0.0717
19959TIP3   OH281367   5.933   6.758  12.667  0.4830  0.3277 -0.8658
19959TIP3    H181368   6.026   6.782  12.669 -0.1432  3.0534  0.2450
19959TIP3    H281369   5.907   6.774  12.576  0.9228  0.2625 -1.0083
19960TIP3   OH281370   1.286   6.430   0.630 -0.2032 -0.3623  0.0446
19960TIP3    H181371   1.367   6.481   0.625 -1.1689  1.2398 -0.2216
19960TIP3    H281372   1.313   6.339   0.620  1.4504  0.2223 -1.1233
19961TIP3   OH281373   3.281   5.015  16.094  0.1144 -0.4539 -0.1720
19961TIP3    H181374   3.233   5.078  16.041  2.7217  1.6075 -0.3085
19961TIP3    H281375   3.297   4.941  16.036 -1.3920 -0.4564 -0.6155
19962TIP3   OH281376   2.278   2.627   6.459  0.4808  0.5382  0.3976
19962TIP3    H181377   2.226   2.588   6.389  3.2248 -1.2257 -0.8265
19962TIP3    H281378   2.216   2.680   6.509 -1.8780  0.7397 -2.5143
19963TIP3   OH281379   2.956   5.936   1.155  0.0243 -0.1124  0.4453
19963TIP3    H181380   3.040   5.957   1.197 -0.5515 -0.4035  1.8047
19963TIP3    H281381   2.978   5.870   1.089  0.9624  0.3714  0.2492
19964TIP3   OH281382   6.613   6.511  10.647  0.0067  0.4380 -0.0964
19964TIP3    H181383   6.542   6.449  10.660  0.0445  0.7338  1.7005
19964TIP3    H281384   6.645   6.531  10.735  0.9960  1.8378 -0.7292
19965TIP3   OH281385   5.370   4.949  15.638  0.4358  0.5780 -0.9457
19965TIP3    H181386   5.428   4.876  15.661 -0.1480  0.6454  0.9025
19965TIP3    H281387   5.353   4.993  15.721 -2.0254  0.7332 -1.4447
19966TIP3   OH281388   4.431   6.668  14.430 -0.1628 -0.1063 -0.2661
19966TIP3    H181389   4.336   6.678  14.431 -0.0023  1.9314 -0.7419
19966TIP3    H281390   4.446   6.583  14.389 -1.7490  0.3280 -1.8540
19967TIP3   OH281391   1.855   2.130   0.454 -0.7076 -0.2027  0.4246
19967TIP3    H181392   1.917   2.194   0.489  0.0165 -0.7514  0.1765
19967TIP3    H281393   1.823   2.082   0.531  0.0620 -0.6865  0.4547
19968TIP3   OH281394   4.146   4.202  16.975 -0.0972  0.0874 -0.4025
19968TIP3    H181395   4.093   4.281  16.968  0.3398  0.6323  1.7715
19968TIP3    H281396   4.083   4.130  16.965 -0.9041  0.7166  0.0786
19969TIP3   OH281397   3.395   5.483  10.706 -0.2344 -0.5916  0.3463
19969TIP3    H181398   3.330   5.545  10.739  0.4238  0.2866  0.0211
19969TIP3    H281399   3.384   5.485  10.611  0.5929 -0.0674  0.2569
19970TIP3   OH281400   0.041   1.093   2.248  0.0960  0.4564  0.3077
19970TIP3    H181401   0.014   1.136   2.167 -0.1638  1.1362  0.7505
19970TIP3    H281402   0.131   1.122   2.262  0.4125 -0.2758 -0.1390
19971TIP3   OH281403   4.244   0.985  12.575  0.3926 -0.0795 -0.6659
19971TIP3    H181404   4.231   1.066  12.525 -0.0515  1.5699  1.9667
19971TIP3    H281405   4.335   0.990  12.604  0.3461 -0.5139 -0.4440
19972TIP3   OH281406   5.896   2.091   2.038  0.7676 -0.0769  0.1076
19972TIP3    H181407   5.974   2.087   2.093 -0.0043  0.6915  1.2985
19972TIP3    H281408   5.827   2.120   2.097 -0.2452  0.0780 -1.1230
19973TIP3   OH281409   6.504   5.884  14.674 -0.4835  0.5986 -0.1076
19973TIP3    H181410   6.481   5.879  14.581 -1.5831 -1.1983  0.2284
19973TIP3    H281411   6.421   5.900  14.719 -0.1942 -0.0475  0.6802
19974TIP3   OH281412   1.503   1.724   1.626  0.0696 -0.0618  0.2206
19974TIP3    H181413   1.487   1.682   1.711  0.3141  0.0367  0.3156
19974TIP3    H281414   1.500   1.652   1.563  0.9472 -0.2994  0.4345
19975TIP3   OH281415   4.756   5.929  16.667 -0.0948  0.3034  0.6327
19975TIP3    H181416   4.803   5.984  16.730  0.9651  0.4486 -0.2387
19975TIP3    H281417   4.825   5.878  16.624 -1.0461 -1.8085  1.4717
19976TIP3   OH281418   2.774   6.655   0.405  0.1587 -0.1291  0.2378
19976TIP3    H181419   2.763   6.729   0.465 -0.2051 -0.4795  0.6134
19976TIP3    H281420   2.736   6.684   0.323  0.5898  0.3286  0.1928
19977TIP3   OH281421   0.352   1.569   2.154 -0.2242 -0.1719  0.0752
19977TIP3    H181422   0.331   1.660   2.132 -0.6528  0.0003  1.1305
19977TIP3    H281423   0.448   1.568   2.161  0.0403 -0.4604 -2.6147
19978TIP3   OH281424   1.149   4.376   1.177  0.0225 -0.4116  0.1821
19978TIP3    H181425   1.155   4.456   1.230  0.6817  0.4081 -1.0929
19978TIP3    H281426   1.058   4.348   1.189 -0.3715  0.8125  0.2613
19979TIP3   OH281427   0.248   1.100   5.145  0.1062  0.9206  0.2141
19979TIP3    H181428   0.295   1.018   5.129 -0.5715  0.4583  0.5333
19979TIP3    H281429   0.186   1.107   5.073 -1.8172 -0.3386  1.6193
19980TIP3   OH281430   2.861   3.539  12.217  0.2005 -0.7770 -0.1778
19980TIP3    H181431   2.802   3.586  12.158  0.6649  0.4868  0.3463
19980TIP3    H281432   2.807   3.515  12.292  0.3918  0.5522  0.3920
19981TIP3   OH281433   2.841   1.976  16.156 -0.5270 -0.0658 -0.1845
19981TIP3    H181434   2.837   1.966  16.251 -2.4722  0.2908 -0.1870
19981TIP3    H281435   2.844   2.071  16.142  1.1470 -0.1211 -0.4997
19982TIP3   OH281436   4.037   0.779   5.195 -0.4859 -0.5064  0.0276
19982TIP3    H181437   4.117   0.728   5.191 -0.4994 -0.4812 -1.0848
19982TIP3    H281438   4.040   0.834   5.116 -2.8934 -2.5508 -1.6813
19983TIP3   OH281439   1.179   6.556  10.521  0.4171 -0.0149  0.0312
19983TIP3    H181440   1.120   6.626  10.491  0.6434 -0.2310 -0.9297
19983TIP3    H281441   1.123   6.478  10.526  0.3054  0.0883  0.5179
19984TIP3   OH281442   1.418   0.349   3.284  0.1582  0.2359 -0.1254
19984TIP3    H181443   1.344   0.343   3.224 -0.5702  1.1949  0.6523
19984TIP3    H281444   1.478   0.411   3.242 -0.4392  1.0548  0.2142
19985TIP3   OH281445   5.722   0.605  13.713  0.2617 -0.2119 -0.5075
19985TIP3    H181446   5.704   0.693  13.681  0.5215  0.2159  0.4691
19985TIP3    H281447   5.711   0.549  13.637 -1.6733  0.4307 -0.7690
19986TIP3   OH281448   3.511   5.086  15.063 -0.1135  0.9072 -0.7819
19986TIP3    H181449   3.468   5.084  15.149 -1.4813 -1.7851 -1.4251
19986TIP3    H281450   3.500   5.176  15.033 -2.8421  1.0283  0.3249
19987TIP3   OH281451   2.676   4.087  16.706  0.4244  0.6482  0.1724
19987TIP3    H181452   2.617   4.012  16.706  0.7541  0.3510  1.6466
19987TIP3    H281453   2.667   4.126  16.619  0.6404 -1.4202 -0.8262
19988TIP3   OH281454   5.439   2.704   3.259  0.1534  0.0905 -0.3110
19988TIP3    H181455   5.400   2.729   3.343 -1.4261  0.0459 -0.9989
19988TIP3    H281456   5.486   2.623   3.277  0.6987  0.6094  0.7344
19989TIP3   OH281457   5.966   5.311  13.705 -0.3262 -0.1214 -0.5907
19989TIP3    H181458   6.016   5.246  13.656 -1.0049 -0.6903 -0.5466
19989TIP3    H281459   5.883   5.267  13.725  0.5085 -0.5395  2.5075
19990TIP3   OH281460   3.180   3.280  11.904  0.1914 -0.0881  0.0968
19990TIP3    H181461   3.258   3.307  11.952 -0.0940  0.9018  0.0212
19990TIP3    H281462   3.107   3.309  11.958 -0.2638 -3.9179  1.8839
19991TIP3   OH281463   1.103   1.515   4.469  0.1680  0.5207 -0.4558
19991TIP3    H181464   1.064   1.501   4.555  0.0277  0.0097 -0.6022
19991TIP3    H281465   1.108   1.428   4.430  1.6348  0.5338 -0.3580
19992TIP3   OH281466   0.308   2.243   4.648  0.0791 -0.5109  0.2353
19992TIP3    H181467   0.369   2.312   4.674  0.5924 -0.8739  0.0123
19992TIP3    H281468   0.262   2.220   4.728 -1.9853  1.8737 -0.1159
19993TIP3   OH281469   4.130   0.550   3.063 -0.4486 -0.2423 -0.5294
19993TIP3    H181470   4.090   0.489   3.125 -0.0215  1.3505  1.4393
19993TIP3    H281471   4.072   0.547   2.987 -2.5308 -0.4085  0.9495
19994TIP3   OH281472   0.015   2.650  13.738 -0.6325 -0.2128 -0.3129
19994TIP3    H181473  -0.011   2.582  13.676  2.7974 -0.5170 -1.6640
19994TIP3    H281474   0.037   2.602  13.818 -0.8439 -0.3508 -0.3353
19995TIP3   OH281475   6.637   4.308  11.148 -0.3730  0.1015  0.2490
19995TIP3    H181476   6.627   4.401  11.166 -0.5793  0.2033 -0.3576
19995TIP3    H281477   6.654   4.303  11.054 -4.6295 -0.6794 -0.7288
19996TIP3   OH281478   4.868   4.630   1.682 -0.0993 -0.0252 -0.3070
19996TIP3    H181479   4.830   4.644   1.768 -0.7779 -0.3441 -0.5464
19996TIP3    H281480   4.943   4.690   1.678  0.4509 -0.6189  0.8135
19997TIP3   OH281481   2.692   4.500   0.457 -0.1272 -0.3632  0.0806
19997TIP3    H181482   2.777   4.459   0.476  0.3409  0.9582  0.9694
19997TIP3    H281483   2.692   4.511   0.362  1.9475  2.0784  0.2435
19998TIP3   OH281484   3.984   5.132   5.186  0.6822 -0.5348  0.5800
19998TIP3    H181485   4.040   5.056   5.202  1.3625 -0.5614 -1.6338
19998TIP3    H281486   3.896   5.095   5.174  1.2268 -1.2160 -1.8744
19999TIP3   OH281487   5.653   1.051   0.804  0.0808  0.3462 -0.5739
19999TIP3    H181488   5.604   1.128   0.831 -1.2757 -0.1566 -1.4972
19999TIP3    H281489   5.681   1.010   0.887  0.7722  1.7519 -0.0788
20000TIP3   OH281490   1.906   6.324  16.725 -0.3278  0.6864  0.0731
20000TIP3    H181491   1.814   6.301  16.718  0.0210 -0.8696  0.2151
20000TIP3    H281492   1.907   6.419  16.736 -1.7663  1.1322 -2.7014
20001TIP3   OH281493   6.096   0.449  14.190 -0.4225  0.1295  0.6903
20001TIP3    H181494   6.034   0.493  14.132  0.4170 -0.8475 -1.0093
20001TIP3    H281495   6.141   0.520  14.235  0.8331  1.1142 -1.9178
20002TIP3   OH281496   3.115   1.330   1.974  1.0477  0.4656  0.0078
20002TIP3    H181497   3.112   1.363   2.064 -0.1852  0.4658 -0.0212
20002TIP3    H281498   3.203   1.292   1.966  1.1919  0.4961  1.2019
20003TIP3   OH281499   5.025   0.027   3.044  0.4726  0.1608  0.0326
20003TIP3    H181500   5.026   0.035   2.949  1.9073 -1.6340 -0.1653
20003TIP3    H281501   4.950  -0.029   3.063  0.4468  0.1558 -0.0845
20004TIP3   OH281502   6.437   2.452  12.862 -0.0642 -0.4128  0.3672
20004TIP3    H181503   6.391   2.496  12.934  0.9050  0.5479  0.4131
20004TIP3    H281504   6.448   2.362  12.894 -0.5346 -0.2567  1.0019
20005TIP3   OH281505   5.535   4.856  11.285  0.5196 -0.1036  0.3378
20005TIP3    H181506   5.450   4.834  11.247  0.5984  1.0628 -0.5508
20005TIP3    H281507   5.516   4.928  11.345  0.5947 -1.1162  1.6204
20006TIP3   OH281508   6.079   0.397  16.205 -0.4662  0.0745  0.3957
20006TIP3    H181509   6.126   0.326  16.248  0.2729  0.7881  0.7765
20006TIP3    H281510   6.133   0.475  16.219 -1.3883  0.7708  0.2100
20007TIP3   OH281511   5.370   6.565   5.237  0.3226  0.0690  0.8319
20007TIP3    H181512   5.321   6.486   5.260  1.0174 -0.3677  0.8220
20007TIP3    H281513   5.303   6.633   5.233 -0.4136 -0.6748 -0.0099
20008TIP3   OH281514   2.033   3.803  13.861  0.2926 -0.3843 -0.1826
20008TIP3    H181515   2.066   3.848  13.939 -2.1525 -1.0575  1.3202
20008TIP3    H281516   2.070   3.715  13.867 -0.1274 -0.5251  0.3826
20009TIP3   OH281517   5.515   5.834   2.955 -0.3734 -0.0579 -0.3899
20009TIP3    H181518   5.430   5.847   2.914 -1.3193  0.2440  1.5337
20009TIP3    H281519   5.507   5.878   3.040  1.3326 -0.9600  0.2826
20010TIP3   OH281520   3.748   0.786  11.839  0.2610 -0.0133  0.1156
20010TIP3    H181521   3.674   0.791  11.900 -0.8782  1.1870 -1.3049
20010TIP3    H281522   3.733   0.705  11.790 -1.3210  1.2075 -1.5651
20011TIP3   OH281523   0.352   2.303  12.070 -0.0829  0.0700 -0.3607
20011TIP3    H181524   0.367   2.215  12.104 -2.3778 -0.4179 -0.4001
20011TIP3    H281525   0.267   2.329  12.107  0.0196  1.8220 -1.2207
20012TIP3   OH281526   4.371   6.645   4.379 -0.2494 -0.4993  0.5892
20012TIP3    H181527   4.318   6.680   4.308  0.0289  0.7665  0.9738
20012TIP3    H281528   4.310   6.596   4.433 -0.9144  0.3784  0.6628
20013TIP3   OH281529   1.058   1.375  13.110  0.0408  0.3831 -0.1032
20013TIP3    H181530   1.083   1.290  13.076  0.7067  0.9474 -1.0793
20013TIP3    H281531   0.995   1.356  13.180 -0.0285 -0.8838 -0.4924
20014TIP3   OH281532   0.396   6.340   0.516 -0.3369 -0.2478  0.6375
20014TIP3    H181533   0.487   6.352   0.489 -0.3357  3.7385  1.7695
20014TIP3    H281534   0.347   6.331   0.434  0.7890  0.8263 -0.1884
20015TIP3   OH281535   5.587   4.310  16.402  0.1314  0.0392 -0.1099
20015TIP3    H181536   5.629   4.363  16.334 -1.1451 -0.1479 -1.0853
20015TIP3    H281537   5.543   4.240  16.354  0.6278 -1.1295  1.0509
20016TIP3   OH281538   4.070   5.220  13.114 -0.0146 -0.6345 -0.1749
20016TIP3    H181539   4.069   5.144  13.171 -0.3929  0.2345  1.0255
20016TIP3    H281540   4.163   5.233  13.093  0.2515 -0.4347  1.0292
20017TIP3   OH281541   3.580   6.762  13.306  0.7903 -0.0714 -0.1314
20017TIP3    H181542   3.641   6.734  13.375  1.2704  1.3244  0.0312
20017TIP3    H281543   3.629   6.749  13.225  0.8465 -0.1281 -0.0889
20018TIP3   OH281544   4.114   3.474  16.205  0.4201  1.2896  0.5365
20018TIP3    H181545   4.196   3.516  16.180  0.5999 -0.1041 -1.4788
20018TIP3    H281546   4.140   3.391  16.244 -0.0131  1.3488  0.9684
20019TIP3   OH281547   2.336   1.222   3.653 -0.1140  0.2098  0.7002
20019TIP3    H181548   2.323   1.227   3.558 -1.0122 -0.6814  0.7575
20019TIP3    H281549   2.402   1.289   3.671  0.0856  0.3912 -0.5505
20020TIP3   OH281550   1.443   5.615  12.967  0.5158 -0.3023 -0.2458
20020TIP3    H181551   1.385   5.547  12.932  0.8068 -0.3482 -0.6447
20020TIP3    H281552   1.405   5.697  12.936  0.3309 -0.2969 -0.0089
20021TIP3   OH281553   2.018   4.058  16.600 -0.8427 -0.0746  0.3055
20021TIP3    H181554   1.972   3.975  16.608 -0.2463 -0.4548 -0.1530
20021TIP3    H281555   2.103   4.042  16.641  0.4059 -0.5993 -2.2802
20022TIP3   OH281556   6.482   2.682   6.195 -0.1780 -0.5407  0.0644
20022TIP3    H181557   6.546   2.701   6.127  1.0659 -3.7011  0.1901
20022TIP3    H281558   6.533   2.669   6.275 -1.5402  2.2716  1.5686
20023TIP3   OH281559   2.612   4.657  13.456  0.1682  0.5158 -0.1298
20023TIP3    H181560   2.627   4.620  13.369 -0.1431 -1.0898  0.4675
20023TIP3    H281561   2.697   4.651  13.500  0.1289  0.5535 -0.0487
20024TIP3   OH281562   5.476   1.849   2.466 -0.3714  0.0466 -0.2359
20024TIP3    H181563   5.381   1.850   2.474 -0.4244  0.0310 -0.7874
20024TIP3    H281564   5.500   1.942   2.456 -0.2041  0.1694  1.1084
20025TIP3   OH281565   1.165   3.818  13.604  0.2494 -0.0829  0.1766
20025TIP3    H181566   1.258   3.836  13.593  0.2707 -0.2611  0.0745
20025TIP3    H281567   1.160   3.762  13.682  0.1974  0.2141  0.3885
20026TIP3   OH281568   5.121   1.987   2.823 -0.0001 -0.1273  0.6184
20026TIP3    H181569   5.097   1.969   2.914  1.0659  0.7382  1.0957
20026TIP3    H281570   5.188   1.921   2.803 -1.3219 -1.3054 -0.0722
20027TIP3   OH281571   5.502   4.342   1.440 -0.3454 -0.6245  0.2797
20027TIP3    H181572   5.587   4.375   1.410 -1.0690 -1.3531 -2.9895
20027TIP3    H281573   5.483   4.393   1.519  1.7979  1.5922 -0.4945
20028TIP3   OH281574   2.317   0.232  12.633  0.5351 -0.2265  0.4245
20028TIP3    H181575   2.223   0.220  12.646 -0.0256  4.2439  2.5157
20028TIP3    H281576   2.357   0.188  12.708 -0.2235  0.2961  1.1647
20029TIP3   OH281577   5.069   3.345  16.916 -0.2563  0.5760  0.2606
20029TIP3    H181578   5.026   3.261  16.906 -0.7695  1.0246 -1.8652
20029TIP3    H281579   5.021   3.389  16.987 -0.3517 -0.6633  0.9854
20030TIP3   OH281580   1.721   1.055   2.725  0.1931 -0.3536 -0.1590
20030TIP3    H181581   1.745   1.066   2.817 -0.6458  2.9741 -0.2113
20030TIP3    H281582   1.803   1.038   2.680  0.8354 -0.3857  0.9905
20031TIP3   OH281583   6.305   5.981   2.773 -0.2833  0.6383 -0.8481
20031TIP3    H181584   6.226   5.932   2.796 -0.2405  0.8436 -0.2316
20031TIP3    H281585   6.319   5.963   2.680 -0.0197 -0.8795 -0.5549
20032TIP3   OH281586   2.543   0.863   5.944 -1.1258  0.2799  0.5680
20032TIP3    H181587   2.476   0.931   5.952  0.4010  1.9455 -0.0647
20032TIP3    H281588   2.588   0.864   6.029 -0.4173  0.8571  0.2005
20033TIP3   OH281589   0.185   1.948  16.943  0.5395  0.0846 -0.2324
20033TIP3    H181590   0.272   1.915  16.966  0.8916  0.4392 -1.0110
20033TIP3    H281591   0.133   1.870  16.926  0.0328 -0.2447  2.4259
20034TIP3   OH281592   3.906   0.162  14.354  0.4725  0.0817 -0.0652
20034TIP3    H181593   3.815   0.173  14.325  0.5681 -1.7232 -1.2373
20034TIP3    H281594   3.916   0.225  14.425 -1.7156  0.2998  0.1342
20035TIP3   OH281595   4.724   5.691   1.122 -0.6645  0.2527 -0.1846
20035TIP3    H181596   4.756   5.602   1.108 -0.0195  0.4262  0.1246
20035TIP3    H281597   4.634   5.690   1.090 -0.5766 -0.4404 -0.4232
20036TIP3   OH281598   5.894   1.044   5.596  0.1424 -0.2721  0.1267
20036TIP3    H181599   5.960   1.105   5.562  0.2197 -0.7205 -0.5672
20036TIP3    H281600   5.815   1.096   5.607  0.3749  0.0816  0.1322
20037TIP3   OH281601   4.612   2.264   1.910 -0.2018  0.0789  0.3994
20037TIP3    H181602   4.565   2.213   1.976  0.3814 -0.9504  0.0411
20037TIP3    H281603   4.544   2.307   1.859 -0.7247 -0.5860  0.5210
20038TIP3   OH281604   0.372   6.566  15.064 -0.4058  0.3098 -0.6878
20038TIP3    H181605   0.334   6.540  15.148  0.1270 -1.3456 -0.9293
20038TIP3    H281606   0.464   6.538  15.069 -0.3176  0.3652 -1.7314
20039TIP3   OH281607   4.698   5.664   5.739 -0.2083  0.0376  0.1260
20039TIP3    H181608   4.676   5.696   5.827 -1.1532  1.2285 -0.5147
20039TIP3    H281609   4.692   5.741   5.683 -1.0823 -0.9813 -1.2417
20040TIP3   OH281610   4.220   1.977   4.034  0.0660  0.3128  0.1357
20040TIP3    H181611   4.192   2.056   3.988  0.5953  0.4322  0.0139
20040TIP3    H281612   4.141   1.924   4.041  0.2051 -0.2314 -1.9746
20041TIP3   OH281613   6.645   6.154  12.282 -0.3743 -0.4879 -0.4563
20041TIP3    H181614   6.720   6.095  12.271 -0.2948 -0.5747  0.4606
20041TIP3    H281615   6.672   6.234  12.237  0.9885  0.0798  1.2647
20042TIP3   OH281616   4.284   1.520  16.326  0.5144 -0.0924  0.2764
20042TIP3    H181617   4.320   1.571  16.253 -1.1507  1.1688  0.2724
20042TIP3    H281618   4.315   1.566  16.404  0.0820  0.1520  0.3042
20043TIP3   OH281619   4.993   4.302   2.852  0.2776 -0.3005 -0.4868
20043TIP3    H181620   4.917   4.294   2.910  0.5164  0.0677 -0.1190
20043TIP3    H281621   5.049   4.229   2.876 -1.2262 -2.3199 -2.7089
20044TIP3   OH281622   6.154   6.273   4.708  0.1648 -0.0510 -0.4040
20044TIP3    H181623   6.152   6.309   4.620  2.6009  0.3865 -0.3434
20044TIP3    H281624   6.178   6.181   4.696  3.4312  0.6604 -0.1582
20045TIP3   OH281625   6.536   1.115   5.590 -0.5999  0.7770 -0.1895
20045TIP3    H181626   6.566   1.122   5.681 -0.7266 -1.8858  0.1592
20045TIP3    H281627   6.540   1.021   5.572  1.7458  1.4041 -3.7707
20046TIP3   OH281628   4.929   2.739   1.759 -0.2000 -0.3154  0.0177
20046TIP3    H181629   4.933   2.834   1.748  0.2779 -0.4686 -1.3061
20046TIP3    H281630   4.836   2.718   1.754 -0.1491 -0.1849 -2.5258
20047TIP3   OH281631   0.265   4.965  14.295  0.0033  0.1811  0.1529
20047TIP3    H181632   0.353   5.003  14.291  0.4062 -0.7578 -0.2128
20047TIP3    H281633   0.216   5.012  14.228  0.0259  1.1728  0.8064
20048TIP3   OH281634   3.665   3.383  11.867 -0.1690 -0.5158 -0.2160
20048TIP3    H181635   3.699   3.323  11.933  2.3410  0.1458 -0.8106
20048TIP3    H281636   3.687   3.470  11.900  0.0419 -0.1328 -1.3288
20049TIP3   OH281637   1.075   0.506   3.347  0.0066 -0.5398  0.5851
20049TIP3    H181638   1.110   0.528   3.433 -1.8643  1.2132  0.9515
20049TIP3    H281639   0.980   0.506   3.358 -0.2436 -1.9490 -1.1094
20050TIP3   OH281640   4.315   3.530   0.628  0.2000 -0.1447  0.1072
20050TIP3    H181641   4.250   3.588   0.587  0.6491 -1.0308 -2.0053
20050TIP3    H281642   4.399   3.569   0.604  0.5092  0.2372  1.6816
20051TIP3   OH281643   3.114   5.533  13.194  0.0621  0.2997  0.6890
20051TIP3    H181644   3.153   5.534  13.107 -2.2745 -1.5779 -0.4733
20051TIP3    H281645   3.028   5.572  13.183 -2.3107 -4.2294  0.9145
20052TIP3   OH281646   5.970   6.183  13.390  0.4728  0.5373  0.2285
20052TIP3    H181647   5.913   6.173  13.314  0.2614  0.0623  0.4453
20052TIP3    H281648   5.910   6.176  13.465  0.7146  0.7614  0.4455
20053TIP3   OH281649   2.143   5.183  16.132  0.0782 -0.7573 -0.4913
20053TIP3    H181650   2.190   5.163  16.213 -0.6905 -1.0152 -0.0970
20053TIP3    H281651   2.078   5.248  16.157 -0.3843 -1.0842 -0.8295
20054TIP3   OH281652   4.390   5.470   0.294  0.3887  0.5566 -0.2038
20054TIP3    H181653   4.380   5.439   0.204 -1.0476  1.0112 -0.2172
20054TIP3    H281654   4.463   5.532   0.290  0.8864 -0.0518 -0.8796
20055TIP3   OH281655   6.717   0.263  11.227  0.2329 -0.1630 -0.0061
20055TIP3    H181656   6.633   0.292  11.192  1.1104  0.6230 -1.5942
20055TIP3    H281657   6.697   0.229  11.314 -1.6463  0.4151 -0.1728
20056TIP3   OH281658   5.612   4.849   2.810  0.1379  0.7333  0.0009
20056TIP3    H181659   5.664   4.795   2.751 -0.1045  0.0936  0.3551
20056TIP3    H281660   5.591   4.927   2.760  0.2376  0.3579 -0.6338
20057TIP3   OH281661   1.854   5.514   2.085 -0.1655 -0.9078 -0.2861
20057TIP3    H181662   1.924   5.476   2.137  1.1447  0.0811 -1.2769
20057TIP3    H281663   1.797   5.557   2.149  2.2484  1.6839  0.3290
20058TIP3   OH281664   4.779   4.603   3.226 -0.2683  0.7889  0.4379
20058TIP3    H181665   4.802   4.621   3.318  1.6791 -0.9174  0.3478
20058TIP3    H281666   4.823   4.672   3.177 -0.6004  1.1965  0.6949
20059TIP3   OH281667   0.280   2.818   6.567  0.1226  0.3532 -0.5571
20059TIP3    H181668   0.358   2.853   6.610  0.1751 -0.8391  0.3690
20059TIP3    H281669   0.275   2.866   6.484 -0.1011  2.8811  0.8094
20060TIP3   OH281670   6.627   2.309   2.569 -0.2879  0.0645  0.0222
20060TIP3    H181671   6.603   2.344   2.655  0.0747  0.8841 -0.2006
20060TIP3    H281672   6.572   2.231   2.558  0.4133 -0.6729  1.4521
20061TIP3   OH281673   3.807   1.438   6.077 -0.0739 -0.0426  0.1845
20061TIP3    H181674   3.858   1.515   6.103  1.0416 -1.2339  1.7766
20061TIP3    H281675   3.838   1.416   5.990 -0.1103  1.0524 -0.1167
20062TIP3   OH281676   5.129   5.954  16.279  0.2273 -0.1527  0.0303
20062TIP3    H181677   5.175   5.936  16.197 -1.0645 -0.5561 -0.6335
20062TIP3    H281678   5.038   5.970  16.253 -0.1082  0.2017  1.3395
20063TIP3   OH281679   2.513   1.618  16.155  0.9648 -0.1492  0.0745
20063TIP3    H181680   2.537   1.608  16.063  0.7360 -0.7772  0.0802
20063TIP3    H281681   2.418   1.616  16.155  0.8942  1.5496  0.1417
20064TIP3   OH281682   0.014   4.822  16.437  0.1177 -0.2508 -0.0810
20064TIP3    H181683  -0.031   4.898  16.475  1.6993  0.4015  0.5798
20064TIP3    H281684   0.037   4.850  16.349 -2.7980 -1.4587 -1.3463
20065TIP3   OH281685   5.791   0.238  13.500 -0.1691 -0.1334  0.3458
20065TIP3    H181686   5.726   0.269  13.564  0.1179  0.1460  0.5035
20065TIP3    H281687   5.810   0.149  13.527 -1.4107 -0.6562 -0.4335
20066TIP3   OH281688   3.368   0.778  13.333  0.0561  0.0114  1.0302
20066TIP3    H181689   3.337   0.729  13.409  1.4886 -0.1970  1.4989
20066TIP3    H281690   3.373   0.869  13.364  0.7142 -0.0855  1.2145
20067TIP3   OH281691   5.836   1.385   2.954 -0.7800 -0.5147  0.1079
20067TIP3    H181692   5.818   1.301   2.910 -2.3427 -0.1225 -0.0799
20067TIP3    H281693   5.755   1.405   3.000 -0.0474  0.3807  1.0392
20068TIP3   OH281694   0.917   5.767  15.436  0.1094 -0.2708  0.1711
20068TIP3    H181695   0.956   5.687  15.470  1.3305  0.5863  0.8363
20068TIP3    H281696   0.850   5.791  15.500 -1.4376 -1.6107 -0.8523
20069TIP3   OH281697   6.485   0.460   4.053  0.1039 -0.5325  0.4733
20069TIP3    H181698   6.501   0.515   4.130 -0.2304  0.4759 -0.1578
20069TIP3    H281699   6.417   0.507   4.004  0.7377 -0.8493 -0.7384
20070TIP3   OH281700   3.248   3.802  13.296  0.3477  0.1386 -0.0356
20070TIP3    H181701   3.199   3.870  13.251  2.1519  0.5856 -1.4568
20070TIP3    H281702   3.300   3.849  13.361 -2.5352 -0.5375  3.0121
20071TIP3   OH281703   1.828   5.825   5.569 -0.2640  0.2298  0.1659
20071TIP3    H181704   1.816   5.751   5.510 -1.0770  0.0422  0.5604
20071TIP3    H281705   1.891   5.881   5.524  0.7442 -0.9216  0.0725
20072TIP3   OH281706   5.590   4.401   2.768 -0.5770  0.1194 -0.1018
20072TIP3    H181707   5.518   4.368   2.714  0.0485 -1.6315  0.0753
20072TIP3    H281708   5.624   4.475   2.719  0.0387 -1.4749 -2.2187
20073TIP3   OH281709   6.289   2.664   2.954  0.6136  0.0887 -0.2723
20073TIP3    H181710   6.375   2.706   2.964  0.5185  0.5438 -1.3049
20073TIP3    H281711   6.240   2.723   2.897 -0.0989 -0.6015 -0.3845
20074TIP3   OH281712   2.150   6.365  15.101  0.3208 -0.5950  0.5140
20074TIP3    H181713   2.137   6.418  15.022  0.8258 -1.0390  0.1250
20074TIP3    H281714   2.208   6.419  15.155 -0.1475 -0.2232  0.6548
20075TIP3   OH281715   0.457   0.790   4.423  0.2313  0.3451 -0.2082
20075TIP3    H181716   0.387   0.816   4.363  1.2027  0.8697 -1.1429
20075TIP3    H281717   0.504   0.721   4.376 -0.1940 -0.6866  0.8070
20076TIP3   OH281718   5.040   6.757   5.636  0.1185 -0.0853  0.1079
20076TIP3    H181719   4.956   6.761   5.589 -0.3447 -2.4715  0.6281
20076TIP3    H281720   5.016   6.762   5.729  0.4140 -1.8818  0.3060
20077TIP3   OH281721   6.664   1.630  16.560  0.0071  0.0183 -0.0673
20077TIP3    H181722   6.583   1.661  16.600 -0.6084  0.5935 -1.6800
20077TIP3    H281723   6.660   1.535  16.570 -1.6737 -0.1123 -1.5193
20078TIP3   OH281724   6.767   0.655   5.385  0.2501  0.3975  0.5295
20078TIP3    H181725   6.684   0.701   5.397  0.3692  0.5177  0.9039
20078TIP3    H281726   6.761   0.579   5.442  0.2526  0.2110  0.2824
20079TIP3   OH281727   3.602   2.506   1.403 -0.2561 -0.5964 -0.0640
20079TIP3    H181728   3.566   2.418   1.397  0.1913 -0.8000  0.1947
20079TIP3    H281729   3.603   2.538   1.313  0.6147 -1.2790 -0.3170
20080TIP3   OH281730   1.271   3.529  16.815  0.3641 -0.1086  0.2348
20080TIP3    H181731   1.226   3.445  16.805 -1.2530  0.8375 -0.8390
20080TIP3    H281732   1.352   3.507  16.862 -1.0600 -1.9421  2.0206
20081TIP3   OH281733   5.788   2.010  13.908 -0.5431  0.3667  0.6727
20081TIP3    H181734   5.742   2.059  13.976  1.3039  0.8633  1.6286
20081TIP3    H281735   5.794   2.072  13.835 -0.9060  0.4851  0.7395
20082TIP3   OH281736   1.017   6.364  11.122  0.0976 -0.8072 -0.1809
20082TIP3    H181737   1.101   6.395  11.088 -1.8482  2.6338 -2.4158
20082TIP3    H281738   1.006   6.411  11.204  0.5964 -1.8658  0.5268
20083TIP3   OH281739   1.144   1.055   0.393 -0.0434 -0.4265  0.3424
20083TIP3    H181740   1.067   1.091   0.348  0.0088  1.9409  1.9146
20083TIP3    H281741   1.198   1.132   0.412  1.6074 -1.7590  1.3471
20084TIP3   OH281742   0.216   1.764   6.507  0.8831  0.0010 -0.2091
20084TIP3    H181743   0.241   1.676   6.534  1.7691  0.4755  0.6039
20084TIP3    H281744   0.185   1.806   6.588 -0.7147  0.0622 -0.8261
20085TIP3   OH281745   6.727   3.509  12.177  0.3827 -0.0955 -0.0413
20085TIP3    H181746   6.710   3.416  12.159  0.4130 -0.3230  1.0134
20085TIP3    H281747   6.722   3.516  12.272  0.2532  1.0197 -0.1137
20086TIP3   OH281748   6.590   4.445   1.185 -0.2097  0.1030 -0.9369
20086TIP3    H181749   6.606   4.352   1.170  0.9441  0.1461 -0.0642
20086TIP3    H281750   6.495   4.455   1.174 -0.3000 -1.0984 -1.3798
20087TIP3   OH281751   0.548   6.526   5.294  0.4981 -0.1034  0.1540
20087TIP3    H181752   0.533   6.473   5.372 -0.4710 -0.6160 -0.3604
20087TIP3    H281753   0.643   6.537   5.290  0.5172  0.6008  1.8254
20088TIP3   OH281754   3.471   2.787  13.803 -0.2973  0.2884  0.5665
20088TIP3    H181755   3.425   2.733  13.868 -0.5669 -0.7082 -0.4283
20088TIP3    H281756   3.420   2.868  13.799 -2.8079 -1.2604 -1.4238
20089TIP3   OH281757   0.705   2.003   0.343 -0.2511  0.6894 -0.6534
20089TIP3    H181758   0.690   2.011   0.437  0.8246 -0.2085 -0.3831
20089TIP3    H281759   0.736   2.089   0.316  1.2415  0.4572  0.1958
20090TIP3   OH281760   3.232   4.635   5.074  0.5215  0.5131  0.4154
20090TIP3    H181761   3.321   4.600   5.071 -0.2030 -1.6561  1.5144
20090TIP3    H281762   3.205   4.624   5.165 -1.7226 -1.3203 -0.3668
20091TIP3   OH281763   4.001   0.081   5.102 -0.0824  0.1922  0.0527
20091TIP3    H181764   4.052   0.020   5.155 -1.2507 -0.7949  0.0683
20091TIP3    H281765   4.009   0.165   5.147 -0.0099 -0.3509  1.0746
20092TIP3   OH281766   2.637   1.757   1.846 -0.3134 -0.3691  0.0780
20092TIP3    H181767   2.690   1.820   1.797 -0.6839 -1.1814 -1.4195
20092TIP3    H281768   2.701   1.695   1.882 -0.1353 -0.6263 -0.6626
20093TIP3   OH281769   3.117   0.765   3.700  0.5193  0.2096  0.2286
20093TIP3    H181770   3.211   0.753   3.717  0.5153 -0.7856 -0.3977
20093TIP3    H281771   3.082   0.676   3.695 -0.3694  0.5643 -0.0645
20094TIP3   OH281772   0.262   4.092  11.987  0.0545  0.5525 -0.1942
20094TIP3    H181773   0.357   4.082  11.994  0.1402  0.7404 -0.9862
20094TIP3    H281774   0.231   4.089  12.077  0.3128 -4.0259 -0.0188
20095TIP3   OH281775   4.843   1.867   0.990 -0.0978 -0.2984 -0.1227
20095TIP3    H181776   4.853   1.878   1.085  0.0140  0.6804 -0.2306
20095TIP3    H281777   4.928   1.834   0.961 -0.5455 -1.8532  0.2715
20096TIP3   OH281778   3.737   0.747   0.818 -0.7131 -0.5917 -0.1440
20096TIP3    H181779   3.814   0.787   0.777 -1.5247 -0.3022 -1.4241
20096TIP3    H281780   3.681   0.721   0.745 -1.9665 -0.5410  0.7616
20097TIP3   OH281781   4.981   3.414   5.081  0.1586  0.0605 -0.1897
20097TIP3    H181782   4.894   3.380   5.100  0.6757 -1.2057  0.0330
20097TIP3    H281783   4.975   3.447   4.991 -0.4055 -0.5926 -0.4015
20098TIP3   OH281784   3.697   6.679   1.868  0.3333  0.5112  0.6190
20098TIP3    H181785   3.638   6.659   1.941  0.1877 -0.6392  0.1963
20098TIP3    H281786   3.639   6.692   1.793  0.5986 -3.5318 -0.5177
20099TIP3   OH281787   4.965   5.032  17.218 -0.4008  0.2411  0.5378
20099TIP3    H181788   4.982   4.942  17.245 -2.0485  0.0956  1.2355
20099TIP3    H281789   5.042   5.081  17.247  0.7865 -1.0102 -0.3826
20100TIP3   OH281790   5.738   2.417   3.057 -0.1154  0.4608 -0.2163
20100TIP3    H181791   5.651   2.436   3.091  0.4270  0.6544  1.1334
20100TIP3    H281792   5.768   2.500   3.020  0.8981  1.4776  2.6126
20101TIP3   OH281793   0.552   3.262   3.761  0.0411 -0.2091 -0.4551
20101TIP3    H181794   0.573   3.348   3.798 -0.0118 -0.4983  0.2587
20101TIP3    H281795   0.619   3.203   3.795 -0.5698 -0.6704 -0.0246
20102TIP3   OH281796   5.960   2.405   3.279  0.0498 -0.4631 -0.1679
20102TIP3    H181797   5.910   2.409   3.197 -0.9708 -0.3738  0.4393
20102TIP3    H281798   5.993   2.316   3.283  0.8640 -0.2164 -1.1055
20103TIP3   OH281799   2.450   5.539  11.051  0.4241 -0.3331 -0.4066
20103TIP3    H181800   2.497   5.529  10.968 -1.8438 -1.7185 -1.6253
20103TIP3    H281801   2.398   5.619  11.040  0.1821 -0.4730 -0.2868
20104TIP3   OH281802   6.284   5.165  13.000  0.0169  0.0482 -0.0829
20104TIP3    H181803   6.341   5.111  12.945  1.7197  2.5267 -0.9058
20104TIP3    H281804   6.240   5.102  13.058  1.2619 -2.2523 -1.4927
20105TIP3   OH281805   2.067   0.095   2.388  0.2842  0.3841 -0.0639
20105TIP3    H181806   2.027   0.009   2.378 -1.7100  1.3023 -0.4102
20105TIP3    H281807   2.123   0.105   2.310 -0.8228  0.0844 -0.9150
20106TIP3   OH281808   4.064   1.716   3.416 -0.1817 -0.7901 -0.1375
20106TIP3    H181809   4.107   1.680   3.493  1.8499  0.5222 -0.5947
20106TIP3    H281810   4.071   1.810   3.425  0.0415 -0.5933 -1.8770
20107TIP3   OH281811   3.597   3.757  12.212 -0.4437  0.5518 -0.0087
20107TIP3    H181812   3.684   3.795  12.225 -1.5269  2.9559  0.6918
20107TIP3    H281813   3.571   3.726  12.299 -0.4495  0.1522 -0.1490
20108TIP3   OH281814   3.765   0.411   0.716 -0.0266  0.0414 -0.7057
20108TIP3    H181815   3.858   0.413   0.738  0.1707 -0.2417 -1.4912
20108TIP3    H281816   3.761   0.436   0.623 -0.7854  0.6584 -0.5266
20109TIP3   OH281817   4.023   1.017  14.322  1.0309 -0.6769 -0.1822
20109TIP3    H181818   4.063   1.097  14.356  2.0406 -1.0515 -0.4317
20109TIP3    H281819   3.938   1.045  14.289  0.4501 -0.1095  1.6562
20110TIP3   OH281820   3.186   1.852  10.909 -0.1218  0.0868  0.1995
20110TIP3    H181821   3.206   1.832  10.818  0.5232  0.6079  0.2194
20110TIP3    H281822   3.097   1.888  10.906  0.8026  2.5204 -0.6035
20111TIP3   OH281823   6.499   3.313  12.825  0.0124  0.3943 -0.1082
20111TIP3    H181824   6.579   3.268  12.853 -0.1237  0.8983  1.1679
20111TIP3    H281825   6.531   3.393  12.783  0.1889  0.8757  0.9080
20112TIP3   OH281826   4.119   0.178   2.084 -0.6305 -0.1608 -0.9424
20112TIP3    H181827   4.092   0.268   2.102 -0.8825 -0.3815 -0.1563
20112TIP3    H281828   4.182   0.185   2.013  1.5499  0.9496  0.9509
20113TIP3   OH281829   0.339   6.692   5.481 -0.5149  0.3317 -0.4844
20113TIP3    H181830   0.338   6.605   5.440  1.1342  0.2143 -0.3433
20113TIP3    H281831   0.263   6.737   5.445 -1.1560 -1.0250 -0.8826
20114TIP3   OH281832   2.652   1.487  11.164  0.0643  0.3523 -0.1401
20114TIP3    H181833   2.599   1.415  11.130 -0.6997  0.4585  0.7703
20114TIP3    H281834   2.694   1.525  11.087 -0.5470 -0.2483 -0.7819
20115TIP3   OH281835   0.898   3.611  17.067 -0.6460 -0.0863 -0.3503
20115TIP3    H181836   0.901   3.519  17.041  0.4892 -0.1535 -0.0393
20115TIP3    H281837   0.898   3.659  16.985 -0.6886 -0.3573 -0.5120
20116TIP3   OH281838   2.136   0.766  14.115 -0.2725 -0.5944 -0.4296
20116TIP3    H181839   2.106   0.694  14.060  2.2075 -1.8393 -0.3072
20116TIP3    H281840   2.198   0.814  14.059 -0.0062 -0.0778  0.2959
20117TIP3   OH281841   6.596   6.369  12.616 -0.1019 -0.2026  0.0645
20117TIP3    H181842   6.654   6.293  12.614 -0.7695 -0.7298  0.3712
20117TIP3    H281843   6.646   6.436  12.663 -0.2039 -1.0611  1.4431
20118TIP3   OH281844   2.569   3.732   6.332 -0.2081 -0.0972 -0.2604
20118TIP3    H181845   2.651   3.761   6.293 -0.5432 -1.2811 -1.9054
20118TIP3    H281846   2.594   3.662   6.392  0.4024  2.2493  2.4495
20119TIP3   OH281847   1.946   5.002  12.366  0.0758 -0.3398 -0.4642
20119TIP3    H181848   1.866   5.039  12.329  0.6648  3.0447  1.3349
20119TIP3    H281849   1.942   5.023  12.459  3.3484  0.5639 -0.4153
20120TIP3   OH281850   4.324   3.926   0.889  0.1702  0.1759 -0.9022
20120TIP3    H181851   4.314   3.833   0.913  1.0629 -0.4514 -2.7363
20120TIP3    H281852   4.238   3.964   0.907  0.4777 -0.3664  2.2370
20121TIP3   OH281853   0.405   0.795   3.735  0.1352 -0.3911 -1.3986
20121TIP3    H181854   0.335   0.736   3.763  0.3603 -0.3424 -0.7115
20121TIP3    H281855   0.427   0.767   3.647  1.0349 -2.0952 -0.6670
20122TIP3   OH281856   4.117   4.162  12.193 -0.1801  0.4356 -0.4078
20122TIP3    H181857   4.164   4.212  12.126  0.5915 -0.3057 -0.4452
20122TIP3    H281858   4.074   4.229  12.247  2.2098  1.3148  0.5879
20123TIP3   OH281859   2.181   1.068   1.365  0.2516 -0.6568 -0.6115
20123TIP3    H181860   2.229   1.131   1.311  0.1225 -0.1200 -0.1080
20123TIP3    H281861   2.125   1.122   1.421 -0.5401 -1.2591 -0.8076
20124TIP3   OH281862   0.147   6.656   0.429 -0.1790  0.0656 -0.3769
20124TIP3    H181863   0.228   6.708   0.421  1.4706 -2.3327 -0.1238
20124TIP3    H281864   0.141   6.635   0.522  0.2361 -1.7109 -0.7186
20125TIP3   OH281865   2.371   0.755  13.260 -0.2039 -0.1738 -0.2451
20125TIP3    H181866   2.452   0.736  13.307  1.4563  0.0521 -2.8425
20125TIP3    H281867   2.338   0.669  13.234  0.1994 -0.1686 -0.7705
20126TIP3   OH281868   6.062   2.186   1.861  0.0013 -0.4616 -0.0035
20126TIP3    H181869   6.017   2.175   1.944  1.0204  0.4435  0.7016
20126TIP3    H281870   6.007   2.246   1.811  0.0442  0.0535  0.5568
20127TIP3   OH281871   4.711   1.779  14.863  0.5049  0.1924  0.6259
20127TIP3    H181872   4.791   1.806  14.908  0.2708 -1.0616  1.8633
20127TIP3    H281873   4.692   1.691  14.897 -0.6589 -0.0984 -0.6475
20128TIP3   OH281874   1.006   5.886  14.008  0.4191  0.4937  0.1780
20128TIP3    H181875   0.947   5.828  13.960 -1.4799  2.3778  0.0341
20128TIP3    H281876   0.948   5.951  14.047  2.3283  1.6852  1.1942
20129TIP3   OH281877   6.561   0.827   2.261  0.3218  0.7346 -0.2314
20129TIP3    H181878   6.551   0.746   2.312 -1.0306  0.0333 -1.5549
20129TIP3    H281879   6.647   0.818   2.219  1.2980  1.1643  1.5873
20130TIP3   OH281880   2.221   6.669   2.682  0.0868  0.0428  0.3660
20130TIP3    H181881   2.213   6.590   2.736  0.9702  1.7184  3.2122
20130TIP3    H281882   2.315   6.688   2.682  0.0135  0.5324 -1.1977
20131TIP3   OH281883   4.895   4.158   0.850  0.8420  0.7023 -0.1498
20131TIP3    H181884   4.903   4.225   0.782 -0.4869  0.6574 -0.3715
20131TIP3    H281885   4.825   4.190   0.908  0.7992 -0.0672  0.2341
20132TIP3   OH281886   1.109   0.071  12.205 -0.1446 -0.2517  0.7111
20132TIP3    H181887   1.169   0.013  12.251 -0.6504 -1.4135 -0.0686
20132TIP3    H281888   1.101   0.034  12.117  0.9266  2.0077 -0.4199
20133TIP3   OH281889   0.943   2.193   5.785  0.0953  0.3551  0.5023
20133TIP3    H181890   0.942   2.201   5.690 -1.0960 -0.8380  0.3654
20133TIP3    H281891   1.026   2.151   5.805 -0.1349 -0.4497 -0.1565
20134TIP3   OH281892   0.779   5.909  16.585 -0.2058  0.0149  0.0207
20134TIP3    H181893   0.687   5.929  16.600 -0.0601 -0.0773  1.1773
20134TIP3    H281894   0.822   5.995  16.584 -0.2469  0.0346 -0.1017
20135TIP3   OH281895   3.790   0.439   6.578  0.1778  0.2681  0.0548
20135TIP3    H181896   3.787   0.530   6.549  1.6457  0.7340  1.2288
20135TIP3    H281897   3.861   0.400   6.527 -2.8069 -1.4135 -3.3302
20136TIP3   OH281898   2.648   2.077   6.199 -0.1906 -0.5480  0.0488
20136TIP3    H181899   2.626   2.107   6.287 -0.7021 -0.9449  0.0634
20136TIP3    H281900   2.622   2.149   6.142 -3.2663 -1.6084 -0.1105
20137TIP3   OH281901   3.425   0.882   4.712  0.4921 -0.2644 -0.4821
20137TIP3    H181902   3.412   0.957   4.770 -0.0136 -1.8451  1.5750
20137TIP3    H281903   3.346   0.881   4.657 -0.4072 -0.3499  0.7668
20138TIP3   OH281904   2.044   3.662  15.954 -0.4537 -0.4152  0.1269
20138TIP3    H181905   2.016   3.592  15.894 -0.1630 -0.0734 -0.4203
20138TIP3    H281906   2.139   3.664  15.945 -0.1646 -1.7495  2.1652
20139TIP3   OH281907   0.661   0.330  13.121 -0.7346 -0.4678  0.0951
20139TIP3    H181908   0.661   0.309  13.215  0.6866  2.7827  0.9938
20139TIP3    H281909   0.738   0.285  13.087  0.1144  0.1749  1.0831
20140TIP3   OH281910   0.490   2.832   1.203  0.4146  0.3019  0.4066
20140TIP3    H181911   0.483   2.915   1.157  0.4890  0.9790  1.5861
20140TIP3    H281912   0.399   2.808   1.222  0.2960 -0.5630 -1.0403
20141TIP3   OH281913   4.032   4.461   2.368 -0.2547 -0.0301  0.1209
20141TIP3    H181914   3.937   4.461   2.357 -0.3523 -2.0931  0.5800
20141TIP3    H281915   4.045   4.479   2.461 -0.1494  0.8274 -0.0510
20142TIP3   OH281916   0.168   3.787  12.345  0.1932 -0.2699 -0.0791
20142TIP3    H181917   0.165   3.692  12.339 -0.4674 -0.3250  0.9927
20142TIP3    H281918   0.235   3.806  12.411 -1.1466 -0.0842  1.2808
20143TIP3   OH281919   3.610   4.231   5.906  0.4540  0.7742  0.3167
20143TIP3    H181920   3.661   4.256   5.984  1.8350  2.6698 -1.0957
20143TIP3    H281921   3.541   4.297   5.901  0.5900  0.8724 -0.2599
20144TIP3   OH281922   3.433   1.095   3.756 -0.3616 -0.2725 -0.0192
20144TIP3    H181923   3.369   1.059   3.694 -2.1361  1.7517  0.5150
20144TIP3    H281924   3.515   1.052   3.733 -1.2273 -0.6289 -2.8624
20145TIP3   OH281925   3.401   3.473   6.008  0.1523 -0.3122 -0.3039
20145TIP3    H181926   3.494   3.450   6.011  0.6451  1.4068 -1.0459
20145TIP3    H281927   3.359   3.414   6.070  1.9541 -0.1685  1.1151
20146TIP3   OH281928   3.949   1.491   5.059  0.4465  0.1810 -0.4124
20146TIP3    H181929   3.994   1.461   5.138 -0.2878  0.7011  0.2198
20146TIP3    H281930   3.993   1.573   5.036  0.6782  0.0156 -0.5606
20147TIP3   OH281931   1.229   5.407  14.558  0.1462 -0.2420  0.3827
20147TIP3    H181932   1.260   5.317  14.557 -0.0745 -0.3199  0.0132
20147TIP3    H281933   1.269   5.446  14.480 -0.4120 -0.2563  0.0793
20148TIP3   OH281934   1.166   2.670   4.816  0.0102  0.0563 -0.5303
20148TIP3    H181935   1.216   2.751   4.806 -2.1961  1.3238 -1.9723
20148TIP3    H281936   1.227   2.601   4.788  1.4610  1.3246 -0.6278
20149TIP3   OH281937   1.341   1.442   2.401 -0.3383  0.9732  0.5490
20149TIP3    H181938   1.249   1.443   2.374 -0.2791 -3.3756 -0.6650
20149TIP3    H281939   1.388   1.412   2.323  1.9885  1.9547  1.4775
20150TIP3   OH281940   1.051   1.859  14.653  0.2377 -0.0138 -0.0728
20150TIP3    H181941   1.055   1.939  14.705  0.8845 -0.9682  1.4198
20150TIP3    H281942   1.090   1.882  14.569  1.5998  0.9299  0.7826
20151TIP3   OH281943   6.049   0.795  11.919 -0.4373  0.7518  0.1268
20151TIP3    H181944   6.126   0.745  11.888 -0.5695 -0.3595  1.4897
20151TIP3    H281945   6.080   0.885  11.925  1.0185  0.2173  1.3570
20152TIP3   OH281946   3.517   4.729  12.656 -0.2265  0.3456 -0.1748
20152TIP3    H181947   3.557   4.775  12.582  0.5559  0.6271  0.4070
20152TIP3    H281948   3.531   4.787  12.731 -0.8709 -0.0046  0.2262
20153TIP3   OH281949   4.730   0.927  14.695 -0.4859 -0.1729  0.0738
20153TIP3    H181950   4.778   0.880  14.763  0.1076  2.0141  1.2770
20153TIP3    H281951   4.775   0.905  14.613  0.4999 -0.7383  0.7490
20154TIP3   OH281952   1.905   1.554  14.664  0.7606  0.1912  0.9075
20154TIP3    H181953   1.895   1.586  14.754 -2.2991  1.8118  0.1574
20154TIP3    H281954   1.962   1.618  14.622  1.7776 -0.2797  1.5524
20155TIP3   OH281955   1.751   6.100   1.571 -0.1839 -0.1756  0.7136
20155TIP3    H181956   1.697   6.035   1.615  0.0350 -2.5351 -2.1991
20155TIP3    H281957   1.783   6.056   1.492  2.9986  2.3220  0.3926
20156TIP3   OH281958   0.224   5.699  11.220 -0.3664 -0.2023 -0.4907
20156TIP3    H181959   0.177   5.681  11.301 -1.1781 -0.0743 -0.9204
20156TIP3    H281960   0.241   5.793  11.222 -0.9624 -0.0859 -0.7652
20157TIP3   OH281961   0.554   6.041  13.001 -0.0154  0.1981  0.1263
20157TIP3    H181962   0.646   6.020  12.989 -0.1684 -1.6811  1.7654
20157TIP3    H281963   0.553   6.111  13.067  0.2226 -1.6100  2.1539
20158TIP3   OH281964   2.786   5.923   1.798  0.3926 -0.2768 -0.2172
20158TIP3    H181965   2.737   5.981   1.739  3.4836  0.7655 -1.9899
20158TIP3    H281966   2.753   5.944   1.885 -1.1540  1.4791 -1.1551
20159TIP3   OH281967   4.361   5.506   4.434 -0.2198 -0.2678 -0.2882
20159TIP3    H181968   4.445   5.552   4.427 -0.4910  0.8631  2.4461
20159TIP3    H281969   4.382   5.415   4.416  1.0714  0.3536 -2.2023
20160TIP3   OH281970   5.742   1.671  13.457 -0.2105  0.1456  0.0467
20160TIP3    H181971   5.704   1.664  13.369  0.1551  3.4093 -0.5174
20160TIP3    H281972   5.689   1.738  13.500  0.4561 -0.4334  1.8730
20161TIP3   OH281973   5.692   4.820   5.216  0.3083 -0.1424  0.0195
20161TIP3    H181974   5.613   4.874   5.211  0.0698 -0.5534 -3.0512
20161TIP3    H281975   5.707   4.807   5.309 -1.4182  2.5693  0.7914
20162TIP3   OH281976   4.526   4.768  14.468  0.7882  0.3190  0.4561
20162TIP3    H181977   4.485   4.851  14.492  1.0036  0.4890  0.2545
20162TIP3    H281978   4.516   4.763  14.373  1.2095  0.3536  0.4058
20163TIP3   OH281979   0.944   3.280   4.305  0.3743 -0.1127 -0.3032
20163TIP3    H181980   1.018   3.219   4.301  0.7590  0.4018 -1.7519
20163TIP3    H281981   0.870   3.227   4.334  1.3089 -0.6212  1.2662
20164TIP3   OH281982   1.564   4.853   0.357 -0.7060 -0.5047 -0.2655
20164TIP3    H181983   1.573   4.940   0.318 -1.9646 -0.5828 -0.7750
20164TIP3    H281984   1.574   4.868   0.451 -0.4171  0.1077 -0.3886
20165TIP3   OH281985   1.518   5.665   2.833  0.3670  0.0009  0.3131
20165TIP3    H181986   1.534   5.584   2.881  0.4150  0.2589  0.7299
20165TIP3    H281987   1.582   5.727   2.867 -1.6091  1.1379  2.2058
20166TIP3   OH281988   2.297   3.649   5.286  0.1766  0.2685 -0.2575
20166TIP3    H181989   2.255   3.712   5.228  2.4514  0.8054 -1.4192
20166TIP3    H281990   2.282   3.564   5.246  2.8531  0.7274 -2.5616
20167TIP3   OH281991   3.784   3.206   0.911  0.0050  1.0936 -0.1022
20167TIP3    H181992   3.704   3.242   0.871 -0.0432  0.1865 -0.8606
20167TIP3    H281993   3.762   3.199   1.004 -0.7127  1.1110 -0.2578
20168TIP3   OH281994   2.306   1.732   6.242 -0.0606  0.5541 -0.8131
20168TIP3    H181995   2.340   1.714   6.155 -0.4556 -0.5198 -0.7666
20168TIP3    H281996   2.253   1.655   6.263  1.5718 -0.1361  1.1512
20169TIP3   OH281997   4.747   2.793  11.834 -0.3113 -0.2659  0.4548
20169TIP3    H181998   4.764   2.833  11.920  0.3084 -1.5021  0.9413
20169TIP3    H281999   4.800   2.844  11.773  0.7450 -0.5228  1.1117
20170TIP3   OH282000   6.261   1.370   1.894 -0.1869  0.4875 -0.1026
20170TIP3    H182001   6.198   1.376   1.966  1.4483  0.1924  1.4286
20170TIP3    H282002   6.328   1.309   1.925  0.7576  0.6222 -1.7372
20171TIP3   OH282003   0.751   4.166  17.004 -0.7293 -0.1681  0.7715
20171TIP3    H182004   0.806   4.095  16.973  0.0758  0.6419  0.3017
20171TIP3    H282005   0.714   4.205  16.925 -2.7803 -1.2755  1.1042
20172TIP3   OH282006   3.970   3.041   1.719 -0.3468 -0.0863 -0.6993
20172TIP3    H182007   3.994   3.097   1.646 -0.1648  1.7790  0.7095
20172TIP3    H282008   3.883   3.072   1.745  0.3851  0.6620  1.0625
20173TIP3   OH282009   6.389   6.745  11.149 -0.0399 -0.1926  0.2673
20173TIP3    H182010   6.310   6.695  11.130  0.4598 -0.6048 -0.8336
20173TIP3    H282011   6.374   6.832  11.112  0.0468 -0.2973 -0.0186
20174TIP3   OH282012   6.215   0.043   1.679 -0.3289  0.7112 -0.1600
20174TIP3    H182013   6.171  -0.037   1.653 -0.8832  0.9781 -0.0514
20174TIP3    H282014   6.298   0.041   1.632 -0.9406  0.7562 -1.2696
20175TIP3   OH282015   0.703   6.211   2.547 -0.3154  0.8064  0.4759
20175TIP3    H182016   0.731   6.127   2.582  1.3601  1.3993  0.6688
20175TIP3    H282017   0.608   6.206   2.545 -0.2734 -0.8483  1.0671
20176TIP3   OH282018   2.179   5.459  15.141 -0.2092 -0.2247  0.2287
20176TIP3    H182019   2.115   5.528  15.153 -0.3140 -0.2474 -0.1650
20176TIP3    H282020   2.155   5.418  15.058  0.2334 -0.3167  0.1383
20177TIP3   OH282021   2.681   1.606   1.585 -0.2118  0.0802  0.1940
20177TIP3    H182022   2.670   1.603   1.490  1.5933  1.6344 -0.1279
20177TIP3    H282023   2.598   1.574   1.620 -1.1623  0.0940 -1.8955
20178TIP3   OH282024   0.247   1.345  14.794  0.2087  0.0870  0.0025
20178TIP3    H182025   0.265   1.370  14.885 -2.0032  0.0874  0.5047
20178TIP3    H282026   0.206   1.422  14.756 -0.6451 -0.5451 -0.3962
20179TIP3   OH282027   3.159   0.844   4.590  0.1486  0.3977  0.2489
20179TIP3    H182028   3.100   0.850   4.666  1.3193 -0.3888  1.2517
20179TIP3    H282029   3.166   0.934   4.559 -0.5269  0.7054  0.9442
20180TIP3   OH282030   5.767   2.447  16.649  0.3322  0.0300 -0.1739
20180TIP3    H182031   5.844   2.503  16.661  1.4583 -1.7522  1.4628
20180TIP3    H282032   5.700   2.486  16.706  0.9856 -0.0522  0.6687
20181TIP3   OH282033   5.830   3.960   5.507  0.5913 -0.5709 -0.8307
20181TIP3    H182034   5.909   3.973   5.558  0.9103  0.1273 -1.4976
20181TIP3    H282035   5.781   4.042   5.515 -1.0786 -1.6658  1.2654
20182TIP3   OH282036   5.898   6.738  16.244  0.2128  0.2110 -0.0037
20182TIP3    H182037   5.950   6.712  16.320 -0.0541  1.1074  0.4987
20182TIP3    H282038   5.920   6.674  16.177  0.8163 -0.3113  0.6795
20183TIP3   OH282039   5.599   0.033   5.880 -0.3530  0.0501  0.3336
20183TIP3    H182040   5.563  -0.045   5.838 -1.6724  0.5733  0.4203
20183TIP3    H282041   5.583   0.020   5.974  0.7647 -0.2200  0.5006
20184TIP3   OH282042   3.168   5.590   5.002 -0.5725 -0.3826  0.1143
20184TIP3    H182043   3.162   5.581   4.907 -1.9531  1.9201 -0.0847
20184TIP3    H282044   3.080   5.574   5.034 -0.4641  0.3922  0.8360
20185TIP3   OH282045   4.112   4.835   0.935  0.2309  0.2888  0.6403
20185TIP3    H182046   4.111   4.799   1.024  2.3065 -0.4164  0.4267
20185TIP3    H282047   4.202   4.866   0.923  0.0088  0.2811 -1.2658
20186TIP3   OH282048   6.057   0.257   1.785 -0.0497  0.0567 -0.1019
20186TIP3    H182049   6.115   0.187   1.815  0.2465  1.0585  1.8025
20186TIP3    H282050   5.978   0.247   1.837 -0.2684  0.7162 -0.2932
20187TIP3   OH282051   5.338   4.883  11.948  0.4100 -0.2453  0.4337
20187TIP3    H182052   5.359   4.875  11.855  0.9351 -0.1507  0.5388
20187TIP3    H282053   5.283   4.961  11.954  1.2218  0.3457  0.3321
20188TIP3   OH282054   1.082   5.743  12.661  0.3604 -0.3002 -0.2830
20188TIP3    H182055   1.017   5.776  12.723  0.4747 -0.5120 -0.0471
20188TIP3    H282056   1.053   5.775  12.576  0.3746  0.2603 -0.0805
20189TIP3   OH282057   0.466   4.510   1.322  0.1463 -0.6263 -0.2077
20189TIP3    H182058   0.386   4.461   1.301  0.1591 -0.7151 -0.0491
20189TIP3    H282059   0.510   4.456   1.388  0.2986 -0.5385 -0.2385
20190TIP3   OH282060   3.068   4.424  12.699 -0.0955  1.0850 -0.0655
20190TIP3    H182061   3.011   4.500  12.711 -0.4045  0.6337  1.5103
20190TIP3    H282062   3.156   4.459  12.708 -0.2631  1.0798  2.0448
20191TIP3   OH282063   6.486   0.477   2.115  0.2575  0.0780 -0.6182
20191TIP3    H182064   6.464   0.550   2.058  0.4561  0.9617  0.3916
20191TIP3    H282065   6.534   0.416   2.059  2.2080  1.8136 -0.9914
20192TIP3   OH282066   1.519   0.353  16.775 -0.2158 -0.7319 -0.3156
20192TIP3    H182067   1.484   0.409  16.845  0.0593 -1.0994  0.1274
20192TIP3    H282068   1.541   0.271  16.820 -0.0260 -0.9661 -0.8371
20193TIP3   OH282069   0.172   0.913  13.130 -0.5244 -0.2558 -0.4497
20193TIP3    H182070   0.106   0.871  13.074 -0.1855  0.3411 -1.3244
20193TIP3    H282071   0.142   0.896  13.219 -1.0262 -1.3262 -0.8016
20194TIP3   OH282072   1.447   6.807   3.646 -0.0533 -0.7895 -0.1238
20194TIP3    H182073   1.539   6.809   3.618 -1.0353  0.5323 -3.8176
20194TIP3    H282074   1.409   6.734   3.598 -1.0875 -0.8970  0.8353
20195TIP3   OH282075   5.597   5.125   2.663 -0.1475 -0.1938  0.1011
20195TIP3    H182076   5.675   5.172   2.635 -1.4285  2.4063  0.5622
20195TIP3    H282077   5.540   5.192   2.699 -2.3075 -2.0920  0.4957
20196TIP3   OH282078   4.111   0.772  12.199 -0.2534 -0.0538 -0.1312
20196TIP3    H182079   4.052   0.721  12.144 -0.9960  0.7240 -0.0767
20196TIP3    H282080   4.062   0.785  12.280  1.6046 -3.0458  1.6858
20197TIP3   OH282081   2.376   3.210  12.182 -0.0881  0.0481 -0.4651
20197TIP3    H182082   2.366   3.305  12.176  0.9005  0.2352  0.4413
20197TIP3    H282083   2.296   3.180  12.225 -0.8968  0.3201 -1.7275
20198TIP3   OH282084   2.131   5.195   0.442  0.0508 -0.1972  0.5179
20198TIP3    H182085   2.199   5.224   0.382 -2.4704  1.1200 -1.9149
20198TIP3    H282086   2.147   5.102   0.455  1.8501 -0.0666 -0.5257
20199TIP3   OH282087   1.230   2.767  16.833 -0.0349  0.2957 -0.8995
20199TIP3    H182088   1.253   2.686  16.879  1.6561  1.1119 -0.1848
20199TIP3    H282089   1.265   2.756  16.745  0.5539  0.3816 -0.6826
20200TIP3   OH282090   1.260   2.263  12.709  0.1151  0.0951  0.0511
20200TIP3    H182091   1.188   2.223  12.661 -0.3406  0.5884  0.3181
20200TIP3    H282092   1.326   2.193  12.715 -1.7044 -1.6069  2.8129
20201TIP3   OH282093   5.249   0.128   0.607  0.0523 -0.1088  0.8279
20201TIP3    H182094   5.218   0.156   0.521  0.6404 -1.9245 -0.0190
20201TIP3    H282095   5.281   0.208   0.648  0.5216  0.6715 -0.9718
20202TIP3   OH282096   2.635   2.276   0.747  0.4643 -0.8786  0.4897
20202TIP3    H182097   2.568   2.254   0.682  0.2036 -0.3769  0.5895
20202TIP3    H282098   2.701   2.324   0.698  0.9080 -1.6305  0.3280
20203TIP3   OH282099   3.499   2.783   1.507  0.5292  0.0696  0.3800
20203TIP3    H182100   3.519   2.691   1.525  0.9576  0.2302  0.7623
20203TIP3    H282101   3.492   2.822   1.594 -1.7894 -0.0286  0.3047
20204TIP3   OH282102   2.914   3.219  17.212  0.1337 -0.0387 -0.1310
20204TIP3    H182103   2.886   3.176  17.294 -0.3847  0.2248 -0.1680
20204TIP3    H282104   2.835   3.261  17.179  0.4914  0.4050 -0.4348
20205TIP3   OH282105   5.236   2.822  16.117  0.0564 -0.3590  0.6272
20205TIP3    H182106   5.285   2.740  16.109  0.0162 -0.2882 -0.5732
20205TIP3    H282107   5.174   2.820  16.043  0.1806  0.8258  0.4758
20206TIP3   OH282108   5.591   4.135  15.805  0.3982 -0.3191  0.1905
20206TIP3    H182109   5.663   4.111  15.746  0.7351 -0.5643  0.6943
20206TIP3    H282110   5.526   4.177  15.748  1.2539  0.5838 -0.1503
20207TIP3   OH282111   2.496   6.347   5.305 -0.2326 -0.0728 -0.0351
20207TIP3    H182112   2.494   6.270   5.363 -2.5999 -1.7608 -2.1455
20207TIP3    H282113   2.564   6.326   5.240  0.3658  0.4794  0.3972
20208TIP3   OH282114   3.523   0.221  15.194 -0.0503  0.2653  0.8906
20208TIP3    H182115   3.467   0.279  15.246 -0.5085  0.2981  0.3716
20208TIP3    H282116   3.514   0.135  15.235 -0.6855  0.2162  0.6672
20209TIP3   OH282117   0.477   6.422  14.393 -0.0736  0.2360 -0.0199
20209TIP3    H182118   0.477   6.439  14.487  2.2099 -0.0983  0.0893
20209TIP3    H282119   0.386   6.402  14.372 -0.9696  2.1495  1.7577
20210TIP3   OH282120   5.752   3.250  10.719 -0.5155  0.5437  0.0799
20210TIP3    H182121   5.734   3.164  10.755 -2.3005  0.8056 -0.1284
20210TIP3    H282122   5.747   3.310  10.794 -0.1073  0.5842  0.0797
20211TIP3   OH282123   2.973   6.050  15.896  0.1863 -0.1342  0.0290
20211TIP3    H182124   2.939   6.025  15.982  0.6765 -0.7354  0.0546
20211TIP3    H282125   3.025   6.128  15.912 -0.1802  0.0838  0.1826
20212TIP3   OH282126   4.149   4.447  16.114 -0.6442 -0.0485  1.0222
20212TIP3    H182127   4.149   4.357  16.147 -1.2415 -1.9102 -3.2701
20212TIP3    H282128   4.233   4.456  16.069 -1.5092  0.6134 -0.5499
20213TIP3   OH282129   3.880   1.026   3.109  0.7020 -0.4033  0.3965
20213TIP3    H182130   3.930   0.984   3.178  1.0305 -0.1918  0.2895
20213TIP3    H282131   3.873   0.960   3.040  0.0372 -0.7459  0.7919
20214TIP3   OH282132   3.877   4.342   1.053  0.8349  0.5043 -0.0296
20214TIP3    H182133   3.878   4.265   1.109  2.1488  0.3951 -0.1782
20214TIP3    H282134   3.843   4.310   0.969  2.5569 -0.2181 -0.4820
20215TIP3   OH282135   6.689   0.199  16.088 -0.0296  0.4424 -0.0704
20215TIP3    H182136   6.689   0.239  16.175  0.7148  1.2074 -0.4040
20215TIP3    H282137   6.723   0.111  16.102  2.2034  1.2566  0.1652
20216TIP3   OH282138   0.329   4.167  14.998  0.1010  0.2035 -0.3723
20216TIP3    H182139   0.234   4.164  15.012  0.2300 -0.1734  0.5410
20216TIP3    H282140   0.339   4.182  14.904 -0.8649  0.0244 -0.5200
20217TIP3   OH282141   3.329   0.772  12.427  0.4640 -0.1451  0.1472
20217TIP3    H182142   3.411   0.816  12.450  0.2006  0.6792 -0.4666
20217TIP3    H282143   3.331   0.691  12.478  2.3984 -0.9104 -1.0140
20218TIP3   OH282144   2.176   5.202   0.832 -0.5450 -0.0606 -0.2543
20218TIP3    H182145   2.161   5.124   0.779 -0.1724 -0.0793 -0.3342
20218TIP3    H282146   2.135   5.182   0.917 -1.8511  0.2812 -0.7758
20219TIP3   OH282147   3.716   5.576  14.043 -0.0238 -0.5609 -0.1175
20219TIP3    H182148   3.752   5.489  14.063 -0.0957 -0.8863 -1.3047
20219TIP3    H282149   3.731   5.627  14.122 -0.8929 -1.9460  0.9912
20220TIP3   OH282150   0.475   4.506  15.572 -0.0391  0.2075  0.9626
20220TIP3    H182151   0.541   4.444  15.604 -1.4425 -0.4657  2.7635
20220TIP3    H282152   0.394   4.456  15.572 -0.6637  1.1752 -0.6705
20221TIP3   OH282153   5.094   4.411  13.247  0.3412 -0.8180  0.3454
20221TIP3    H182154   5.002   4.389  13.233  0.4457 -0.4331 -1.1299
20221TIP3    H282155   5.093   4.504  13.268  0.2785 -1.1751  2.1071
20222TIP3   OH282156   4.428   3.229   0.974  0.4660  0.6026 -0.2168
20222TIP3    H182157   4.465   3.173   1.042 -1.1703 -1.1572 -0.6965
20222TIP3    H282158   4.396   3.169   0.907 -1.0604  2.1221 -0.9365
20223TIP3   OH282159   5.078   3.986   1.665 -0.7500 -0.2807 -0.1948
20223TIP3    H182160   5.103   3.921   1.600  0.1021 -0.4369  0.2660
20223TIP3    H282161   5.151   3.986   1.727 -0.6627  1.2010 -0.2599
20224TIP3   OH282162   6.272   1.317  12.124  0.6878 -0.2170 -0.3812
20224TIP3    H182163   6.342   1.382  12.123  0.8788 -0.4025  0.6276
20224TIP3    H282164   6.316   1.234  12.138  0.2260 -0.2678  0.9022
20225TIP3   OH282165   4.088   4.484   2.661 -0.2582 -0.0144 -0.0472
20225TIP3    H182166   4.127   4.544   2.724 -0.0412 -0.0866 -0.1136
20225TIP3    H282167   4.120   4.398   2.686 -0.6558 -0.1217  0.1141
20226TIP3   OH282168   2.106   6.625  14.398 -0.2886 -0.0964 -0.0658
20226TIP3    H182169   2.043   6.627  14.326  0.6328  0.9784 -0.8729
20226TIP3    H282170   2.100   6.536  14.434 -1.4548 -0.3382 -0.8386
20227TIP3   OH282171   4.341   5.421  17.248  0.1277  0.1860 -0.4144
20227TIP3    H182172   4.281   5.493  17.268 -0.6427 -0.3774 -0.6348
20227TIP3    H282173   4.289   5.342  17.262  0.6137 -0.2990 -1.2594
20228TIP3   OH282174   0.706   4.436   4.729 -0.5193  0.4431  0.2572
20228TIP3    H182175   0.686   4.412   4.819  0.0519  1.0430  0.5547
20228TIP3    H282176   0.658   4.518   4.715 -0.5142  0.4130  0.0621
20229TIP3   OH282177   5.705   3.683  16.107 -0.0095  0.1547 -0.5669
20229TIP3    H182178   5.684   3.695  16.014  0.7249 -0.7464 -0.8641
20229TIP3    H282179   5.801   3.683  16.110 -0.0259  0.7396  0.2792
20230TIP3   OH282180   2.994   1.427   0.964  0.1060  0.6376 -0.1939
20230TIP3    H182181   3.008   1.344   1.010 -1.3077  1.0290  1.0142
20230TIP3    H282182   2.900   1.432   0.950  0.0819  2.3103  0.3186
20231TIP3   OH282183   6.102   3.615  16.488  0.0278  0.0031  0.9752
20231TIP3    H182184   6.160   3.594  16.415  0.7019  0.5515  1.3379
20231TIP3    H282185   6.015   3.589  16.459  0.0764  1.3853 -0.5247
20232TIP3   OH282186   1.533   0.223  13.010  0.1167 -0.2584 -0.3591
20232TIP3    H182187   1.500   0.305  13.047 -0.1162 -0.2692 -0.5322
20232TIP3    H282188   1.606   0.199  13.066 -0.6075 -0.5990  0.4785
20233TIP3   OH282189   2.306   4.446   5.495 -0.1446  0.2353  0.0588
20233TIP3    H182190   2.341   4.530   5.465  1.6299 -1.1603 -2.1259
20233TIP3    H282191   2.293   4.395   5.415 -2.9525 -1.0116  1.1488
20234TIP3   OH282192   3.291   6.254  13.100  0.0190 -0.1433 -0.1958
20234TIP3    H182193   3.371   6.222  13.057  0.3094  0.6623 -0.2575
20234TIP3    H282194   3.245   6.302  13.032  0.4746  1.1267  0.3680
20235TIP3   OH282195   2.803   5.462  13.169 -0.9168 -0.4418  0.3089
20235TIP3    H182196   2.733   5.484  13.107 -1.4118 -1.3915  0.5265
20235TIP3    H282197   2.812   5.541  13.223 -0.8536  0.1988 -0.6115
20236TIP3   OH282198   6.542   1.010  13.190 -0.5747  0.3540  0.1188
20236TIP3    H182199   6.579   0.927  13.159 -1.7303  0.2913 -1.2192
20236TIP3    H282200   6.617   1.069  13.199  0.0208 -0.1992 -1.0510
20237TIP3   OH282201   1.844   5.235  15.679  0.1704 -0.0001  0.1344
20237TIP3    H182202   1.810   5.250  15.591 -0.3297 -1.3161  0.0899
20237TIP3    H282203   1.821   5.145  15.699  1.9962 -0.3445  0.8669
20238TIP3   OH282204   3.590   1.962  10.815 -0.5732  0.0938 -0.0082
20238TIP3    H182205   3.676   1.960  10.858 -0.3873  0.0720 -0.3802
20238TIP3    H282206   3.564   1.870  10.810  0.4142 -0.1214 -1.9467
20239TIP3   OH282207   2.214   4.413  11.133 -0.2822 -0.2062  0.2085
20239TIP3    H182208   2.296   4.373  11.162 -0.6888 -1.0874  0.1668
20239TIP3    H282209   2.191   4.365  11.054 -0.2374  0.8275 -0.4424
20240TIP3   OH282210   4.710   3.989   5.295  0.2452 -0.9434 -0.3630
20240TIP3    H182211   4.660   4.070   5.294 -0.9067 -1.5624  1.5416
20240TIP3    H282212   4.785   4.006   5.238  0.6674  1.8439  0.8706
20241TIP3   OH282213   6.682   3.446  16.765 -0.2092  0.6413  0.0208
20241TIP3    H182214   6.630   3.416  16.840  0.3012 -1.6312 -0.4461
20241TIP3    H282215   6.654   3.390  16.693  3.5543 -1.5586 -0.0028
20242TIP3   OH282216   3.181   3.447   1.927 -0.2424  0.3145  0.4555
20242TIP3    H182217   3.184   3.356   1.900 -1.9687  0.4791 -0.4302
20242TIP3    H282218   3.272   3.473   1.936  0.2865 -1.7671  1.7653
20243TIP3   OH282219   4.142   2.975  11.177  0.3137  0.1180  0.5727
20243TIP3    H182220   4.154   2.890  11.135 -0.8460 -0.3302  1.1019
20243TIP3    H282221   4.227   2.994  11.217  0.4034 -1.1203  1.0248
20244TIP3   OH282222   2.420   1.693   4.547  0.1124  0.2667 -0.4317
20244TIP3    H182223   2.390   1.763   4.605  0.2117 -0.6502  0.7636
20244TIP3    H282224   2.508   1.720   4.521  0.0739  0.6866 -0.1380
20245TIP3   OH282225   2.117   5.538  15.911 -0.5668  0.0377 -0.0459
20245TIP3    H182226   2.128   5.446  15.937 -2.0882 -0.2184 -0.1720
20245TIP3    H282227   2.025   5.556  15.930 -0.4164  1.3820 -0.5424
20246TIP3   OH282228   3.601   6.810   4.475  0.3688 -0.5309  0.1618
20246TIP3    H182229   3.589   6.876   4.407 -2.0891  0.1972  1.2387
20246TIP3    H282230   3.638   6.735   4.428  1.5760  0.9459 -1.3889
20247TIP3   OH282231   5.110   4.015  16.806 -0.2956  0.5223  0.3360
20247TIP3    H182232   5.205   4.024  16.807 -0.2638  0.1366  1.2352
20247TIP3    H282233   5.079   4.100  16.773  0.3553  0.5873 -0.1337
20248TIP3   OH282234   5.145   0.167  13.648  0.1143 -0.2197  0.1068
20248TIP3    H182235   5.110   0.106  13.712  1.7835 -0.1127  1.1738
20248TIP3    H282236   5.100   0.250  13.666 -0.2305 -0.4720  0.4060
20249TIP3   OH282237   4.066   4.380  10.777 -0.3846  0.0086  0.4628
20249TIP3    H182238   4.116   4.362  10.698  3.2000 -0.2489  2.5774
20249TIP3    H282239   4.083   4.472  10.796 -2.2145  0.4035  0.3408
20250TIP3   OH282240   4.342   2.863   3.795  0.0626  0.1687 -0.2317
20250TIP3    H182241   4.342   2.908   3.880 -1.7991  0.8278 -0.5328
20250TIP3    H282242   4.433   2.834   3.783  0.6850  1.3470  1.2941
20251TIP3   OH282243   6.379   3.059  12.823  0.2156  0.8673  0.1306
20251TIP3    H182244   6.385   3.018  12.737 -0.7862  1.9060 -0.4664
20251TIP3    H282245   6.405   3.150  12.809 -0.5728  1.2134  0.7711
20252TIP3   OH282246   2.597   5.191  15.257 -0.6710  0.1331 -0.2213
20252TIP3    H182247   2.510   5.199  15.217 -0.9404  0.6862  0.4554
20252TIP3    H282248   2.634   5.111  15.219 -1.8284 -0.6075  0.1590
20253TIP3   OH282249   4.975   3.266   1.788  0.4657  0.4314 -0.3545
20253TIP3    H182250   4.935   3.353   1.787  1.0837  0.7701  0.9642
20253TIP3    H282251   4.962   3.236   1.878  0.3407 -0.8056 -0.7772
20254TIP3   OH282252   5.716   2.336  15.222  0.3649 -0.0544 -0.0725
20254TIP3    H182253   5.789   2.382  15.262  0.3781  0.6196 -0.8518
20254TIP3    H282254   5.686   2.394  15.151  0.3569 -1.2114 -1.0487
20255TIP3   OH282255   0.009   0.699  12.296  0.2099  0.9128 -0.3690
20255TIP3    H182256  -0.014   0.755  12.221 -3.5430 -0.5145 -0.5017
20255TIP3    H282257   0.053   0.624  12.257 -3.0609 -0.5794 -1.6003
20256TIP3   OH282258   2.612   4.781   0.289  0.0751  0.1878  0.4706
20256TIP3    H182259   2.702   4.752   0.273 -0.3465 -0.5974 -0.5730
20256TIP3    H282260   2.621   4.869   0.324  1.2210  0.5102 -0.5713
20257TIP3   OH282261   6.271   2.058   1.509  0.4215 -0.0885  0.3513
20257TIP3    H182262   6.328   2.125   1.471 -0.7718  1.7704  1.6404
20257TIP3    H282263   6.193   2.059   1.452  0.5724 -0.7087  0.1295
20258TIP3   OH282264   6.309   6.514  12.882  0.3585 -0.0075  0.1327
20258TIP3    H182265   6.299   6.458  12.804 -1.8425 -2.6025  2.0586
20258TIP3    H282266   6.223   6.553  12.894  1.3644  2.4009 -0.0710
20259TIP3   OH282267   5.970   2.686  13.758  0.0997 -0.1923  0.4034
20259TIP3    H182268   5.957   2.625  13.831 -2.6576  0.0147  0.1839
20259TIP3    H282269   5.998   2.768  13.800 -1.5369 -0.0476  1.2838
20260TIP3   OH282270   1.471   6.171  10.387 -0.3131 -0.1321 -0.4045
20260TIP3    H182271   1.400   6.129  10.339 -1.4190  1.5499 -0.3315
20260TIP3    H282272   1.549   6.154  10.335 -0.1905 -4.3037  0.8385
20261TIP3   OH282273   6.020   1.282   0.281 -0.4967 -0.3111 -0.3899
20261TIP3    H182274   6.009   1.238   0.365  0.9477 -0.6196 -0.3319
20261TIP3    H282275   5.958   1.355   0.284  0.4260  0.4776  1.5211
20262TIP3   OH282276   4.618   2.377   3.721  1.0074  0.0886 -0.1361
20262TIP3    H182277   4.616   2.442   3.651 -0.5819  2.4104  1.9034
20262TIP3    H282278   4.543   2.400   3.777  0.9812 -2.9300  1.2339
20263TIP3   OH282279   4.255   5.023  11.386  0.0729  0.3014 -0.2946
20263TIP3    H182280   4.162   5.030  11.411 -0.0950 -3.3704  0.5619
20263TIP3    H282281   4.254   5.009  11.292  0.0103  2.5575 -0.7000
20264TIP3   OH282282   3.124   2.152   1.104  0.2994 -0.6212  0.0480
20264TIP3    H182283   3.097   2.144   1.013  0.1371 -0.8843  0.1178
20264TIP3    H282284   3.042   2.163   1.153  0.4850  1.4236 -0.0231
20265TIP3   OH282285   1.511   5.931   2.449  0.5378  0.0305  0.5959
20265TIP3    H182286   1.531   5.849   2.494  0.1014 -1.2253 -1.4111
20265TIP3    H282287   1.435   5.911   2.395  2.0291  0.9420 -1.9962
20266TIP3   OH282288   2.863   4.001   2.849  0.3761 -0.3767  0.4518
20266TIP3    H182289   2.930   4.068   2.863 -0.4744  0.4657  0.5622
20266TIP3    H282290   2.892   3.955   2.770  1.1031 -0.0588  0.5216
20267TIP3   OH282291   6.759   0.038   4.382  0.0617 -0.3143  0.6303
20267TIP3    H182292   6.667   0.034   4.409  0.1126 -0.3342  0.8001
20267TIP3    H282293   6.782   0.130   4.388 -1.2287  0.5213 -3.6989
20268TIP3   OH282294   6.377   2.958   6.488 -0.0483  0.3720  0.8051
20268TIP3    H182295   6.332   2.874   6.478 -0.9079  1.0138 -1.4776
20268TIP3    H282296   6.317   3.012   6.539 -0.1341  0.0203  1.0728
20269TIP3   OH282297   5.250   0.440  16.624 -0.6734  0.1101  0.2846
20269TIP3    H182298   5.189   0.482  16.563  0.9860 -0.4252 -1.8785
20269TIP3    H282299   5.234   0.346  16.613 -2.0018 -0.0153  2.5676
20270TIP3   OH282300   3.549   0.884  12.023  0.1973 -0.1059  0.4170
20270TIP3    H182301   3.507   0.892  12.109 -2.1349  0.5790 -0.7237
20270TIP3    H282302   3.488   0.834  11.970  0.7420  1.0221 -1.3649
20271TIP3   OH282303   0.998   2.415  16.070 -0.2120 -1.0629  0.1712
20271TIP3    H182304   0.943   2.349  16.028 -0.0320 -1.2856  0.2882
20271TIP3    H282305   1.001   2.391  16.162 -1.5787  0.0992  0.5509
20272TIP3   OH282306   6.444   5.132  16.693 -0.6144  0.8757  0.0496
20272TIP3    H182307   6.528   5.157  16.732 -1.0395  1.3661  0.6671
20272TIP3    H282308   6.380   5.153  16.760 -1.3276  1.3578 -0.7666
20273LIG      O82309   4.320   2.091  10.889 -0.3098 -1.0338  0.8986
20273LIG     C182310   4.339   2.061  10.755  0.2077  1.0590  1.1181
20273LIG     C282311   4.344   2.195  10.678 -0.1989  0.3961 -0.0663
20273LIG     C382312   4.459   1.984  10.747  0.7874  0.1648  0.3547
20273LIG     H182313   4.251   2.003  10.720  0.5414  0.3172  1.4691
20273LIG     H282314   4.354   2.177  10.569 -1.7605  3.7921 -0.9257
20273LIG     H382315   4.430   2.257  10.714  1.4450 -1.4439 -0.6672
20273LIG     H482316   4.251   2.254  10.691 -0.2195  0.9065 -2.1553
20273LIG     H582317   4.535   2.046  10.799  1.6153 -0.4999 -0.0400
20273LIG     H682318   4.486   1.954  10.643  2.3709  1.3643  0.3854
20273LIG     H782319   4.454   1.892  10.810  2.2623  0.6673  1.2650
20273LIG     H882320   4.228   2.118  10.894 -0.4815 -1.7703  1.9717
   6.82606   6.82606  17.28263
